/*--------------------------------*- C++ -*----------------------------------*\
  =========                 |
  \\      /  F ield         | OpenFOAM: The Open Source CFD Toolbox
   \\    /   O peration     | Website:  https://openfoam.org
    \\  /    A nd           | Version:  11
     \\/     M anipulation  |
\*---------------------------------------------------------------------------*/
FoamFile
{
    format      ascii;
    class       volScalarField;
    location    "4.7";
    object      p;
}
// * * * * * * * * * * * * * * * * * * * * * * * * * * * * * * * * * * * * * //

dimensions      [0 2 -2 0 0 0 0];

internalField   nonuniform List<scalar> 
10100
(
3.20369e-08
8.01647e-05
-7.35951e-05
-0.000431601
-0.000997075
-0.00176776
-0.00271125
-0.00378846
-0.00495879
-0.0061859
-0.00743691
-0.00868082
-0.00989093
-0.0110437
-0.0121181
-0.0130973
-0.013966
-0.0147103
-0.0153185
-0.0157828
-0.0160951
-0.0162503
-0.0162444
-0.0160734
-0.0157352
-0.0152294
-0.0145571
-0.0137192
-0.0127168
-0.0115518
-0.0102265
-0.00874476
-0.00711138
-0.00533216
-0.00341301
-0.00135954
0.000822291
0.0031256
0.00554272
0.00806596
0.0106877
0.0133998
0.0161935
0.0190603
0.0219915
0.0249786
0.0280126
0.031084
0.0341834
0.0373017
0.0404291
0.0435553
0.0466705
0.0497647
0.0528281
0.0558503
0.058821
0.0617302
0.0645684
0.0673259
0.069993
0.0725602
0.0750183
0.077359
0.0795747
0.0816576
0.0836
0.0853949
0.0870362
0.0885185
0.0898367
0.0909861
0.0919625
0.0927627
0.0933842
0.0938259
0.0940875
0.0941701
0.0940758
0.0938084
0.0933731
0.0927759
0.0920244
0.0911275
0.0900968
0.0889464
0.0876927
0.0863541
0.0849513
0.0835069
0.0820469
0.0806009
0.0792029
0.0778917
0.07671
0.0757046
0.0749241
0.0744168
0.0742254
0.0743092
-6.9291e-05
0.000150437
8.2792e-05
-0.000200303
-0.000675368
-0.00133469
-0.00214826
-0.00308038
-0.00409768
-0.00516772
-0.00626114
-0.00735215
-0.00841545
-0.00942918
-0.0103745
-0.0112349
-0.0119957
-0.0126444
-0.01317
-0.0135627
-0.013816
-0.0139242
-0.0138831
-0.0136892
-0.01334
-0.0128342
-0.0121718
-0.0113537
-0.0103814
-0.00925689
-0.00798215
-0.00655996
-0.0049944
-0.00329068
-0.00145432
0.000509197
0.00259393
0.00479327
0.00710034
0.00950822
0.0120096
0.0145967
0.0172614
0.0199954
0.0227907
0.0256388
0.0285309
0.0314584
0.0344128
0.0373848
0.0403651
0.0433439
0.0463117
0.0492593
0.0521774
0.0550561
0.0578854
0.0606562
0.0633597
0.0659863
0.0685269
0.0709725
0.0733147
0.0755458
0.0776586
0.0796459
0.0815
0.0832145
0.0847843
0.0862046
0.0874704
0.0885771
0.0895214
0.0903006
0.0909127
0.0913569
0.0916335
0.0917436
0.0916896
0.0914756
0.0911069
0.0905897
0.0899312
0.0891403
0.0882285
0.0872096
0.0860994
0.0849154
0.0836769
0.0824051
0.081124
0.0798602
0.0786442
0.077509
0.0764901
0.0756245
0.0749478
0.074494
0.0743074
0.0743916
0.000198198
0.0004852
0.000459821
0.00021407
-0.000211701
-0.000804463
-0.00153446
-0.00237159
-0.00328525
-0.00424606
-0.00522828
-0.00620873
-0.00716463
-0.00807579
-0.00892475
-0.00969485
-0.0103738
-0.010949
-0.01141
-0.0117476
-0.0119552
-0.0120266
-0.0119576
-0.0117454
-0.0113875
-0.0108822
-0.0102286
-0.00942696
-0.00847916
-0.00738715
-0.00615283
-0.00477872
-0.00326845
-0.00162647
0.000142326
0.00203255
0.0040382
0.0061529
0.00837037
0.0106844
0.0130877
0.0155726
0.0181317
0.0207574
0.0234417
0.0261762
0.0289524
0.0317624
0.0345982
0.0374509
0.0403109
0.0431692
0.0460169
0.0488452
0.0516449
0.0544065
0.0571206
0.0597788
0.0623727
0.0648931
0.0673307
0.0696773
0.0719253
0.0740675
0.076097
0.0780066
0.0797892
0.081439
0.0829513
0.0843217
0.0855454
0.0866181
0.0875369
0.0882994
0.0889042
0.0893507
0.0896392
0.0897712
0.0897493
0.0895776
0.0892614
0.0888065
0.08822
0.0875106
0.0866898
0.0857711
0.0847694
0.0837012
0.0825844
0.0814387
0.080286
0.0791508
0.0780598
0.0770418
0.076127
0.0753462
0.0747286
0.0743026
0.0741166
0.0741974
0.000899302
0.00114229
0.0010938
0.000835726
0.000415008
-0.000153066
-0.000841109
-0.00162293
-0.00247142
-0.00336026
-0.00426683
-0.00516835
-0.00604606
-0.00688174
-0.00765798
-0.00836036
-0.00897615
-0.00949427
-0.00990449
-0.0101989
-0.0103704
-0.0104131
-0.0103226
-0.0100958
-0.00973083
-0.00922627
-0.00858081
-0.00779442
-0.00686826
-0.00580388
-0.00460328
-0.00326939
-0.00180575
-0.000216116
0.00149527
0.00332308
0.00526137
0.00730432
0.00944607
0.0116805
0.0140005
0.0163988
0.0188684
0.0214022
0.0239921
0.0266299
0.0293079
0.0320185
0.0347538
0.0375049
0.0402628
0.0430188
0.0457647
0.048492
0.0511914
0.0538536
0.05647
0.059033
0.0615341
0.0639643
0.0663148
0.068578
0.0707466
0.0728137
0.0747728
0.076617
0.0783396
0.0799353
0.0813998
0.0827284
0.0839167
0.0849609
0.0858584
0.0866073
0.0872061
0.0876543
0.0879524
0.0881021
0.0881061
0.0879686
0.0876944
0.0872891
0.0867592
0.0861137
0.0853637
0.0845223
0.0836036
0.0826227
0.0815959
0.0805416
0.0794801
0.0784335
0.0774255
0.0764812
0.075627
0.0748897
0.0742949
0.0738686
0.0736558
0.0736857
0.00193771
0.00205299
0.00192891
0.00162565
0.00118114
0.000612249
-5.93381e-05
-0.000809129
-0.00161441
-0.00245266
-0.00330144
-0.00414299
-0.004959
-0.00573267
-0.00644914
-0.00709514
-0.00765826
-0.0081284
-0.00849547
-0.00875252
-0.00889303
-0.00891137
-0.00880291
-0.00856446
-0.00819411
-0.00769037
-0.0070526
-0.00628086
-0.00537548
-0.00433739
-0.00316866
-0.00187234
-0.00045175
0.00108966
0.00274775
0.0045174
0.00639302
0.00836935
0.0104409
0.0126014
0.0148441
0.0171622
0.0195491
0.0219975
0.0244996
0.0270477
0.0296347
0.0322533
0.0348955
0.0375525
0.0402156
0.0428771
0.0455289
0.0481624
0.0507688
0.0533392
0.0558656
0.0583404
0.0607557
0.0631024
0.0653724
0.0675587
0.0696543
0.0716524
0.0735465
0.0753302
0.0769977
0.078544
0.0799646
0.0812549
0.0824105
0.0834283
0.0843063
0.0850427
0.0856358
0.0860851
0.0863914
0.0865565
0.0865832
0.0864753
0.0862374
0.0858746
0.0853935
0.0848026
0.0841128
0.0833365
0.0824868
0.0815773
0.0806232
0.0796413
0.0786502
0.0776697
0.0767208
0.0758254
0.0750063
0.074287
0.0736902
0.0732392
0.0729682
0.0728983
0.00321536
0.00315452
0.00292005
0.0025474
0.00205836
0.0014649
0.000789611
5.11671e-05
-0.000730578
-0.00153555
-0.00234526
-0.00314268
-0.00391168
-0.00463731
-0.00530623
-0.00590597
-0.00642601
-0.00685648
-0.00718848
-0.0074143
-0.00752858
-0.00752631
-0.00740307
-0.00715578
-0.00678202
-0.00628023
-0.00565012
-0.00489188
-0.0040056
-0.0029921
-0.00185343
-0.00059228
0.000788529
0.00228563
0.0038946
0.00561051
0.00742853
0.00934368
0.0113505
0.0134429
0.0156143
0.0178587
0.0201695
0.0225394
0.0249608
0.0274266
0.0299302
0.0324643
0.0350209
0.0375914
0.0401678
0.0427429
0.0453085
0.0478561
0.0503772
0.0528636
0.0553078
0.0577022
0.0600389
0.0623093
0.0645061
0.0666224
0.0686514
0.0705864
0.0724213
0.0741501
0.0757675
0.0772687
0.0786492
0.0799045
0.0810304
0.0820242
0.0828843
0.0836089
0.0841964
0.0846461
0.0849589
0.0851369
0.0851827
0.0850998
0.0848923
0.0845653
0.084125
0.0835798
0.0829399
0.0822168
0.0814223
0.0805691
0.0796713
0.0787443
0.0778048
0.0768702
0.075959
0.0750903
0.0742841
0.0735604
0.0729395
0.0724418
0.0720865
0.0718817
0.00466632
0.00440446
0.00403831
0.00357739
0.00302393
0.0023891
0.00169017
0.000944514
0.00016863
-0.000620454
-0.00140679
-0.00217504
-0.00291134
-0.00360234
-0.00423562
-0.00479989
-0.00528597
-0.00568505
-0.00598919
-0.00619056
-0.00628397
-0.00626507
-0.00613005
-0.00587596
-0.0055004
-0.00500198
-0.00438012
-0.0036347
-0.00276602
-0.00177524
-0.000664321
0.000564607
0.00190898
0.00336535
0.00492937
0.00659635
0.00836199
0.0102215
0.0121693
0.0141996
0.0163064
0.0184839
0.0207255
0.0230239
0.025372
0.0277634
0.0301915
0.0326489
0.0351278
0.0376201
0.0401185
0.0426156
0.0451033
0.0475732
0.0500174
0.0524283
0.0547985
0.0571205
0.0593864
0.0615884
0.0637194
0.065773
0.0677423
0.0696206
0.0714022
0.073082
0.0746546
0.0761152
0.0774595
0.078683
0.0797821
0.0807544
0.0815983
0.0823121
0.0828938
0.0833429
0.0836604
0.0838486
0.0839099
0.0838473
0.0836645
0.0833663
0.082959
0.0824505
0.0818502
0.0811685
0.0804162
0.0796051
0.0787481
0.0778594
0.0769538
0.0760466
0.0751537
0.074292
0.0734785
0.0727307
0.0720665
0.0715038
0.0710443
0.0706818
0.0062374
0.00576507
0.00525283
0.00468955
0.00405739
0.00336526
0.0026281
0.00185975
0.00107449
0.000286089
-0.000490903
-0.00124333
-0.00195936
-0.00262728
-0.00323576
-0.0037748
-0.00423571
-0.00461116
-0.00489348
-0.00507629
-0.00515422
-0.00512298
-0.00497924
-0.00472029
-0.00434429
-0.00385003
-0.00323661
-0.00250369
-0.00165183
-0.000682284
0.000403247
0.0016029
0.00291405
0.00433307
0.00585602
0.00747878
0.00919701
0.0110059
0.0129001
0.0148742
0.0169228
0.0190397
0.0212184
0.0234521
0.0257342
0.0280587
0.0304187
0.0328069
0.0352158
0.0376381
0.0400665
0.0424936
0.0449114
0.0473117
0.0496872
0.0520307
0.0543347
0.0565919
0.0587947
0.0609358
0.0630086
0.0650064
0.0669224
0.06875
0.0704844
0.0721206
0.0736534
0.0750778
0.0763895
0.0775845
0.0786596
0.0796127
0.080442
0.0811455
0.0817212
0.0821688
0.0824895
0.0826853
0.0827584
0.0827115
0.082548
0.0822726
0.081891
0.0814108
0.0808404
0.0801893
0.0794675
0.0786857
0.0778558
0.0769908
0.0761037
0.0752077
0.0743167
0.073445
0.0726075
0.0718191
0.071096
0.0704534
0.0698754
0.0693414
0.00788706
0.00720099
0.00653535
0.00586019
0.00513815
0.00437632
0.00358837
0.00278498
0.00197716
0.0011769
0.00039686
-0.000351772
-0.00105868
-0.00171359
-0.00230681
-0.00282961
-0.00327365
-0.00363248
-0.00389918
-0.00406831
-0.00413509
-0.00409547
-0.00394608
-0.00368461
-0.0033097
-0.00282012
-0.00221493
-0.00149411
-0.000658401
0.000291345
0.0013538
0.00252683
0.00380759
0.0051927
0.00667862
0.0082615
0.00993692
0.0117001
0.013546
0.0154697
0.0174658
0.0195282
0.0216503
0.0238259
0.026049
0.0283135
0.0306123
0.0329385
0.0352851
0.0376451
0.0400112
0.0423758
0.0447312
0.0470698
0.0493846
0.0516684
0.0539137
0.0561134
0.0582605
0.0603481
0.0623696
0.0643182
0.0661871
0.0679702
0.0696629
0.0712607
0.0727584
0.0741508
0.0754336
0.0766034
0.0776573
0.0785931
0.0794091
0.0801028
0.0806724
0.0811177
0.0814399
0.081641
0.0817227
0.0816872
0.0815381
0.0812796
0.0809171
0.0804573
0.0799081
0.079278
0.0785761
0.0778123
0.0769977
0.0761436
0.0752615
0.0743628
0.0734593
0.0725635
0.0716881
0.0708458
0.0700513
0.0693174
0.0686112
0.0678981
0.0095799
0.00868247
0.00786075
0.00706761
0.00624695
0.00540638
0.0045571
0.00370741
0.00286635
0.00204384
0.00124992
0.000494554
-0.000212959
-0.000864138
-0.00145081
-0.00196501
-0.00239967
-0.00274823
-0.00300533
-0.00316567
-0.00322504
-0.00318007
-0.0030277
-0.00276601
-0.00239361
-0.00190921
-0.00131229
-0.000603223
0.00021744
0.00114911
0.00219055
0.00333938
0.00459263
0.00594728
0.00740016
0.00894737
0.0105844
0.0123065
0.0141094
0.0159883
0.0179376
0.019951
0.0220228
0.0241471
0.0263178
0.0285288
0.0307732
0.0330444
0.0353361
0.0376412
0.0399522
0.0422617
0.0445621
0.0468465
0.0491081
0.0513395
0.0535333
0.0556827
0.0577814
0.0598224
0.0617991
0.0637047
0.0655325
0.0672769
0.0689337
0.0704983
0.0719653
0.0733296
0.0745872
0.075735
0.0767704
0.077691
0.0784947
0.0791791
0.0797426
0.080185
0.0805075
0.0807117
0.0807988
0.0807711
0.0806315
0.0803845
0.0800349
0.0795886
0.0790527
0.0784349
0.0777435
0.0769878
0.0761777
0.0753233
0.0744345
0.073521
0.0725929
0.0716611
0.0707364
0.0698296
0.0689537
0.0681202
0.0672796
0.0663843
0.0112867
0.0101834
0.009205
0.00828987
0.00736685
0.00643964
0.00552067
0.00461603
0.00373261
0.00287833
0.00206141
0.00129045
0.000573447
-8.24617e-05
-0.000670218
-0.00118275
-0.00161424
-0.00195854
-0.00221106
-0.0023672
-0.00242298
-0.00237544
-0.00222239
-0.00196218
-0.00159332
-0.00111468
-0.000526233
0.000171521
0.000978412
0.00189396
0.00291642
0.00404326
0.00527196
0.00659987
0.00802361
0.00953899
0.0111418
0.012828
0.0145932
0.0164324
0.0183401
0.0203105
0.0223381
0.0244173
0.0265421
0.0287059
0.0309025
0.0331258
0.0353696
0.0376266
0.0398895
0.0421508
0.0444035
0.0466411
0.0488565
0.0510423
0.0531914
0.0552976
0.0573547
0.0593557
0.0612939
0.0631623
0.0649548
0.0666663
0.0682926
0.0698289
0.0712697
0.0726099
0.073846
0.0749751
0.0759945
0.0769017
0.0776944
0.0783704
0.078928
0.0793671
0.0796887
0.079894
0.0799839
0.0799602
0.0798261
0.0795855
0.0792431
0.0788041
0.0782744
0.0776611
0.076972
0.0762154
0.0754003
0.0745356
0.0736298
0.0726911
0.0717282
0.0707505
0.0697673
0.0687873
0.0678226
0.0668833
0.0659047
0.0648268
0.0129841
0.0116801
0.0105465
0.00950889
0.00847887
0.00746064
0.00646592
0.00549933
0.00456579
0.00367173
0.00282413
0.00202989
0.00129566
0.000627591
3.19479e-05
-0.000485386
-0.000918983
-0.00126431
-0.00151673
-0.0016724
-0.0017279
-0.00168069
-0.00152917
-0.00127167
-0.000906972
-0.00043474
0.000145055
0.00083241
0.00162707
0.00252803
0.00353343
0.00464097
0.00584836
0.00715292
0.00855113
0.0100388
0.011612
0.0132669
0.0149993
0.016804
0.0186756
0.0206087
0.0225982
0.0246385
0.0267231
0.0288461
0.0310015
0.0331836
0.0353862
0.0376018
0.039823
0.042043
0.0442551
0.0464526
0.0486284
0.0507753
0.0528864
0.0549559
0.0569779
0.0589451
0.0608505
0.0626876
0.0644507
0.0661348
0.0677359
0.0692487
0.0706677
0.0719879
0.0732063
0.0743198
0.0753258
0.0762215
0.0770047
0.0776731
0.0782253
0.078661
0.0789809
0.0791855
0.0792756
0.0792528
0.0791203
0.078882
0.0785417
0.0781041
0.0775743
0.0769587
0.0762642
0.0754988
0.0746704
0.0737866
0.0728548
0.0718819
0.0708754
0.0698437
0.0687945
0.0677346
0.0666753
0.0656261
0.0645076
0.0632486
0.0146516
0.0131537
0.0118674
0.0107063
0.00956708
0.00845464
0.00737937
0.00634504
0.0053552
0.00441508
0.00353003
0.00270573
0.00194782
0.00126145
0.000651989
0.000124281
-0.000316734
-0.000667411
-0.000923598
-0.00108204
-0.00114018
-0.00109582
-0.0009474
-0.000693749
-0.000334196
0.000131384
0.000703058
0.00138096
0.00216467
0.00305275
0.00404325
0.00513425
0.00632356
0.00760819
0.00898444
0.0104484
0.0119965
0.013625
0.0153293
0.0171045
0.0189454
0.0208471
0.0228045
0.0248115
0.026862
0.0289503
0.0310711
0.0332185
0.0353862
0.0375666
0.0397528
0.0419381
0.0441162
0.0462801
0.0484227
0.050537
0.0526166
0.054656
0.0566488
0.058588
0.0604663
0.0622778
0.0640171
0.0656794
0.0672602
0.0687542
0.0701557
0.0714602
0.0726644
0.0737657
0.0747609
0.0756472
0.0764224
0.0770844
0.077632
0.0780645
0.0783818
0.0785842
0.0786723
0.0786478
0.0785139
0.078274
0.0779315
0.0774901
0.0769545
0.0763302
0.0756239
0.0748427
0.0739934
0.0730828
0.0721169
0.0711021
0.070045
0.0689526
0.0678311
0.0666857
0.0655275
0.0643656
0.0631068
0.061669
0.0162726
0.0145872
0.0131511
0.0118662
0.0106173
0.00940802
0.00824865
0.00714203
0.006091
0.00509938
0.00417109
0.0033109
0.00252373
0.00181389
0.00118551
0.000642879
0.000189768
-0.000169981
-0.000433321
-0.000597575
-0.00066075
-0.000621184
-0.000477262
-0.000228457
0.000125181
0.000584007
0.00114843
0.00181813
0.00259203
0.00346879
0.00444689
0.0055244
0.00669871
0.00796657
0.00932453
0.010769
0.0122966
0.0139031
0.015584
0.0173348
0.0191506
0.0210266
0.0229574
0.0249369
0.0269591
0.0290191
0.0311115
0.0332305
0.0353693
0.0375208
0.0396783
0.0418356
0.0439861
0.0461225
0.048238
0.0503259
0.0523804
0.0543957
0.0563654
0.058282
0.0601389
0.0619304
0.0636515
0.0652972
0.0668627
0.0683423
0.0697307
0.0710235
0.0722176
0.0733099
0.074297
0.0751761
0.0759451
0.0766024
0.0771462
0.0775756
0.0778899
0.0780889
0.0781732
0.078145
0.078007
0.0777624
0.0774137
0.076964
0.0764174
0.0757791
0.0750552
0.0742519
0.0733752
0.0724308
0.0714242
0.0703609
0.0692469
0.068088
0.0668891
0.065654
0.0643937
0.0631172
0.0617187
0.060105
0.0178333
0.0159659
0.0143828
0.0129757
0.0116161
0.0103081
0.00906222
0.00788006
0.00676361
0.00571581
0.00473974
0.00383903
0.00301773
0.00227967
0.00162804
0.00106642
0.000597739
0.00022557
-4.78456e-05
-0.000220659
-0.000290987
-0.000257421
-0.000119273
0.000123435
0.00047087
0.000923571
0.00148153
0.00214383
0.00290929
0.00377685
0.00474514
0.0058119
0.00697407
0.00822848
0.009572
0.0110012
0.0125124
0.0141013
0.0157636
0.0174951
0.0192914
0.021147
0.0230565
0.025014
0.027014
0.0290518
0.031122
0.0332184
0.0353343
0.0374631
0.0395985
0.0417341
0.0438629
0.0459779
0.0480724
0.0501404
0.0521759
0.0541732
0.0561252
0.0580248
0.0598659
0.0616432
0.0633515
0.0649856
0.0665403
0.0680102
0.06939
0.0706753
0.071863
0.0729496
0.0739314
0.0748058
0.075571
0.0762251
0.0767663
0.0771928
0.0775036
0.0776984
0.0777781
0.0777447
0.0776006
0.0773484
0.07699
0.076528
0.075966
0.075309
0.0745625
0.0737318
0.0728219
0.0718377
0.0707844
0.0696671
0.0684909
0.0672607
0.0659801
0.0646519
0.063287
0.0618951
0.0603576
0.0585715
0.0193209
0.0172766
0.0155502
0.0140216
0.0125509
0.0111434
0.00980915
0.00854866
0.00736338
0.00625579
0.00522809
0.00428297
0.00342381
0.00265349
0.00197485
0.00139066
0.000903741
0.000516175
0.000229962
4.66748e-05
-3.23874e-05
-6.2981e-06
0.000124887
0.000360976
0.00070241
0.00114954
0.00170165
0.00235748
0.00311618
0.0039769
0.00493787
0.00599636
0.00714928
0.00839371
0.00972669
0.0111446
0.0126434
0.014219
0.0158676
0.017585
0.0193668
0.0212072
0.0231006
0.0250418
0.0270257
0.0290473
0.031101
0.0331806
0.0352798
0.0373922
0.0395117
0.0416316
0.0437449
0.0458444
0.0479243
0.0499786
0.0520013
0.0539861
0.0559261
0.0578146
0.0596457
0.0614144
0.0631151
0.0647424
0.0662909
0.0677556
0.0691313
0.0704135
0.0715985
0.0726826
0.0736622
0.0745346
0.0752983
0.0759511
0.0764906
0.0769147
0.0772221
0.0774127
0.0774872
0.0774476
0.0772957
0.0770334
0.0766622
0.0761844
0.0756035
0.074924
0.0741506
0.0732876
0.0723394
0.0713104
0.0702054
0.0690292
0.0677863
0.0664806
0.0651147
0.0636905
0.0622193
0.0607114
0.0590364
0.0570809
0.0207241
0.0185079
0.0166405
0.0149923
0.0134108
0.0119028
0.0104787
0.00913795
0.00788119
0.00671066
0.00562821
0.00463554
0.00373516
0.00292942
0.00222082
0.00161137
0.00110339
0.000698095
0.000397039
0.000201663
0.000112578
0.00012977
0.000253079
0.000482654
0.000818624
0.00126053
0.00180732
0.00245803
0.00321205
0.00406817
0.00502404
0.00607675
0.00722349
0.00846153
0.00978767
0.0111979
0.0126883
0.0142552
0.0158948
0.0176032
0.0193753
0.0212054
0.0230882
0.0250189
0.0269924
0.0290035
0.0310464
0.0331151
0.0352037
0.0373061
0.0394159
0.0415261
0.0436297
0.0457202
0.0477918
0.0498387
0.0518545
0.0538327
0.0557665
0.0576497
0.0594767
0.0612423
0.0629406
0.0645658
0.0661129
0.0675771
0.0689532
0.0702364
0.0714226
0.0725076
0.073488
0.0743614
0.075126
0.0757793
0.0763184
0.0767408
0.0770454
0.0772319
0.0773013
0.0772547
0.0770936
0.0768192
0.0764327
0.0759364
0.0753337
0.0746284
0.0738243
0.072925
0.0719342
0.070856
0.0696952
0.068456
0.0671424
0.0657575
0.0643031
0.0627805
0.0612018
0.0595777
0.0577662
0.0556444
0.0220335
0.0196491
0.0176433
0.0158768
0.0141851
0.012576
0.0110607
0.00963823
0.00830832
0.00707255
0.0059326
0.00488969
0.00394533
0.00310175
0.00236072
0.00172387
0.00119228
0.000767343
0.000450167
0.000241278
0.000140655
0.000147992
0.000263356
0.000486737
0.000817458
0.00125449
0.00179702
0.00244443
0.0031958
0.00404927
0.00500219
0.00605187
0.00719573
0.00843085
0.00975356
0.0111598
0.0126459
0.0142086
0.0158442
0.017548
0.019315
0.0211398
0.0230176
0.0249435
0.0269123
0.0289184
0.030956
0.0330198
0.0351042
0.0372028
0.0393088
0.0414153
0.0435154
0.0456033
0.0476732
0.0497188
0.0517336
0.053711
0.0556448
0.057529
0.0593578
0.0611257
0.0628265
0.0644547
0.0660053
0.0674738
0.0688549
0.0701432
0.0713342
0.0724236
0.0734082
0.0742856
0.0750535
0.0757092
0.0762493
0.0766712
0.0769739
0.0771572
0.0772215
0.0771676
0.0769961
0.0767079
0.0763044
0.0757877
0.0751608
0.074427
0.073589
0.0726499
0.0716128
0.0704819
0.0692616
0.0679559
0.0665681
0.0651008
0.0635551
0.0619321
0.0602447
0.0585043
0.0565574
0.0542717
0.0232412
0.0206911
0.0185491
0.0166657
0.0148645
0.0131539
0.0115464
0.0100409
0.00863651
0.00733382
0.00613409
0.00503861
0.00404841
0.00316505
0.00238946
0.00172294
0.0011662
0.00072028
0.000385568
0.000161776
4.85576e-05
4.58492e-05
0.000153564
0.000370842
0.000696396
0.00112937
0.00166931
0.00231536
0.00306583
0.00391848
0.00487089
0.00592064
0.00706491
0.00830026
0.00962285
0.0110289
0.0125151
0.0140782
0.015714
0.0174177
0.0191843
0.0210091
0.0228873
0.0248138
0.0267831
0.0287896
0.030828
0.032893
0.0349792
0.0370799
0.0391881
0.0412969
0.0434001
0.0454919
0.0475663
0.0496168
0.0516366
0.0536195
0.0555597
0.057451
0.0592876
0.0610632
0.0627718
0.0644081
0.0659675
0.0674452
0.0688356
0.070133
0.0713325
0.0724301
0.0734223
0.0743067
0.0750806
0.0757407
0.0762835
0.0767065
0.0770086
0.0771895
0.0772492
0.0771876
0.077005
0.0767021
0.0762804
0.0757419
0.075089
0.0743243
0.0734497
0.0724678
0.0713816
0.070195
0.0689123
0.0675371
0.066072
0.0645192
0.0628797
0.0611545
0.0593574
0.0575005
0.0554191
0.0529713
0.0243387
0.0216267
0.0193497
0.0173498
0.0154397
0.0136279
0.0119278
0.0103381
0.00885765
0.00748666
0.0062258
0.00507601
0.00403829
0.00311326
0.00230157
0.00160375
0.00102069
0.000552552
0.000198843
-4.09087e-05
-0.000166953
-0.000179442
-7.93166e-05
0.000131827
0.000452844
0.000883303
0.00142251
0.0020688
0.00282
0.00367405
0.00462887
0.00568181
0.00682948
0.00806813
0.00939417
0.0108042
0.012295
0.0138627
0.0155028
0.0172107
0.0189819
0.020812
0.022696
0.0246284
0.0266034
0.0286158
0.0306608
0.0327333
0.0348272
0.0369357
0.0390519
0.0411694
0.0432822
0.0453844
0.0474696
0.0495309
0.0515618
0.0535568
0.0555098
0.0574146
0.0592646
0.0610534
0.0627753
0.0644252
0.0659987
0.0674905
0.0688946
0.0702051
0.0714171
0.0725266
0.0735301
0.0744247
0.0752072
0.0758739
0.0764213
0.0768472
0.0771503
0.07733
0.0773855
0.0773163
0.0771223
0.0768044
0.0763638
0.0758024
0.0751219
0.0743242
0.0734108
0.0723837
0.071246
0.0700014
0.0686539
0.0672064
0.0656613
0.0640205
0.062285
0.0604561
0.0585483
0.0565746
0.0543591
0.0517507
0.0253195
0.0224478
0.0200369
0.0179212
0.0159023
0.0139895
0.0121964
0.0105217
0.00896412
0.0075236
0.00620049
0.00499522
0.00390844
0.00294021
0.00209108
0.00136112
0.000750586
0.000258869
-0.000114786
-0.00037075
-0.000509383
-0.000531627
-0.000439213
-0.000233676
8.42839e-05
0.000514036
0.00105403
0.00170202
0.00245601
0.00331427
0.00427453
0.00533353
0.00648747
0.0077328
0.00906634
0.0104847
0.0119841
0.0135604
0.015209
0.016926
0.0187072
0.0205478
0.0224426
0.0243858
0.0263718
0.0283961
0.0304538
0.0325394
0.0346467
0.0367687
0.0388991
0.0410319
0.0431608
0.0452796
0.0473814
0.0494597
0.0515084
0.0535218
0.0554941
0.0574183
0.0592875
0.0610954
0.0628363
0.0645056
0.0660985
0.0676092
0.0690314
0.0703591
0.0715876
0.0727131
0.0737317
0.0746397
0.0754334
0.0761091
0.0766635
0.0770943
0.0774002
0.0775798
0.0776318
0.0775553
0.0773502
0.0770172
0.0765575
0.0759724
0.075263
0.0744305
0.0734763
0.0724023
0.0712113
0.0699068
0.0684922
0.0669702
0.0653427
0.0636116
0.0617783
0.0598442
0.0578249
0.055734
0.0533844
0.0506162
0.0261762
0.0231463
0.0206032
0.018372
0.0162443
0.0142304
0.012344
0.0105837
0.0089482
0.0074373
0.00605096
0.00478917
0.00365196
0.00263966
0.0017521
0.000989129
0.000349941
-0.000166273
-0.000560011
-0.00083191
-0.00098308
-0.00101526
-0.000930132
-0.000728785
-0.00041209
1.84184e-05
0.000560527
0.00121215
0.00197164
0.00283712
0.0038056
0.00487337
0.0060368
0.00729274
0.00863806
0.0100688
0.0115808
0.0131697
0.0148316
0.0165628
0.0183592
0.0202154
0.0221258
0.024085
0.0260879
0.02813
0.0302062
0.0323105
0.0344367
0.0365783
0.0387293
0.0408838
0.0430351
0.0451763
0.0473008
0.0494023
0.0514753
0.0535138
0.0555114
0.0574608
0.059355
0.0611879
0.0629541
0.0646485
0.066266
0.0678004
0.0692452
0.0705946
0.0718442
0.0729898
0.0740271
0.0749518
0.0757597
0.0764473
0.0770112
0.0774493
0.0777597
0.0779405
0.07799
0.077907
0.0776915
0.0773439
0.076865
0.0762556
0.0755161
0.0746475
0.0736511
0.0725287
0.071283
0.069917
0.0684336
0.066835
0.065123
0.0632999
0.0613673
0.0593268
0.0571949
0.054986
0.0525022
0.0495743
0.0269022
0.0237155
0.0210411
0.0186949
0.0164584
0.0143429
0.012363
0.0105166
0.0088025
0.00722043
0.00576989
0.00445057
0.00326225
0.00220519
0.00127849
0.000481358
-0.00018723
-0.000727926
-0.00114148
-0.00142927
-0.00159314
-0.00163485
-0.00155563
-0.00135672
-0.0010399
-0.000607428
-6.13973e-05
0.000596509
0.00136448
0.00223984
0.00321911
0.00429872
0.00547547
0.00674626
0.00810741
0.00955443
0.0110829
0.0126891
0.0143694
0.0161201
0.0179364
0.019813
0.0217443
0.0237252
0.0257509
0.0278166
0.0299168
0.0320453
0.0341963
0.0363637
0.0385418
0.0407242
0.0429037
0.0450733
0.0472266
0.049358
0.0514617
0.0535315
0.0555603
0.0575407
0.059466
0.0613302
0.0631277
0.064853
0.0665003
0.0680632
0.0695355
0.0709115
0.0721869
0.073357
0.0744168
0.0753616
0.0761871
0.0768895
0.077466
0.0779138
0.0782308
0.0784146
0.0784629
0.0783748
0.0781498
0.0777882
0.0772903
0.076656
0.0758858
0.0749802
0.0739405
0.0727687
0.0714671
0.0700382
0.0684844
0.0668075
0.0650094
0.0630928
0.0610595
0.0589115
0.0566661
0.0543383
0.0517196
0.0486316
0.0274922
0.0241489
0.0213433
0.0188825
0.0165373
0.0143196
0.0122455
0.0103129
0.00851968
0.00686548
0.00534986
0.00397238
0.00273272
0.00163003
0.000663376
-0.000168508
-0.000866399
-0.00143119
-0.00186452
-0.00216836
-0.00234457
-0.00239446
-0.00231943
-0.00212162
-0.00180358
-0.00136746
-0.000814935
-0.000147848
0.000631171
0.00151882
0.00251176
0.00360692
0.00480115
0.00609076
0.00747142
0.00893851
0.010488
0.0121165
0.0138204
0.0155954
0.0174366
0.0193385
0.0212962
0.0233048
0.0253593
0.0274541
0.0295837
0.0317423
0.0339243
0.0361241
0.0383355
0.0405517
0.0427652
0.0449693
0.047158
0.0493257
0.0514664
0.0535734
0.0556393
0.0576567
0.0596193
0.0615211
0.063356
0.0651177
0.0668
0.0683967
0.0699017
0.0713096
0.0726158
0.0738148
0.0749012
0.0758698
0.0767164
0.0774374
0.0780297
0.0784901
0.078816
0.0790046
0.0790537
0.078962
0.0787289
0.0783542
0.0778375
0.0771784
0.076377
0.0754338
0.0743503
0.0731283
0.0717698
0.0702767
0.0686511
0.0668945
0.0650091
0.0629978
0.0608627
0.0586061
0.0562459
0.0537981
0.0510433
0.0477941
0.0279407
0.0244403
0.0215029
0.0189272
0.016473
0.014153
0.0119842
0.00996456
0.00809156
0.00636466
0.00478357
0.00334752
0.00205578
0.000906883
-0.000100169
-0.000966555
-0.00169333
-0.00228219
-0.00273534
-0.00305476
-0.00324195
-0.00329836
-0.00322625
-0.00302853
-0.00270765
-0.00226537
-0.00170353
-0.00102479
-0.000232467
0.000670218
0.00168041
0.00279516
0.00401074
0.00532272
0.00672656
0.00821804
0.00979353
0.0114495
0.0131818
0.0149858
0.0168567
0.0187896
0.0207795
0.0228217
0.0249105
0.02704
0.0292048
0.0313996
0.0336192
0.0358577
0.0381084
0.0403642
0.0426178
0.0448629
0.0470936
0.049304
0.0514877
0.0536377
0.0557465
0.0578072
0.0598135
0.0617591
0.0636371
0.0654408
0.0671637
0.0687997
0.0703431
0.0717885
0.0731304
0.0743629
0.0754801
0.0764768
0.0773488
0.0780924
0.0787041
0.0791804
0.0795179
0.0797137
0.0797657
0.0796723
0.0794328
0.0790461
0.0785113
0.0778276
0.076995
0.0760141
0.0748865
0.0736137
0.0721973
0.070639
0.0689403
0.0671029
0.0651292
0.0630223
0.0607844
0.0584179
0.0559415
0.0533721
0.0504796
0.0470677
0.028241
0.0245826
0.0215127
0.0188213
0.0162578
0.0138352
0.011571
0.00946337
0.00751003
0.00571026
0.00406331
0.0025682
0.00122362
2.84954e-05
-0.00101861
-0.00191904
-0.00267458
-0.00328751
-0.00375989
-0.00409351
-0.00429001
-0.00435168
-0.00428149
-0.00408227
-0.00375609
-0.00330488
-0.00273133
-0.00203881
-0.00123056
-0.000309363
0.000722035
0.00186011
0.00310042
0.00443829
0.00586952
0.00739024
0.00899673
0.0106849
0.0124502
0.014288
0.016194
0.0181635
0.0201917
0.022273
0.0244016
0.0265715
0.0287777
0.0310153
0.0332789
0.0355622
0.0378581
0.0401595
0.0424596
0.0447524
0.0470317
0.0492911
0.0515237
0.0537225
0.0558805
0.0579909
0.0600472
0.0620424
0.0639692
0.0658205
0.0675898
0.0692712
0.070859
0.0723472
0.0737299
0.0750008
0.0761535
0.0771831
0.0780852
0.0788559
0.079491
0.0799865
0.0803387
0.0805447
0.0806022
0.0805096
0.0802654
0.0798682
0.0793164
0.0786089
0.0777455
0.0767272
0.0755554
0.0742315
0.0727566
0.071132
0.0693593
0.0674401
0.0653773
0.0631739
0.0608323
0.0583545
0.0557603
0.0530674
0.0500351
0.0464582
0.0283861
0.0245691
0.021366
0.018558
0.0158842
0.0133582
0.0109979
0.00880179
0.00676769
0.00489465
0.00318132
0.00162664
0.000229301
-0.00101174
-0.00209838
-0.00303265
-0.00381683
-0.00445308
-0.00494329
-0.00528947
-0.00549403
-0.00555993
-0.00549009
-0.00528696
-0.00495276
-0.00449028
-0.00390297
-0.00319414
-0.0023666
-0.00142302
-0.000366786
0.000797847
0.00206622
0.00343401
0.00489735
0.00645221
0.00809433
0.00981912
0.0116219
0.0134988
0.0154455
0.0174576
0.0195295
0.0216553
0.0238291
0.0260456
0.0282998
0.0305866
0.0329003
0.0352343
0.0375815
0.0399351
0.0422886
0.0446358
0.0469701
0.0492845
0.0515721
0.053826
0.0560396
0.0582061
0.0603185
0.0623692
0.0643505
0.0662553
0.0680772
0.0698103
0.0714484
0.072985
0.0744137
0.075728
0.0769216
0.0779893
0.0789268
0.0797293
0.0803921
0.0809106
0.0812811
0.0815006
0.0815667
0.0814776
0.0812311
0.0808252
0.0802577
0.0795275
0.0786343
0.0775793
0.0763637
0.0749885
0.0734546
0.0717631
0.0699155
0.067914
0.0657612
0.0634605
0.061014
0.0584232
0.0557092
0.0528906
0.049716
0.0459712
0.0283697
0.024393
0.0210557
0.0181301
0.0153446
0.0127143
0.0102575
0.00797253
0.00585708
0.00391002
0.00213005
0.000515823
-0.000933715
-0.00222038
-0.00334638
-0.00431422
-0.00512618
-0.00578426
-0.0062907
-0.00664818
-0.00685972
-0.00692825
-0.00685636
-0.00664663
-0.00630212
-0.00582637
-0.00522284
-0.00449439
-0.00364374
-0.00267423
-0.00159001
-0.000395596
0.000904721
0.002307
0.00380721
0.00540072
0.00708271
0.00884854
0.010694
0.0126153
0.0146085
0.0166684
0.0187893
0.0209651
0.0231902
0.0254596
0.0277683
0.0301105
0.0324803
0.034871
0.037276
0.0396887
0.0421024
0.0445106
0.0469062
0.049282
0.051631
0.0539467
0.0562226
0.0584515
0.060626
0.0627381
0.0647798
0.0667444
0.0686254
0.0704165
0.0721107
0.0737013
0.0751815
0.0765446
0.0777848
0.0788965
0.0798747
0.080714
0.081409
0.0819549
0.0823477
0.0825845
0.0826628
0.0825802
0.0823339
0.0819213
0.08134
0.0805886
0.0796672
0.0785765
0.0773177
0.0758913
0.0742981
0.0725391
0.0706162
0.0685317
0.0662883
0.0638892
0.061336
0.0586305
0.0557944
0.0528477
0.049528
0.0456119
0.0281854
0.0240468
0.020574
0.0175297
0.0146315
0.0118958
0.00934196
0.00696752
0.00477007
0.00274858
0.000902003
-0.000771285
-0.00227275
-0.00360479
-0.00476981
-0.00577032