/*--------------------------------*- C++ -*----------------------------------*\
  =========                 |
  \\      /  F ield         | OpenFOAM: The Open Source CFD Toolbox
   \\    /   O peration     | Website:  https://openfoam.org
    \\  /    A nd           | Version:  11
     \\/     M anipulation  |
\*---------------------------------------------------------------------------*/
FoamFile
{
    format      ascii;
    class       surfaceScalarField;
    location    "4.7";
    object      phi;
}
// * * * * * * * * * * * * * * * * * * * * * * * * * * * * * * * * * * * * * //

dimensions      [0 3 -1 0 0 0 0];

internalField   nonuniform List<scalar> 
19980
(
6.5817e-07
-6.58321e-07
1.77844e-06
-1.12037e-06
2.57404e-06
-7.95538e-07
2.95521e-06
-3.81181e-07
2.81734e-06
1.37826e-07
2.0214e-06
7.9594e-07
4.67817e-07
1.55377e-06
-1.90295e-06
2.37067e-06
-5.11383e-06
3.21098e-06
-9.16278e-06
4.04891e-06
-1.40293e-05
4.86655e-06
-1.96779e-05
5.6486e-06
-2.60645e-05
6.38657e-06
-3.31388e-05
7.07437e-06
-4.08448e-05
7.70609e-06
-4.91266e-05
8.28166e-06
-5.79227e-05
8.79616e-06
-6.71747e-05
9.25183e-06
-7.68202e-05
9.64548e-06
-8.67999e-05
9.97978e-06
-9.7054e-05
1.0254e-05
-0.000107525
1.04711e-05
-0.000118156
1.06307e-05
-0.000128892
1.07358e-05
-0.000139679
1.07876e-05
-0.000150467
1.07879e-05
-0.000161207
1.07396e-05
-0.000171852
1.06452e-05
-0.000182357
1.05051e-05
-0.000192678
1.0321e-05
-0.000202773
1.0095e-05
-0.000212602
9.82899e-06
-0.000222126
9.52454e-06
-0.00023131
9.18361e-06
-0.000240118
8.80855e-06
-0.000248519
8.40104e-06
-0.000256482
7.96264e-06
-0.000263977
7.4953e-06
-0.000270979
7.00156e-06
-0.000277462
6.48378e-06
-0.000283406
5.94357e-06
-0.000288789
5.38274e-06
-0.000293592
4.80353e-06
-0.0002978
4.2081e-06
-0.000301398
3.59811e-06
-0.000304373
2.97495e-06
-0.000306714
2.34055e-06
-0.000308411
1.697e-06
-0.000309457
1.04627e-06
-0.000309847
3.90138e-07
-0.000309577
-2.69868e-07
-0.000308646
-9.31565e-07
-0.000307054
-1.5922e-06
-0.000304804
-2.24976e-06
-0.000301902
-2.90238e-06
-0.000298354
-3.54726e-06
-0.000294172
-4.18182e-06
-0.000289368
-4.80408e-06
-0.000283957
-5.41146e-06
-0.000277956
-6.00104e-06
-0.000271385
-6.57052e-06
-0.000264268
-7.11747e-06
-0.000256629
-7.63892e-06
-0.000248496
-8.13274e-06
-0.000239898
-8.59771e-06
-0.000230867
-9.03167e-06
-0.000221435
-9.43135e-06
-0.000211641
-9.79426e-06
-0.000201522
-1.01188e-05
-0.000191119
-1.0403e-05
-0.000180475
-1.06443e-05
-0.000169634
-1.08405e-05
-0.000158645
-1.09894e-05
-0.000147557
-1.10882e-05
-0.000136423
-1.1134e-05
-0.000125298
-1.11251e-05
-0.000114238
-1.106e-05
-0.0001033
-1.09374e-05
-9.25449e-05
-1.07554e-05
-8.20321e-05
-1.05129e-05
-7.18233e-05
-1.02088e-05
-6.1981e-05
-9.84222e-06
-5.25689e-05
-9.4121e-06
-4.3651e-05
-8.91793e-06
-3.52908e-05
-8.36025e-06
-2.75502e-05
-7.74054e-06
-2.04893e-05
-7.06089e-06
-1.41654e-05
-6.32395e-06
-8.63223e-06
-5.53315e-06
-3.93914e-06
-4.69308e-06
-1.29044e-07
-3.81011e-06
2.76446e-06
-2.89354e-06
4.72181e-06
-1.95735e-06
5.74483e-06
-1.02299e-06
5.86813e-06
-1.23279e-07
5.17736e-06
6.90771e-07
3.83863e-06
1.33872e-06
2.14879e-06
1.68982e-06
6.22486e-07
1.5262e-06
6.2237e-07
1.95872e-06
-2.61703e-06
4.58377e-06
-3.74541e-06
6.28328e-06
-2.49506e-06
6.59935e-06
-6.9719e-07
5.21386e-06
1.52325e-06
1.87038e-06
4.13947e-06
-3.62133e-06
7.04541e-06
-1.13694e-05
1.01189e-05
-2.1416e-05
1.32575e-05
-3.37455e-05
1.63786e-05
-4.82986e-05
1.94197e-05
-6.49862e-05
2.2336e-05
-8.36906e-05
2.50911e-05
-0.000104279
2.76629e-05
-0.000126605
3.00323e-05
-0.000150514
3.21901e-05
-0.000175845
3.41277e-05
-0.000202435
3.5842e-05
-0.000230119
3.73294e-05
-0.000258733
3.85934e-05
-0.000288114
3.96348e-05
-0.0003181
4.04573e-05
-0.000348535
4.10658e-05
-0.000379266
4.14663e-05
-0.000410142
4.16642e-05
-0.000441021
4.16664e-05
-0.000471762
4.14808e-05
-0.000502231
4.1114e-05
-0.000532298
4.05721e-05
-0.00056184
3.98619e-05
-0.000590735
3.89906e-05
-0.000618871
3.79647e-05
-0.000646138
3.67912e-05
-0.000672432
3.54778e-05
-0.000697655
3.4032e-05
-0.000721715
3.24608e-05
-0.000744523
3.07712e-05
-0.000765999
2.8971e-05
-0.000786065
2.70682e-05
-0.000804653
2.50708e-05
-0.000821695
2.29862e-05
-0.000837134
2.08218e-05
-0.000850916
1.85854e-05
-0.000862993
1.62847e-05
-0.000873321
1.39266e-05
-0.000881865
1.15182e-05
-0.000888591
9.06711e-06
-0.000893475
6.58111e-06
-0.000896497
4.06743e-06
-0.00089764
1.53364e-06
-0.000896898
-1.01232e-06
-0.000894267
-3.56255e-06
-0.00088975
-6.10853e-06
-0.000883359
-8.64144e-06
-0.000875108
-1.11528e-05
-0.000865022
-1.36339e-05
-0.000853128
-1.60751e-05
-0.000839465
-1.84673e-05
-0.000824075
-2.08014e-05
-0.000807008
-2.3068e-05
-0.000788321
-2.52571e-05
-0.00076808
-2.73593e-05
-0.000746353
-2.93655e-05
-0.000723218
-3.12672e-05
-0.000698761
-3.30556e-05
-0.00067307
-3.47219e-05
-0.000646245
-3.62568e-05
-0.000618388
-3.7651e-05
-0.000589611
-3.88959e-05
-0.00056003
-3.99835e-05
-0.000529769
-4.09055e-05
-0.000498957
-4.1653e-05
-0.000467729
-4.22173e-05
-0.000436227
-4.25895e-05
-0.0004046
-4.27617e-05
-0.000372998
-4.27268e-05
-0.00034158
-4.24784e-05
-0.000310506
-4.20112e-05
-0.000279941
-4.13201e-05
-0.000250053
-4.04008e-05
-0.000221013
-3.92497e-05
-0.000192991
-3.78641e-05
-0.00016616
-3.62424e-05
-0.000140693
-3.43853e-05
-0.000116758
-3.22957e-05
-9.4519e-05
-2.9979e-05
-7.41361e-05
-2.74439e-05
-5.5758e-05
-2.47021e-05
-3.95216e-05
-2.17696e-05
-2.5547e-05
-1.86677e-05
-1.39313e-05
-1.54258e-05
-4.74006e-06
-1.20848e-05
2.00513e-06
-8.70256e-06
6.34368e-06
-5.36157e-06
8.40042e-06
-2.18004e-06
8.41993e-06
6.71289e-07
6.8132e-06
2.94558e-06
4.21407e-06
4.28913e-06
1.52816e-06
4.21232e-06
2.15044e-06
2.5077e-06
-5.12467e-06
5.67826e-06
-6.91602e-06
7.35232e-06
-4.16917e-06
6.69503e-06
-3.98106e-08
3.20543e-06
5.01287e-06
-3.46998e-06
1.08146e-05
-1.35572e-05
1.71328e-05
-2.7183e-05
2.37445e-05
-4.43845e-05
3.04588e-05
-6.51258e-05
3.71198e-05
-8.93131e-05
4.36071e-05
-0.000116804
4.98274e-05
-0.000147424
5.57105e-05
-0.000180968
6.12068e-05
-0.000217215
6.62798e-05
-0.000255927
7.09021e-05
-0.000296859
7.50597e-05
-0.000339757
7.87395e-05
-0.000384369
8.19412e-05
-0.000430436
8.46607e-05
-0.000477707
8.69054e-05
-0.000525929
8.86796e-05
-0.000574856
8.9993e-05
-0.000624246
9.08563e-05
-0.000673863
9.12811e-05
-0.000723477
9.1281e-05
-0.000772867
9.08706e-05
-0.000821817
9.00638e-05
-0.000870119
8.88747e-05
-0.000917576
8.73182e-05
-0.000963994
8.54092e-05
-0.00100919
8.31626e-05
-0.00105299
8.05942e-05
-0.00109524
7.77199e-05
-0.00113576
7.45557e-05
-0.00117442
7.11172e-05
-0.00121107
6.74204e-05
-0.00124558
6.34819e-05
-0.00127783
5.93184e-05
-0.0013077
5.49464e-05
-0.0013351
5.03824e-05
-0.00135992
4.56431e-05
-0.00138208
4.0745e-05
-0.0014015
3.57045e-05
-0.00141811
3.05378e-05
-0.00143185
2.52612e-05
-0.00144268
1.98915e-05
-0.00145054
1.44456e-05
-0.00145542
8.94026e-06
-0.00145727
3.39249e-06
-0.00145611
-2.18031e-06
-0.00145191
-7.75997e-06
-0.00144469
-1.33282e-05
-0.00143446
-1.88665e-05
-0.00142126
-2.43561e-05
-0.00140512
-2.97772e-05
-0.00138608
-3.51103e-05
-0.00136421
-4.03359e-05
-0.00133958
-4.54336e-05
-0.00131227
-5.0383e-05
-0.00128236
-5.51639e-05
-0.00124996
-5.97558e-05
-0.00121519
-6.41386e-05
-0.00117816
-6.82926e-05
-0.00113902
-7.21987e-05
-0.00109791
-7.5837e-05
-0.00105498
-7.91872e-05
-0.0010104
-8.22298e-05
-0.000964347
-8.49459e-05
-0.000917014
-8.7317e-05
-0.000868594
-8.93247e-05
-0.000819297
-9.09508e-05
-0.000769337
-9.21772e-05
-0.000718939
-9.29867e-05
-0.000668338
-9.33629e-05
-0.000617774
-9.32911e-05
-0.000567494
-9.27583e-05
-0.000517753
-9.17528e-05
-0.000468808
-9.02646e-05
-0.000420923
-8.82854e-05
-0.000374364
-8.58089e-05
-0.000329397
-8.28313e-05
-0.000286288
-7.93517e-05
-0.0002453
-7.53732e-05
-0.000206692
-7.09039e-05
-0.000170713
-6.59575e-05
-0.000137603
-6.0554e-05
-0.000107584
-5.47214e-05
-8.08557e-05
-4.84975e-05
-5.75903e-05
-4.19331e-05
-3.79195e-05
-3.50966e-05
-2.19235e-05
-2.80807e-05
-9.6147e-06
-2.10114e-05
-9.15049e-07
-1.40612e-05
4.37179e-06
-7.4669e-06
6.59712e-06
-1.55412e-06
6.31181e-06
3.23076e-06
4.31434e-06
6.28652e-06
1.69858e-06
6.8282e-06
3.84898e-06
2.13158e-06
-7.25625e-06
4.51685e-06
-9.30125e-06
4.85275e-06
-4.505e-06
2.04459e-06
2.76829e-06
-4.5674e-06
1.16249e-05
-1.54132e-05
2.16607e-05
-3.07599e-05
3.24792e-05
-5.07457e-05
4.37306e-05
-7.54032e-05
5.51162e-05
-0.000104677
6.63939e-05
-0.000138444
7.73738e-05
-0.000176522
8.79057e-05
-0.000218689
9.78766e-05
-0.00026468
0.000107199
-0.000314212
0.000115812
-0.000366979
0.000123669
-0.000422661
0.000130742
-0.000480932
0.00013701
-0.000541456
0.000142465
-0.0006039
0.000147105
-0.000667929
0.000150935
-0.000733212
0.000153962
-0.000799421
0.000156202
-0.000866236
0.000157671
-0.000933342
0.000158387
-0.00100043
0.000158372
-0.00106721
0.000157648
-0.00113339
0.000156239
-0.00119868
0.00015417
-0.00126283
0.000151466
-0.00132557
0.000148152
-0.00138666
0.000144254
-0.00144587
0.000139799
-0.00150296
0.000134814
-0.00155773
0.000129327
-0.00160998
0.000123365
-0.00165951
0.000116955
-0.00170616
0.000110127
-0.00174975
0.000102908
-0.00179013
9.53269e-05
-0.00182716
8.7412e-05
-0.00186071
7.9192e-05
-0.00189066
7.06957e-05
-0.00191691
6.19517e-05
-0.00193936
5.29883e-05
-0.00195793
4.38347e-05
-0.00197256
3.45202e-05
-0.00198319
2.50742e-05
-0.00198977
1.5526e-05
-0.00199229
5.90602e-06
-0.00199071
-3.75506e-06
-0.00198505
-1.34261e-05
-0.0019753
-2.30753e-05
-0.00196149
-3.26705e-05
-0.00194367
-4.21791e-05
-0.00192188
-5.15677e-05
-0.00189619
-6.08023e-05
-0.00186668
-6.9849e-05
-0.00183344
-7.86735e-05
-0.00179658
-8.72412e-05
-0.00175622
-9.55165e-05
-0.00171252
-0.000103465
-0.0016656
-0.000111052
-0.00161565
-0.000118242
-0.00156285
-0.000125003
-0.00150739
-0.000131298
-0.00144948
-0.000137096
-0.00138935
-0.00014236
-0.00132724
-0.000147059
-0.00126339
-0.000151161
-0.00119808
-0.000154634
-0.00113159
-0.000157447
-0.00106419
-0.000159571
-0.000996203
-0.000160976
-0.000927928
-0.000161637
-0.000859689
-0.00016153
-0.000791816
-0.000160632
-0.000724644
-0.000158925
-0.000658517
-0.000156392
-0.000593782
-0.000153021
-0.000530788
-0.000148803
-0.000469884
-0.000143735
-0.000411419
-0.000137817
-0.000355734
-0.000131058
-0.000303163
-0.000123475
-0.000254028
-0.000115092
-0.000208633
-0.000105949
-0.000167259
-9.60955e-05
-0.000130155
-8.56011e-05
-9.75315e-05
-7.45571e-05
-6.95442e-05
-6.3084e-05
-4.62834e-05
-5.13414e-05
-2.77539e-05
-3.95409e-05
-1.38522e-05
-2.79629e-05
-4.3393e-06
-1.69797e-05
1.19241e-06
-7.08573e-06
3.35857e-06
1.06461e-06
3.0254e-06
6.61964e-06
1.3638e-06
8.48981e-06
5.21279e-06
1.294e-06
-8.55029e-06
1.99184e-06
-9.99912e-06
-4.65125e-08
-2.46669e-06
-6.00317e-06
8.72508e-06
-1.66268e-05
2.22485e-05
-3.24003e-05
3.74341e-05
-5.36157e-05
5.3695e-05
-8.04167e-05
7.05316e-05
-0.000112831
8.75301e-05
-0.000150787
0.00010435
-0.000194137
0.000120723
-0.000242665
0.000136434
-0.000296103
0.000151316
-0.000354148
0.000165243
-0.000416456
0.00017812
-0.000482665
0.000189879
-0.000552393
0.00020047
-0.000625248
0.000209865
-0.000700827
0.000218044
-0.000778727
0.000225005
-0.000858542
0.000230749
-0.000939869
0.000235289
-0.00102231
0.000238643
-0.00110547
0.000240832
-0.00118897
0.000241884
-0.00127242
0.000241828
-0.00135547
0.000240698
-0.00143776
0.000238528
-0.00151895
0.000235354
-0.0015987
0.000231215
-0.00167669
0.000226147
-0.00175263
0.000220191
-0.00182622
0.000213387
-0.00189718
0.000205776
-0.00196525
0.000197399
-0.00203019
0.000188298
-0.00209175
0.000178515
-0.00214971
0.000168094
-0.00220388
0.000157076
-0.00225406
0.000145505
-0.00230007
0.000133424
-0.00234175
0.000120877
-0.00237897
0.000107908
-0.00241157
9.45598e-05
-0.00243946
8.08774e-05
-0.00246253
6.69051e-05
-0.0024807
5.26878e-05
-0.0024939
3.82705e-05
-0.00250207
2.36991e-05
-0.00250518
9.01974e-06
-0.00250322
-5.72032e-06
-0.00249617
-2.04732e-05
-0.00248406
-3.51908e-05
-0.0024669
-4.9824e-05
-0.00244476
-6.43227e-05
-0.00241769
-7.86363e-05
-0.00238578
-9.27138e-05
-0.00234913
-0.000106503
-0.00230785
-0.000119953
-0.00226208
-0.00013301
-0.00221197
-0.000145621
-0.0021577
-0.000157734
-0.00209946
-0.000169296
-0.00203745
-0.000180253
-0.0019719
-0.000190555
-0.00190304
-0.000200149
-0.00183116
-0.000208983
-0.00175651
-0.000217006
-0.0016794
-0.000224169
-0.00160014
-0.000230422
-0.00151906
-0.000235719
-0.00143649
-0.000240014
-0.0013528
-0.000243263
-0.00126835
-0.000245423
-0.00118353
-0.000246457
-0.00109873
-0.00024633
-0.00101435
-0.000245008
-0.000930811
-0.000242467
-0.000848521
-0.000238682
-0.000767904
-0.000233637
-0.000689385
-0.000227323
-0.000613385
-0.000219735
-0.000540322
-0.000210879
-0.000470609
-0.000200772
-0.000404643
-0.000189441
-0.000342807
-0.000176929
-0.000285459
-0.000163297
-0.000232928
-0.000148626
-0.000185504
-0.000133025
-0.000143428
-0.000116633
-0.000106877
-9.96345e-05
-7.5953e-05
-8.22656e-05
-5.06602e-05
-6.48338e-05
-3.08868e-05
-4.77363e-05
-1.63791e-05
-3.14873e-05
-6.7132e-06
-1.67515e-05
-1.26242e-06
-4.3861e-06
8.38794e-07
4.51842e-06
7.43047e-07
8.58554e-06
5.95587e-06
2.90445e-07
-8.84078e-06
-1.21401e-06
-8.49455e-06
-6.31528e-06
2.63429e-06
-1.6155e-05
1.85651e-05
-3.14867e-05
3.75801e-05
-5.28039e-05
5.8751e-05
-8.04015e-05
8.12926e-05
-0.000114421
0.000104551
-0.000154876
0.000127985
-0.000201678
0.000151152
-0.00025465
0.000173696
-0.00031355
0.000195334
-0.000378074
0.00021584
-0.000447873
0.000235042
-0.000522562
0.000252809
-0.000601726
0.000269042
-0.00068493
0.000283674
-0.000771723
0.000296657
-0.000861644
0.000307966
-0.000954228
0.000317589
-0.00104901
0.000325528
-0.00114551
0.000331796
-0.00124328
0.000336414
-0.00134186
0.000339412
-0.0014408
0.000340824
-0.00153967
0.000340689
-0.00163802
0.000339052
-0.00173545
0.00033596
-0.00183156
0.000331462
-0.00192595
0.000325609
-0.00201826
0.000318454
-0.00210812
0.000310053
-0.0021952
0.000300461
-0.00227915
0.000289736
-0.00235969
0.000277934
-0.00243651
0.000265115
-0.00250933
0.000251337
-0.00257789
0.00023666
-0.00264196
0.000221145
-0.00270131
0.000204851
-0.00275572
0.00018784
-0.00280502
0.000170172
-0.00284902
0.00015191
-0.00288758
0.000133115
-0.00292055
0.00011385
-0.00294782
9.41771e-05
-0.00296929
7.41603e-05
-0.00298489
5.38633e-05
-0.00299454
3.33508e-05
-0.00299821
1.26886e-05
-0.00299587
-8.05702e-06
-0.00298753
-2.88187e-05
-0.00297319
-4.95283e-05
-0.00295289
-7.01168e-05
-0.0029267
-9.05141e-05
-0.00289469
-0.000110649
-0.00285695
-0.00013045
-0.00281361
-0.000149844
-0.00276481
-0.000168759
-0.0027107
-0.000187121
-0.00265146
-0.000204856
-0.00258731
-0.000221889
-0.00251845
-0.000238148
-0.00244515
-0.000253558
-0.00236766
-0.000268046
-0.00228627
-0.000281539
-0.00220129
-0.000293965
-0.00211304
-0.000305253
-0.00202187
-0.000315334
-0.00192816
-0.00032414
-0.00183227
-0.000331605
-0.00173462
-0.000337667
-0.00163562
-0.000342265
-0.0015357
-0.000345342
-0.00143531
-0.000346847
-0.00133491
-0.000346731
-0.00123496
-0.000344953
-0.00113595
-0.000341476
-0.00103836
-0.000336272
-0.000942681
-0.000329319
-0.000849396
-0.000320608
-0.000758995
-0.000310136
-0.00067196
-0.000297915
-0.000588759
-0.000283972
-0.00050985
-0.00026835
-0.000435665
-0.000251114
-0.000366611
-0.000232351
-0.000303059
-0.000212179
-0.000245333
-0.00019075
-0.000193704
-0.000168263
-0.000148371
-0.000144967
-0.000109451
-0.000121186
-7.69601e-05
-9.7325e-05
-5.07942e-05
-7.39022e-05
-3.07096e-05
-5.15719e-05
-1.62989e-05
-3.11623e-05
-6.96573e-06
-1.37192e-05
-1.8981e-06
-5.49198e-07
-3.42291e-08
6.72168e-06
5.92165e-06
-7.63213e-07
-8.07745e-06
-4.72751e-06
-4.53028e-06
-1.33183e-05
1.12251e-05
-2.754e-05
3.27865e-05
-4.80865e-05
5.8127e-05
-7.54211e-05
8.60857e-05
-0.000109814
0.000115686
-0.000151385
0.000146122
-0.000200128
0.000176727
-0.000255927
0.000206951
-0.000318583
0.000236352
-0.000387818
0.000264569
-0.000463296
0.000291318
-0.00054463
0.000316376
-0.000631393
0.000339572
-0.000723125
0.000360774
-0.000819344
0.000379892
-0.000919547
0.00039686
-0.00102322
0.000411641
-0.00112985
0.000424214
-0.0012389
0.00043458
-0.00134985
0.000442751
-0.00146219
0.000448752
-0.0015754
0.000452618
-0.00168897
0.000454393
-0.0018024
0.000454125
-0.00191522
0.000451872
-0.00202695
0.000447692
-0.00213714
0.000441649
-0.00224535
0.000433811
-0.00235114
0.000424248
-0.00245412
0.00041303
-0.00255388
0.000400231
-0.00265007
0.000385926
-0.00274233
0.000370192
-0.00283032
0.000353105
-0.00291373
0.000334744
-0.00299226
0.000315188
-0.00306563
0.000294516
-0.00313359
0.000272809
-0.0031959
0.000250148
-0.00325234
0.000226613
-0.00330271
0.000202287
-0.00334685
0.000177253
-0.00338459
0.000151593
-0.00341581
0.000125392
-0.00344038
9.87333e-05
-0.00345822
7.17036e-05
-0.00346926
4.43888e-05
-0.00347345
1.68768e-05
-0.00347076
-1.07439e-05
-0.0034612
-3.83839e-05
-0.00344477
-6.59526e-05
-0.00342153
-9.33575e-05
-0.00339154
-0.000120506
-0.00335489
-0.000147303
-0.00331168
-0.000173654
-0.00326206
-0.000199463
-0.00320619
-0.000224633
-0.00314425
-0.000249066
-0.00307644
-0.000272665
-0.003003
-0.000295331
-0.00292418
-0.000316967
-0.00284026
-0.000337475
-0.00275155
-0.000356757
-0.00265837
-0.000374718
-0.00256107
-0.000391263
-0.00246003
-0.000406297
-0.00235563
-0.000419731
-0.00224829
-0.000431474
-0.00213846
-0.000441441
-0.00202658
-0.000449549
-0.00191312
-0.000455721
-0.00179858
-0.000459883
-0.00168346
-0.000461968
-0.00156827
-0.000461915
-0.00145356
-0.000459669
-0.00133985
-0.000455187
-0.00122768
-0.000448433
-0.00111762
-0.000439383
-0.0010102
-0.000428026
-0.000905973
-0.000414364
-0.000805471
-0.000398417
-0.000709219
-0.000380224
-0.000617723
-0.000359847
-0.000531462
-0.000337374
-0.000450887
-0.000312926
-0.000376405
-0.00028666
-0.000308377
-0.000258779
-0.0002471
-0.00022954
-0.0001928
-0.000199267
-0.000145617
-0.000168369
-0.000105589
-0.000137353
-7.26372e-05
-0.000106854
-4.65483e-05
-7.76608e-05
-2.69577e-05
-5.0753e-05
-1.33318e-05
-2.73451e-05
-4.95061e-06
-8.93034e-06
-8.9083e-07
2.66193e-06
5.03081e-06
-1.81166e-06
-6.26594e-06
-8.34921e-06
2.00744e-06
-2.06665e-05
2.35422e-05
-3.95839e-05
5.17042e-05
-6.56929e-05
8.42358e-05
-9.93842e-05
0.000119777
-0.000140883
0.000157185
-0.000190269
0.000195508
-0.000247499
0.000233958
-0.000312431
0.000271883
-0.000384828
0.000308749
-0.000464384
0.000344124
-0.000550726
0.00037766
-0.00064343
0.00040908
-0.000742029
0.000438171
-0.000846024
0.000464769
-0.000954887
0.000488755
-0.00106807
0.000510044
-0.00118501
0.000528584
-0.00130515
0.000544347
-0.0014279
0.000557328
-0.00155268
0.000567539
-0.00167894
0.000575009
-0.0018061
0.000579778
-0.0019336
0.000581896
-0.0020609
0.000581426
-0.00218747
0.000578434
-0.00231277
0.000572995
-0.00243631
0.000565189
-0.0025576
0.000555097
-0.00267616
0.000542809
-0.00279154
0.000528414
-0.00290332
0.000512005
-0.00301107
0.000493676
-0.0031144
0.000473524
-0.00321294
0.000451647
-0.00330634
0.000428144
-0.00339427
0.000403116
-0.00347642
0.000376664
-0.0035525
0.00034889
-0.00362225
0.000319898
-0.00368543
0.000289791
-0.00374181
0.000258674
-0.00379121
0.000226652
-0.00383345
0.000193832
-0.00386838
0.000160322
-0.00389588
0.000126229
-0.00391584
9.16632e-05
-0.00392818
5.67354e-05
-0.00393287
2.15574e-05
-0.00392985
-1.37576e-05
-0.00391914
-4.90949e-05
-0.00390075
-8.43384e-05
-0.00387474
-0.000119371
-0.00384117
-0.000154073
-0.00380015
-0.000188325
-0.0037518
-0.000222006
-0.00369627
-0.000254992
-0.00363374
-0.000287162
-0.00356442
-0.00031839
-0.00348853
-0.000348553
-0.00340633
-0.000377525
-0.00331812
-0.000405182
-0.00322419
-0.000431401
-0.00312489
-0.000456057
-0.00302058
-0.000479028
-0.00291165
-0.000500194
-0.00279851
-0.000519438
-0.0026816
-0.000536642
-0.00256138
-0.000551696
-0.00243833
-0.000564491
-0.00231295
-0.000574924
-0.00218578
-0.000582897
-0.00205734
-0.000588319
-0.00192821
-0.000591106
-0.00179894
-0.000591183
-0.00167012
-0.000588485
-0.00154235
-0.000582957
-0.00141623
-0.000574559
-0.00129235
-0.000563263
-0.00117131
-0.000549058
-0.00105372
-0.000531953
-0.000940166
-0.000511975
-0.00083121
-0.00048918
-0.000727407
-0.00046365
-0.000629281
-0.0004355
-0.000537321
-0.000404886
-0.000451973
-0.000372009
-0.00037363
-0.000337122
-0.000302623
-0.000300547
-0.000239209
-0.000262682
-0.000183556
-0.000224021
-0.000135738
-0.000185171
-9.57146e-05
-0.000146878
-6.33201e-05
-0.000110055
-3.82542e-05
-7.58188e-05
-2.00694e-05
-4.55299e-05
-8.16436e-06
-2.08354e-05
-1.78024e-06
-3.72218e-06
3.25058e-06
-2.8331e-06
-3.43277e-06
-1.19695e-05
1.11438e-05
-2.81244e-05
3.9697e-05
-5.19162e-05
7.54959e-05
-8.38029e-05
0.000116123
-0.000124081
0.000160055
-0.000172903
0.000206007
-0.000230295
0.0002529
-0.000296169
0.000299831
-0.000370337
0.000346052
-0.00045253
0.000390942
-0.000542401
0.000433995
-0.000639541
0.0004748
-0.00074349
0.00051303
-0.000853742
0.000548424
-0.000969759
0.000580786
-0.00109097
0.000609965
-0.00121679
0.00063586
-0.0013466
0.0006584
-0.0014798
0.000677548
-0.00161577
0.000693294
-0.00175388
0.000705648
-0.00189351
0.000714642
-0.00203405
0.00072032
-0.0021749
0.000722744
-0.00231546
0.000721985
-0.00245515
0.000718123
-0.0025934
0.000711246
-0.00272966
0.000701451
-0.0028634
0.00068884
-0.00299411
0.000673518
-0.00312129
0.000655594
-0.00324447
0.000635183
-0.00336319
0.000612401
-0.00347704
0.000587365
-0.00358559
0.000560197
-0.00368846
0.000531019
-0.0037853
0.000499954
-0.00387576
0.000467128
-0.00395954
0.000432666
-0.00403634
0.000396697
-0.00410589
0.000359349
-0.00416797
0.000320751
-0.00422235
0.000281034
-0.00426885
0.00024033
-0.0043073
0.000198772
-0.00433757
0.000156495
-0.00435954
0.000113634
-0.00437313
7.0326e-05
-0.00437828
2.67107e-05
-0.00437497
-1.70721e-05
-0.00436318
-6.08806e-05
-0.00434295
-0.000104571
-0.00431432
-0.000147997
-0.00427738
-0.000191013
-0.00423224
-0.00023347
-0.00417903
-0.000275217
-0.00411791
-0.000316105
-0.00404909
-0.000355981
-0.00397279
-0.000394691
-0.00388927
-0.000432082
-0.00379879
-0.000468
-0.00370168
-0.000502293
-0.00359827
-0.000534807
-0.00348894
-0.000565389
-0.00337408
-0.000593891
-0.00325411
-0.000620164
-0.00312948
-0.000644062
-0.00300068
-0.000665446
-0.0028682
-0.000684176
-0.00273257
-0.000700122
-0.00259434
-0.000713157
-0.00245407
-0.000723162
-0.00231236
-0.000730028
-0.00216981
-0.000733654
-0.00202705
-0.000733949
-0.0018847
-0.000730836
-0.0017434
-0.000724251
-0.00160382
-0.000714146
-0.00146659
-0.000700493
-0.00133236
-0.000683281
-0.00120179
-0.000662524
-0.00107551
-0.000638262
-0.000954121
-0.000610566
-0.00083823
-0.000579541
-0.000728399
-0.000545331
-0.000625156
-0.000508129
-0.000528984
-0.00046818
-0.000440314
-0.000425792
-0.000359511
-0.00038135
-0.000286868
-0.000335325
-0.000222594
-0.000288294
-0.000166805
-0.00024096
-0.000119511
-0.000194172
-8.06107e-05
-0.000148956
-4.98826e-05
-0.000106547
-2.69816e-05
-6.84309e-05
-1.14403e-05
-3.63768e-05
-2.67506e-06
-1.24874e-05
5.75553e-07
-3.81777e-06
3.84967e-07
-1.55306e-05
2.28567e-05
-3.55535e-05
5.97199e-05
-6.43014e-05
0.000104244
-0.000102084
0.000153905
-0.000149084
0.000207055
-0.000205371
0.000262294
-0.000270899
0.000318428
-0.000345523
0.000374455
-0.000429007
0.000429536
-0.000521034
0.000482969
-0.000621217
0.000534178
-0.000729108
0.000582691
-0.000844207
0.000628128
-0.000965969
0.000670186
-0.00109382
0.000708632
-0.00122714
0.000743288
-0.00136531
0.000774028
-0.00150767
0.000800767
-0.00165358
0.000823457
-0.00180237
0.000842082
-0.00195337
0.000856651
-0.00210593
0.000867196
-0.00225938
0.000873769
-0.00241307
0.000876439
-0.00256638
0.000875289
-0.00271866
0.000870411
-0.00286933
0.000861911
-0.00301778
0.000849901
-0.00316344
0.000834501
-0.00330576
0.000815838
-0.00344421
0.000794041
-0.00357827
0.000769247
-0.00370746
0.000741594
-0.00383132
0.000711225
-0.00394941
0.000678283
-0.00406131
0.000642917
-0.00416663
0.000605274
-0.00426501
0.000565506
-0.0043561
0.000523764
-0.00443961
0.000480203
-0.00451524
0.000434976
-0.00458273
0.000388242
-0.00464185
0.000340157
-0.0046924
0.000290881
-0.00473421
0.000240575
-0.00476711
0.000189401
-0.004791
0.000137524
-0.00480579
8.51096e-05
-0.0048114
3.2325e-05
-0.00480781
-2.06599e-05
-0.00479502
-7.36736e-05
-0.00477305
-0.000126542
-0.00474195
-0.000179091
-0.00470183
-0.000231141
-0.00465278
-0.000282515
-0.00459497
-0.000333032
-0.00452856
-0.000382509
-0.00445378
-0.000430763
-0.00437086
-0.00047761
-0.00428008
-0.000522864
-0.00418174
-0.000566342
-0.00407617
-0.000607858
-0.00396375
-0.000647229
-0.00384487
-0.000684271
-0.00371995
-0.000718806
-0.00358946
-0.000750655
-0.00345388
-0.000779644
-0.00331372
-0.000805605
-0.00316952
-0.000828373
-0.00302185
-0.000847791
-0.0028713
-0.000863708
-0.00271848
-0.000875985
-0.00256402
-0.00088449
-0.00240857
-0.000889104
-0.0022528
-0.000889722
-0.00209738
-0.000886253
-0.001943
-0.000878625
-0.00179037
-0.000866782
-0.00164017
-0.000850693
-0.0014931
-0.000830351
-0.00134984
-0.000805775
-0.00121109
-0.000777018
-0.00107749
-0.000744168
-0.000949676
-0.000707352
-0.00082826
-0.000666747
-0.000713809
-0.000622581
-0.000606844
-0.000575145
-0.000507833
-0.000524803
-0.000417184
-0.000471999
-0.000335231
-0.000417278
-0.000262229
-0.000361296
-0.000198347
-0.000304843
-0.000143656
-0.000248863
-9.8128e-05
-0.000194483
-6.16332e-05
-0.000143042
-3.39382e-05
-9.61258e-05
-1.47164e-05
-5.55986e-05
-3.55986e-06
-2.36439e-05
-2.98431e-06
-4.76262e-06
5.14768e-06
-1.90036e-05
3.70977e-05
-4.28722e-05
8.35883e-05
-7.65907e-05
0.000137962
-0.000120314
0.000197628
-0.000174107
0.000260848
-0.000237936
0.000326123
-0.000311678
0.00039217
-0.000395121
0.000457898
-0.00048797
0.000522384
-0.000589856
0.000584856
-0.000700348
0.000644669
-0.000818951
0.000701295
-0.000945125
0.000754302
-0.00107829
0.000803347
-0.00121781
0.000848159
-0.00136306
0.000888535
-0.00151336
0.000924324
-0.00166802
0.000955426
-0.00182634
0.000981783
-0.00198763
0.00100337
-0.00215117
0.0010202
-0.00231627
0.0010323
-0.00248223
0.00103973
-0.00264836
0.00104257
-0.00281398
0.00104091
-0.00297842
0.00103486
-0.00314105
0.00102454
-0.00330123
0.00101008
-0.00345835
0.000991623
-0.00361183
0.000969313
-0.00376109
0.000943302
-0.00390559
0.000913751
-0.00404482
0.000880822
-0.00417828
0.000844681
-0.00430549
0.0008055
-0.00442603
0.000763451
-0.00453946
0.00071871
-0.00464541
0.000671454
-0.00474351
0.000621864
-0.00483343
0.00057012
-0.00491486
0.000516407
-0.00498753
0.000460909
-0.00505118
0.000403814
-0.00510561
0.00034531
-0.00515063
0.000285588
-0.00518607
0.00022484
-0.0052118
0.00016326
-0.00522774
0.000101046
-0.00523381
3.83952e-05
-0.00522998
-2.44909e-05
-0.00521624
-8.74092e-05
-0.00519263
-0.000150154
-0.0051592
-0.000212518
-0.00511605
-0.000274292
-0.0050633
-0.000335264
-0.00500112
-0.000395219
-0.00492968
-0.000453944
-0.00484922
-0.00051122
-0.00476
-0.000566831
-0.00466231
-0.000620559
-0.00455646
-0.000672185
-0.00444283
-0.000721492
-0.0043218
-0.000768262
-0.00419378
-0.000812282
-0.00405925
-0.000853338
-0.00391869
-0.000891222
-0.0037726
-0.000925729
-0.00362154
-0.000956661
-0.00346609
-0.000983826
-0.00330684
-0.00100704
-0.00314443
-0.00102612
-0.0029795
-0.00104092
-0.00281272
-0.00105127
-0.00264479
-0.00105703
-0.00247641
-0.0010581
-0.00230831
-0.00105435
-0.00214122
-0.00104572
-0.00197587
-0.00103213
-0.001813
-0.00101356
-0.00165335
-0.000989999
-0.00149765
-0.000961472
-0.00134663
-0.000928044
-0.00120097
-0.000889821
-0.00106137
-0.000846957
-0.000928457
-0.000799657
-0.00080285
-0.000748188
-0.000685111
-0.000692885
-0.00057575
-0.000634164
-0.000475218
-0.000572531
-0.000383899
-0.000508597
-0.0003021
-0.000443095
-0.000230049
-0.000376893
-0.000167889
-0.000311023
-0.000115673
-0.0002467
-7.33667e-05
-0.000185348
-4.08564e-05
-0.000128636
-1.79559e-05
-7.84991e-05
-4.42673e-06
-3.71731e-05
-7.41107e-06
-5.66887e-06
1.08165e-05
-2.23739e-05
5.38025e-05
-5.00376e-05
0.000111252
-8.86983e-05
0.000176623
-0.000138359
0.000247288
-0.000198959
0.000321448
-0.000270362
0.000397526
-0.000352355
0.000474164
-0.000444651
0.000550194
-0.000546891
0.000624624
-0.000658649
0.000696614
-0.000779441
0.00076546
-0.000908725
0.000830579
-0.00104592
0.000891494
-0.00119039
0.000947819
-0.00134148
0.000999252
-0.00149851
0.00104556
-0.00166075
0.00108657
-0.0018275
0.00112217
-0.001998
0.00115229
-0.00217153
0.0011769
-0.00234734
0.001196
-0.00252468
0.00120964
-0.00270282
0.00121787
-0.00288103
0.00122078
-0.0030586
0.00121848
-0.00323484
0.00121109
-0.00340905
0.00119875
-0.00358058
0.00118161
-0.00374878
0.00115982
-0.00391302
0.00113356
-0.00407271
0.00110299
-0.00422728
0.00106832
-0.00437617
0.00102971
-0.00451886
0.000987375
-0.00465486
0.0009415
-0.0047837
0.000892289
-0.00490493
0.000839945
-0.00501816
0.000784676
-0.00512298
0.00072669
-0.00521906
0.000666197
-0.00530607
0.000603413
-0.00538371
0.000538551
-0.00545172
0.000471831
-0.00550988
0.00040347
-0.00555799
0.000333692
-0.00559587
0.000262721
-0.00562339
0.000190783
-0.00564045
0.000118106
-0.00564698
4.4923e-05
-0.00564294
-2.85328e-05
-0.00562832
-0.000102025
-0.00560316
-0.000175314
-0.00556752
-0.000248158
-0.0055215
-0.000320314
-0.00546523
-0.000391536
-0.00539887
-0.000461574
-0.00532264
-0.000530178
-0.00523676
-0.000597097
-0.00514152
-0.000662078
-0.00503721
-0.000724867
-0.00492418
-0.000785212
-0.00480281
-0.000842859
-0.00467352
-0.000897557
-0.00453674
-0.000949057
-0.00439297
-0.000997113
-0.00424271
-0.00104148
-0.0040865
-0.00108193
-0.00392494
-0.00111823
-0.00375862
-0.00115015
-0.00358818
-0.00117748
-0.00341428
-0.00120002
-0.00323761
-0.00121759
-0.00305888
-0.00123
-0.00287882
-0.0012371
-0.00269817
-0.00123875
-0.00251769
-0.00123483
-0.00233816
-0.00122525
-0.00216036
-0.00120994
-0.00198506
-0.00118886
-0.00181304
-0.00116202
-0.00164508
-0.00112943
-0.00148194
-0.00109119
-0.00132435
-0.00104741
-0.00117305
-0.000998266
-0.0010287
-0.000944
-0.000891975
-0.000884914
-0.000763473
-0.000821387
-0.000643753
-0.000753884
-0.000533314
-0.00068297
-0.000432593
-0.000609318
-0.000341957
-0.000533731
-0.000261699
-0.000457151
-0.000192038
-0.000380685
-0.000133114