/*--------------------------------*- C++ -*----------------------------------*\
  =========                 |
  \\      /  F ield         | OpenFOAM: The Open Source CFD Toolbox
   \\    /   O peration     | Website:  https://openfoam.org
    \\  /    A nd           | Version:  11
     \\/     M anipulation  |
\*---------------------------------------------------------------------------*/
FoamFile
{
    format      ascii;
    class       volVectorField;
    location    "4.7";
    object      U;
}
// * * * * * * * * * * * * * * * * * * * * * * * * * * * * * * * * * * * * * //

dimensions      [0 1 -1 0 0 0 0];

internalField   nonuniform List<vector> 
10100
(
(3.52977e-06 -2.22965e-06 0)
(1.26049e-05 -2.94533e-06 0)
(2.26217e-05 -1.66144e-06 0)
(2.88633e-05 -9.00265e-07 0)
(3.02227e-05 1.095e-07 0)
(2.58026e-05 1.72079e-06 0)
(1.42361e-05 3.77483e-06 0)
(-5.28423e-06 6.11258e-06 0)
(-3.31369e-05 8.57066e-06 0)
(-6.94673e-05 1.1061e-05 0)
(-0.000114097 1.3499e-05 0)
(-0.000166754 1.58425e-05 0)
(-0.000227039 1.80506e-05 0)
(-0.000294459 2.01025e-05 0)
(-0.000368485 2.20039e-05 0)
(-0.000448565 2.37101e-05 0)
(-0.000534105 2.52537e-05 0)
(-0.000624466 2.66043e-05 0)
(-0.000719105 2.77649e-05 0)
(-0.00081738 2.87501e-05 0)
(-0.000918669 2.95697e-05 0)
(-0.00102245 3.02139e-05 0)
(-0.00112809 3.06748e-05 0)
(-0.00123505 3.09782e-05 0)
(-0.00134279 3.11253e-05 0)
(-0.00145079 3.11226e-05 0)
(-0.00155854 3.09912e-05 0)
(-0.00166558 3.07344e-05 0)
(-0.00177144 3.03361e-05 0)
(-0.00187567 2.97946e-05 0)
(-0.00197785 2.91264e-05 0)
(-0.00207756 2.83487e-05 0)
(-0.00217442 2.74662e-05 0)
(-0.00226805 2.64818e-05 0)
(-0.00235809 2.54003e-05 0)
(-0.00244421 2.42249e-05 0)
(-0.0025261 2.29554e-05 0)
(-0.00260346 2.15962e-05 0)
(-0.00267601 2.01611e-05 0)
(-0.00274349 1.86594e-05 0)
(-0.00280567 1.70972e-05 0)
(-0.00286235 1.54783e-05 0)
(-0.00291333 1.38049e-05 0)
(-0.00295843 1.20884e-05 0)
(-0.00299749 1.03342e-05 0)
(-0.00303038 8.53709e-06 0)
(-0.00305699 6.70426e-06 0)
(-0.0030772 4.84669e-06 0)
(-0.00309093 2.96801e-06 0)
(-0.00309812 1.07482e-06 0)
(-0.00309873 -8.30499e-07 0)
(-0.00309272 -2.74946e-06 0)
(-0.0030801 -4.67098e-06 0)
(-0.00306088 -6.58179e-06 0)
(-0.0030351 -8.47923e-06 0)
(-0.00300283 -1.03579e-05 0)
(-0.00296416 -1.22066e-05 0)
(-0.0029192 -1.40191e-05 0)
(-0.00286807 -1.57907e-05 0)
(-0.00281096 -1.75112e-05 0)
(-0.00274805 -1.91719e-05 0)
(-0.00267956 -2.07663e-05 0)
(-0.00260571 -2.22841e-05 0)
(-0.00252679 -2.37179e-05 0)
(-0.00244306 -2.50677e-05 0)
(-0.00235483 -2.63318e-05 0)
(-0.00226243 -2.74999e-05 0)
(-0.00216621 -2.85615e-05 0)
(-0.00206655 -2.9511e-05 0)
(-0.00196384 -3.03433e-05 0)
(-0.0018585 -3.10527e-05 0)
(-0.00175096 -3.16348e-05 0)
(-0.00164169 -3.20829e-05 0)
(-0.00153118 -3.2384e-05 0)
(-0.00141994 -3.25244e-05 0)
(-0.00130851 -3.2498e-05 0)
(-0.00119745 -3.23041e-05 0)
(-0.00108732 -3.19401e-05 0)
(-0.000978719 -3.13991e-05 0)
(-0.000872231 -3.0675e-05 0)
(-0.000768472 -2.97637e-05 0)
(-0.000668066 -2.8661e-05 0)
(-0.000571645 -2.73608e-05 0)
(-0.000479849 -2.58596e-05 0)
(-0.000393313 -2.41588e-05 0)
(-0.000312667 -2.22631e-05 0)
(-0.000238522 -2.01769e-05 0)
(-0.000171469 -1.79044e-05 0)
(-0.000112067 -1.54522e-05 0)
(-6.08362e-05 -1.28296e-05 0)
(-1.82435e-05 -1.005e-05 0)
(1.53219e-05 -7.13257e-06 0)
(3.95816e-05 -4.11075e-06 0)
(5.44257e-05 -1.04573e-06 0)
(6.00041e-05 1.95651e-06 0)
(5.68719e-05 4.71216e-06 0)
(4.6192e-05 6.901e-06 0)
(3.01549e-05 7.94737e-06 0)
(1.3227e-05 6.85395e-06 0)
(2.65241e-06 2.65043e-06 0)
(1.10835e-05 -1.48663e-05 0)
(3.37624e-05 -2.21348e-05 0)
(5.69865e-05 -1.55218e-05 0)
(6.83657e-05 -6.76408e-06 0)
(6.35216e-05 4.03307e-06 0)
(4.03834e-05 1.72659e-05 0)
(-3.41943e-06 3.22558e-05 0)
(-6.94221e-05 4.83393e-05 0)
(-0.00015837 6.4839e-05 0)
(-0.000270315 8.12785e-05 0)
(-0.000404917 9.73496e-05 0)
(-0.00056137 0.000112706 0)
(-0.000738626 0.000127217 0)
(-0.000935422 0.000140765 0)
(-0.00115037 0.000153198 0)
(-0.00138192 0.000164546 0)
(-0.0016285 0.000174697 0)
(-0.00188854 0.00018369 0)
(-0.00216029 0.00019145 0)
(-0.00244217 0.000198071 0)
(-0.00273255 0.000203491 0)
(-0.00302977 0.000207783 0)
(-0.00333226 0.00021096 0)
(-0.00363847 0.000213043 0)
(-0.00394686 0.00021407 0)
(-0.00425598 0.000214085 0)
(-0.00456443 0.000213137 0)
(-0.0048708 0.000211266 0)
(-0.0051738 0.000208493 0)
(-0.00547214 0.000204846 0)
(-0.00576461 0.000200364 0)
(-0.00605004 0.000195085 0)
(-0.00632731 0.000189044 0)
(-0.00659537 0.000182285 0)
(-0.0068532 0.000174848 0)
(-0.00709983 0.000166767 0)
(-0.00733438 0.000158074 0)
(-0.007556 0.000148808 0)
(-0.00776389 0.000139014 0)
(-0.00795733 0.000128741 0)
(-0.00813563 0.000118019 0)
(-0.00829817 0.000106889 0)
(-0.00844441 9.53957e-05 0)
(-0.00857381 8.3573e-05 0)
(-0.00868594 7.14599e-05 0)
(-0.00878038 5.90895e-05 0)
(-0.0088568 4.64926e-05 0)
(-0.00891491 3.37147e-05 0)
(-0.00895448 2.07974e-05 0)
(-0.00897533 7.77188e-06 0)
(-0.00897735 -5.32444e-06 0)
(-0.00896049 -1.84466e-05 0)
(-0.00892474 -3.15518e-05 0)
(-0.00887015 -4.45968e-05 0)
(-0.00879689 -5.75349e-05 0)
(-0.00870515 -7.03187e-05 0)
(-0.00859517 -8.29014e-05 0)
(-0.00846728 -9.52345e-05 0)
(-0.0083219 -0.000107268 0)
(-0.00815949 -0.000118954 0)
(-0.00798057 -0.000130241 0)
(-0.00778576 -0.00014108 0)
(-0.00757574 -0.00015142 0)
(-0.00735123 -0.000161217 0)
(-0.00711305 -0.000170435 0)
(-0.00686207 -0.000179029 0)
(-0.00659926 -0.000186948 0)
(-0.00632558 -0.000194142 0)
(-0.00604212 -0.000200571 0)
(-0.00575003 -0.000206193 0)
(-0.00545052 -0.000210963 0)
(-0.00514482 -0.000214838 0)
(-0.00483428 -0.00021777 0)
(-0.00452028 -0.00021971 0)
(-0.00420426 -0.000220607 0)
(-0.00388773 -0.000220424 0)
(-0.00357224 -0.00021913 0)
(-0.00325938 -0.000216696 0)
(-0.00295079 -0.000213094 0)
(-0.00264811 -0.000208297 0)
(-0.00235304 -0.000202285 0)
(-0.0020673 -0.000195038 0)
(-0.00179263 -0.000186544 0)
(-0.00153073 -0.000176798 0)
(-0.00128331 -0.000165811 0)
(-0.00105204 -0.000153611 0)
(-0.000838558 -0.000140237 0)
(-0.000644404 -0.000125745 0)
(-0.000471021 -0.000110208 0)
(-0.000319708 -9.37251e-05 0)
(-0.000191568 -7.64325e-05 0)
(-8.74362e-05 -5.85283e-05 0)
(-7.78006e-06 -4.03031e-05 0)
(4.74389e-05 -2.21903e-05 0)
(7.89741e-05 -4.83977e-06 0)
(8.85882e-05 1.07659e-05 0)
(7.93843e-05 2.3129e-05 0)
(5.6327e-05 2.99588e-05 0)
(2.79099e-05 2.78804e-05 0)
(6.86072e-06 1.3229e-05 0)
(1.41238e-05 -3.84844e-05 0)
(4.26872e-05 -5.35232e-05 0)
(6.9729e-05 -3.48319e-05 0)
(7.67971e-05 -7.47649e-06 0)
(5.69324e-05 2.61762e-05 0)
(6.80469e-06 6.52302e-05 0)
(-7.65794e-05 0.000108298 0)
(-0.000194946 0.000153552 0)
(-0.00034908 0.000199687 0)
(-0.000538931 0.000245537 0)
(-0.000763873 0.000290152 0)
(-0.00102267 0.000332988 0)
(-0.00131366 0.000373451 0)
(-0.00163503 0.000411221 0)
(-0.00198453 0.000446061 0)
(-0.00235992 0.000477794 0)
(-0.00275878 0.000506303 0)
(-0.00317853 0.000531527 0)
(-0.00361671 0.000553464 0)
(-0.00407074 0.000572065 0)
(-0.00453806 0.000587426 0)
(-0.00501613 0.000599559 0)
(-0.00550249 0.000608538 0)
(-0.00599466 0.000614456 0)
(-0.00649027 0.00061738 0)
(-0.00698699 0.000617405 0)
(-0.00748255 0.000614646 0)
(-0.00797477 0.000609206 0)
(-0.00846154 0.000601176 0)
(-0.00894082 0.000590659 0)
(-0.00941066 0.000577756 0)
(-0.00986918 0.000562563 0)
(-0.0103146 0.000545182 0)
(-0.0107452 0.000525728 0)
(-0.0111594 0.000504312 0)
(-0.0115557 0.000481042 0)
(-0.0119326 0.00045602 0)
(-0.0122887 0.000429364 0)
(-0.0126228 0.000401185 0)
(-0.0129337 0.000371599 0)
(-0.0132203 0.00034072 0)
(-0.0134816 0.000308653 0)
(-0.0137167 0.000275514 0)
(-0.0139248 0.000241422 0)
(-0.0141051 0.000206476 0)
(-0.014257 0.000170784 0)
(-0.01438 0.000134465 0)
(-0.0144735 9.7624e-05 0)
(-0.0145372 6.03757e-05 0)
(-0.0145709 2.28389e-05 0)
(-0.0145744 -1.48765e-05 0)
(-0.0145476 -5.26505e-05 0)
(-0.0144905 -9.03495e-05 0)
(-0.0144032 -0.000127851 0)
(-0.014286 -0.000165033 0)
(-0.0141391 -0.000201759 0)
(-0.0139631 -0.000237891 0)
(-0.0137584 -0.000273299 0)
(-0.0135257 -0.000307844 0)
(-0.0132658 -0.000341384 0)
(-0.0129794 -0.000373781 0)
(-0.0126677 -0.000404899 0)
(-0.0123315 -0.000434598 0)
(-0.0119722 -0.000462746 0)
(-0.011591 -0.000489217 0)
(-0.0111893 -0.000513877 0)
(-0.0107687 -0.000536588 0)
(-0.0103307 -0.000557214 0)
(-0.00987714 -0.00057563 0)
(-0.00940974 -0.000591712 0)
(-0.00893048 -0.000605334 0)
(-0.00844137 -0.00061637 0)
(-0.00794453 -0.000624695 0)
(-0.00744218 -0.000630184 0)
(-0.0069366 -0.00063272 0)
(-0.00643017 -0.0006322 0)
(-0.00592533 -0.000628536 0)
(-0.00542459 -0.000621644 0)
(-0.00493051 -0.000611452 0)
(-0.00444571 -0.000597898 0)
(-0.00397283 -0.000580934 0)
(-0.00351454 -0.000560527 0)
(-0.00307351 -0.000536662 0)
(-0.00265239 -0.000509351 0)
(-0.00225378 -0.00047864 0)
(-0.00188024 -0.000444613 0)
(-0.00153423 -0.000407402 0)
(-0.00121806 -0.000367185 0)
(-0.000933863 -0.00032421 0)
(-0.000683526 -0.000278805 0)
(-0.000468586 -0.000231422 0)
(-0.000290139 -0.00018268 0)
(-0.000148692 -0.000133444 0)
(-4.39795e-05 -8.49288e-05 0)
(2.52933e-05 -3.88401e-05 0)
(6.17786e-05 2.41164e-06 0)
(6.98068e-05 3.5429e-05 0)
(5.58267e-05 5.55009e-05 0)
(3.01245e-05 5.63321e-05 0)
(7.97248e-06 3.01888e-05 0)
(1.24404e-05 -6.30742e-05 0)
(3.61697e-05 -8.39578e-05 0)
(5.31496e-05 -4.78692e-05 0)
(4.33092e-05 7.15871e-06 0)
(-2.61721e-06 7.43715e-05 0)
(-8.90749e-05 0.00015115 0)
(-0.000219517 0.000234245 0)
(-0.000396019 0.000321022 0)
(-0.000619224 0.000408965 0)
(-0.000889122 0.000496137 0)
(-0.00120471 0.000581046 0)
(-0.00156441 0.000662458 0)
(-0.00196627 0.000739498 0)
(-0.00240772 0.000811485 0)
(-0.00288607 0.000877971 0)
(-0.00339834 0.000938544 0)
(-0.00394138 0.000993087 0)
(-0.00451197 0.00104136 0)
(-0.00510677 0.00108338 0)
(-0.00572244 0.0011191 0)
(-0.00635563 0.00114858 0)
(-0.00700301 0.00117188 0)
(-0.00766127 0.00118913 0)
(-0.00832718 0.00120047 0)
(-0.00899756 0.00120604 0)
(-0.0096693 0.00120602 0)
(-0.0103394 0.00120057 0)
(-0.0110048 0.00118988 0)
(-0.0116629 0.00117415 0)
(-0.0123107 0.00115358 0)
(-0.0129458 0.00112837 0)
(-0.0135656 0.00109869 0)
(-0.0141676 0.00106477 0)
(-0.0147496 0.00102681 0)
(-0.0153095 0.000985011 0)
(-0.0158451 0.000939595 0)
(-0.0163544 0.000890769 0)
(-0.0168358 0.000838752 0)
(-0.0172873 0.000783765 0)
(-0.0177075 0.000726018 0)
(-0.0180949 0.00066573 0)
(-0.0184481 0.000603125 0)
(-0.0187659 0.000538415 0)
(-0.0190471 0.00047182 0)
(-0.0192909 0.000403558 0)
(-0.0194962 0.000333842 0)
(-0.0196623 0.000262899 0)
(-0.0197887 0.000190956 0)
(-0.0198749 0.000118228 0)
(-0.0199204 4.4941e-05 0)
(-0.0199252 -2.86652e-05 0)
(-0.019889 -0.000102354 0)
(-0.0198118 -0.000175887 0)
(-0.019694 -0.000249016 0)
(-0.0195358 -0.00032149 0)
(-0.0193376 -0.000393061 0)
(-0.0191 -0.000463466 0)
(-0.0188237 -0.000532441 0)
(-0.0185097 -0.000599727 0)
(-0.0181589 -0.000665058 0)
(-0.0177725 -0.000728163 0)
(-0.0173519 -0.000788771 0)
(-0.0168984 -0.000846622 0)
(-0.0164136 -0.000901457 0)
(-0.0158994 -0.000953013 0)
(-0.0153575 -0.00100103 0)
(-0.0147902 -0.00104524 0)
(-0.0141994 -0.00108539 0)
(-0.0135875 -0.00112122 0)
(-0.0129571 -0.0011525 0)
(-0.0123107 -0.00117899 0)
(-0.0116509 -0.00120043 0)
(-0.0109807 -0.0012166 0)
(-0.0103031 -0.00122728 0)
(-0.00962097 -0.00123226 0)
(-0.0089376 -0.00123134 0)
(-0.00825621 -0.00122436 0)
(-0.00758014 -0.00121117 0)
(-0.00691279 -0.00119163 0)
(-0.00625761 -0.00116564 0)
(-0.00561809 -0.00113314 0)
(-0.00499774 -0.00109407 0)
(-0.00440005 -0.00104843 0)
(-0.00382847 -0.000996278 0)
(-0.00328637 -0.000937724 0)
(-0.00277706 -0.000872952 0)
(-0.00230369 -0.000802238 0)
(-0.00186918 -0.000725961 0)
(-0.00147623 -0.000644636 0)
(-0.00112714 -0.000558947 0)
(-0.000823771 -0.00046981 0)
(-0.00056741 -0.000378452 0)
(-0.000358573 -0.000286528 0)
(-0.000196833 -0.000196272 0)
(-8.05466e-05 -0.000110701 0)
(-6.5597e-06 -3.38962e-05 0)
(3.00831e-05 2.86421e-05 0)
(3.65278e-05 6.96392e-05 0)
(2.36125e-05 7.96908e-05 0)
(6.98238e-06 4.63732e-05 0)
(8.84415e-06 -8.10663e-05 0)
(2.11011e-05 -0.000101285 0)
(1.79925e-05 -4.16751e-05 0)
(-1.9402e-05 4.86535e-05 0)
(-0.00010088 0.000158475 0)
(-0.00023193 0.00028239 0)
(-0.000416383 0.000415601 0)
(-0.000656215 0.00055382 0)
(-0.0009524 0.00069356 0)
(-0.00130449 0.000831892 0)
(-0.00171147 0.000966591 0)
(-0.00217149 0.00109578 0)
(-0.00268201 0.00121813 0)
(-0.00324024 0.0013326 0)
(-0.00384288 0.00143836 0)
(-0.00448639 0.00153491 0)
(-0.00516705 0.00162183 0)
(-0.00588094 0.0016989 0)
(-0.0066241 0.00176598 0)
(-0.00739252 0.00182307 0)
(-0.0081821 0.00187018 0)
(-0.0089888 0.00190743 0)
(-0.00980862 0.00193497 0)
(-0.0106376 0.001953 0)
(-0.0114718 0.00196175 0)
(-0.0123075 0.00196149 0)
(-0.013141 0.00195246 0)
(-0.0139685 0.00193497 0)
(-0.0147867 0.00190931 0)
(-0.0155922 0.00187579 0)
(-0.0163817 0.00183472 0)
(-0.0171521 0.00178644 0)
(-0.0179004 0.00173127 0)
(-0.0186239 0.00166954 0)
(-0.0193197 0.00160159 0)
(-0.0199853 0.00152776 0)
(-0.0206183 0.0014484 0)
(-0.0212165 0.00136384 0)
(-0.0217777 0.00127445 0)
(-0.0222999 0.00118058 0)
(-0.0227812 0.00108256 0)
(-0.0232201 0.000980765 0)
(-0.0236149 0.00087555 0)
(-0.0239643 0.00076726 0)
(-0.0242671 0.000656251 0)
(-0.0245221 0.00054289 0)
(-0.0247285 0.000427537 0)
(-0.0248854 0.000310559 0)
(-0.0249924 0.000192325 0)
(-0.0250489 7.32053e-05 0)
(-0.0250547 -4.64188e-05 0)
(-0.0250096 -0.000166153 0)
(-0.0249137 -0.000285607 0)
(-0.0247673 -0.00040439 0)
(-0.0245707 -0.000522092 0)
(-0.0243244 -0.000638295 0)
(-0.0240293 -0.000752588 0)
(-0.0236862 -0.000864552 0)
(-0.0232962 -0.000973762 0)
(-0.0228606 -0.00107979 0)
(-0.0223808 -0.0011822 0)
(-0.0218585 -0.00128056 0)
(-0.0212955 -0.00137444 0)
(-0.0206936 -0.00146342 0)
(-0.0200552 -0.00154708 0)
(-0.0193826 -0.00162499 0)
(-0.0186782 -0.00169672 0)
(-0.0179449 -0.00176186 0)
(-0.0171853 -0.00182 0)
(-0.0164027 -0.00187076 0)
(-0.0156001 -0.00191374 0)
(-0.014781 -0.00194856 0)
(-0.0139488 -0.00197485 0)
(-0.0131071 -0.00199229 0)
(-0.0122598 -0.00200053 0)
(-0.0114108 -0.00199929 0)
(-0.0105639 -0.00198831 0)
(-0.00972324 -0.00196736 0)
(-0.00889303 -0.00193623 0)
(-0.00807744 -0.0018948 0)
(-0.00728071 -0.00184295 0)
(-0.00650707 -0.00178066 0)
(-0.00576073 -0.00170794 0)
(-0.00504585 -0.00162492 0)
(-0.00436648 -0.00153181 0)
(-0.00372654 -0.00142893 0)
(-0.00312976 -0.00131678 0)
(-0.0025796 -0.001196 0)
(-0.00207917 -0.00106745 0)
(-0.00163114 -0.000932277 0)
(-0.00123766 -0.000791975 0)
(-0.000900147 -0.00064851 0)
(-0.000619187 -0.000504455 0)
(-0.000394302 -0.000363186 0)
(-0.000223725 -0.00022913 0)
(-0.00010414 -0.000108093 0)
(-3.04154e-05 -7.65996e-06 0)
(4.74078e-06 6.24117e-05 0)
(1.17691e-05 8.96975e-05 0)
(4.89614e-06 5.7418e-05 0)
(4.83733e-06 -8.92777e-05 0)
(2.47363e-06 -9.81642e-05 0)
(-2.71894e-05 -7.29716e-06 0)
(-9.9391e-05 0.000126141 0)
(-0.000223866 0.000286776 0)
(-0.000406152 0.000466487 0)
(-0.000650161 0.000658491 0)
(-0.000958118 0.000856978 0)
(-0.00133056 0.00105718 0)
(-0.00176719 0.00125526 0)
(-0.00226658 0.00144798 0)
(-0.00282662 0.00163299 0)
(-0.00344456 0.00180827 0)
(-0.00411709 0.00197235 0)
(-0.00484053 0.00212411 0)
(-0.00561085 0.00226275 0)
(-0.0064238 0.00238765 0)
(-0.00727492 0.00249848 0)
(-0.00815963 0.00259497 0)
(-0.00907332 0.00267711 0)
(-0.0100113 0.00274489 0)
(-0.0109689 0.00279845 0)
(-0.0119414 0.00283797 0)
(-0.0129243 0.00286371 0)
(-0.013913 0.00287599 0)
(-0.0149031 0.00287516 0)
(-0.0158902 0.00286158 0)
(-0.0168702 0.00283568 0)
(-0.0178389 0.00279787 0)
(-0.0187923 0.0027486 0)
(-0.0197267 0.0026883 0)
(-0.0206384 0.00261746 0)
(-0.0215239 0.00253656 0)
(-0.0223799 0.00244606 0)
(-0.0232031 0.00234647 0)
(-0.0239906 0.00223828 0)
(-0.0247395 0.00212199 0)
(-0.025447 0.0019981 0)
(-0.0261108 0.00186713 0)
(-0.0267284 0.00172958 0)
(-0.0272977 0.00158598 0)
(-0.0278167 0.00143683 0)
(-0.0282836 0.00128266 0)
(-0.0286967 0.00112399 0)
(-0.0290547 0.000961341 0)
(-0.0293562 0.000795251 0)
(-0.0296001 0.000626254 0)
(-0.0297856 0.000454882 0)
(-0.029912 0.000281681 0)
(-0.0299787 0.000107208 0)
(-0.0299854 -6.79747e-05 0)
(-0.0299319 -0.000243304 0)
(-0.0298185 -0.000418205 0)
(-0.0296452 -0.000592092 0)
(-0.0294126 -0.000764375 0)
(-0.0291214 -0.000934451 0)
(-0.0287724 -0.00110171 0)
(-0.0283666 -0.00126554 0)
(-0.0279055 -0.00142533 0)
(-0.0273905 -0.00158045 0)
(-0.0268233 -0.00173027 0)
(-0.0262058 -0.00187417 0)
(-0.0255402 -0.00201152 0)
(-0.0248288 -0.0021417 0)
(-0.0240741 -0.00226409 0)
(-0.023279 -0.00237806 0)
(-0.0224463 -0.00248301 0)
(-0.0215793 -0.00257833 0)
(-0.0206814 -0.00266344 0)
(-0.019756 -0.00273776 0)
(-0.0188071 -0.00280072 0)
(-0.0178383 -0.0028518 0)
(-0.016854 -0.00289047 0)
(-0.0158583 -0.00291625 0)
(-0.0148556 -0.00292869 0)
(-0.0138505 -0.00292737 0)
(-0.0128476 -0.00291193 0)
(-0.0118516 -0.00288205 0)
(-0.0108674 -0.00283747 0)
(-0.00989986 -0.00277802 0)
(-0.00895381 -0.00270357 0)
(-0.00803418 -0.00261411 0)
(-0.00714583 -0.00250971 0)
(-0.0062935 -0.00239058 0)
(-0.00548184 -0.00225707 0)
(-0.00471531 -0.00210971 0)
(-0.00399815 -0.00194923 0)
(-0.00333425 -0.00177661 0)
(-0.00272712 -0.00159314 0)
(-0.00217976 -0.0014005 0)
(-0.00169455 -0.00120084 0)
(-0.00127311 -0.000996949 0)
(-0.000916156 -0.000792391 0)
(-0.000623295 -0.000591739 0)
(-0.000392842 -0.000400844 0)
(-0.000221603 -0.000227199 0)
(-0.000104631 -8.03607e-05 0)
(-3.49212e-05 2.76155e-05 0)
(-3.14468e-06 8.15941e-05 0)
(2.28658e-06 6.12409e-05 0)
(8.72953e-07 -8.70043e-05 0)
(-1.74956e-05 -7.1252e-05 0)
(-7.71687e-05 6.03695e-05 0)
(-0.000189226 0.000245486 0)
(-0.000361719 0.00046508 0)
(-0.00060023 0.000708776 0)
(-0.000908412 0.000967538 0)
(-0.00128808 0.00123418 0)
(-0.00173983 0.00150262 0)
(-0.00226292 0.00176787 0)
(-0.0028558 0.00202599 0)
(-0.00351603 0.00227372 0)
(-0.0042405 0.00250855 0)
(-0.00502558 0.00272849 0)
(-0.00586717 0.00293204 0)
(-0.00676082 0.00311807 0)
(-0.0077018 0.00328579 0)
(-0.00868518 0.00343463 0)
(-0.00970585 0.00356429 0)
(-0.0107586 0.00367461 0)
(-0.0118383 0.00376561 0)
(-0.0129397 0.00383741 0)
(-0.0140574 0.00389026 0)
(-0.0151864 0.00392446 0)
(-0.0163216 0.00394042 0)
(-0.0174578 0.00393856 0)
(-0.0185903 0.00391939 0)
(-0.0197142 0.00388345 0)
(-0.0208249 0.0038313 0)
(-0.0219179 0.00376351 0)
(-0.0229889 0.00368072 0)
(-0.0240338 0.00358354 0)
(-0.0250485 0.00347261 0)
(-0.0260292 0.0033486 0)
(-0.0269723 0.00321215 0)
(-0.0278743 0.00306396 0)
(-0.0287321 0.0029047 0)
(-0.0295425 0.00273506 0)
(-0.0303026 0.00255573 0)
(-0.0310099 0.0023674 0)
(-0.0316618 0.00217079 0)
(-0.0322561 0.00196659 0)
(-0.0327906 0.00175552 0)
(-0.0332636 0.0015383 0)
(-0.0336734 0.00131564 0)
(-0.0340185 0.00108828 0)
(-0.0342976 0.000856952 0)
(-0.0345099 0.000622388 0)
(-0.0346544 0.00038534 0)
(-0.0347307 0.000146569 0)
(-0.0347382 -9.31525e-05 0)
(-0.0346769 -0.00033305 0)
(-0.0345469 -0.000572338 0)
(-0.0343484 -0.000810218 0)
(-0.0340821 -0.00104588 0)
(-0.0337486 -0.0012785 0)
(-0.033349 -0.00150725 0)
(-0.0328845 -0.0017313 0)
(-0.0323566 -0.00194981 0)
(-0.0317671 -0.00216193 0)
(-0.0311178 -0.00236679 0)
(-0.0304109 -0.00256356 0)
(-0.0296489 -0.00275138 0)
(-0.0288345 -0.0029294 0)
(-0.0279706 -0.00309677 0)
(-0.0270603 -0.00325266 0)
(-0.026107 -0.00339622 0)
(-0.0251144 -0.00352665 0)
(-0.0240861 -0.00364316 0)
(-0.0230264 -0.00374496 0)
(-0.0219395 -0.0038313 0)
(-0.0208297 -0.00390145 0)
(-0.0197018 -0.00395474 0)
(-0.0185606 -0.00399051 0)
(-0.017411 -0.00400817 0)
(-0.0162582 -0.00400717 0)
(-0.0151073 -0.00398705 0)
(-0.0139638 -0.00394739 0)
(-0.0128331 -0.00388788 0)
(-0.0117206 -0.00380829 0)
(-0.0106318 -0.00370851 0)
(-0.00957226 -0.00358854 0)
(-0.0085473 -0.00344853 0)
(-0.00756224 -0.00328881 0)
(-0.00662227 -0.00310989 0)
(-0.00573232 -0.00291253 0)
(-0.00489707 -0.00269777 0)
(-0.00412083 -0.00246697 0)
(-0.00340745 -0.00222189 0)
(-0.00276026 -0.00196481 0)
(-0.00218192 -0.00169859 0)
(-0.00167428 -0.00142688 0)
(-0.00123827 -0.00115425 0)
(-0.000873727 -0.000886488 0)
(-0.000579234 -0.000630815 0)
(-0.000351957 -0.000396311 0)
(-0.000187418 -0.00019433 0)
(-7.92401e-05 -3.89532e-05 0)
(-1.96944e-05 5.24164e-05 0)
(-5.38373e-07 5.67641e-05 0)
(-2.87214e-06 -7.41275e-05 0)
(-3.76133e-05 -1.891e-05 0)
(-0.000129228 0.000164487 0)
(-0.00028388 0.000410541 0)
(-0.000507914 0.000697717 0)
(-0.000806132 0.00101315 0)
(-0.00118173 0.00134637 0)
(-0.00163611 0.00168841 0)
(-0.00216943 0.00203205 0)
(-0.00278073 0.00237124 0)
(-0.00346805 0.00270111 0)
(-0.00422867 0.00301771 0)
(-0.00505915 0.00331785 0)
(-0.0059555 0.00359905 0)
(-0.00691322 0.00385939 0)
(-0.00792747 0.0040974 0)
(-0.00899311 0.00431204 0)
(-0.0101047 0.00450254 0)
(-0.0112568 0.00466849 0)
(-0.0124436 0.00480963 0)
(-0.0136594 0.00492594 0)
(-0.0148985 0.00501755 0)
(-0.0161552 0.00508472 0)
(-0.0174237 0.00512785 0)
(-0.0186984 0.00514739 0)
(-0.0199737 0.0051439 0)
(-0.0212444 0.00511799 0)
(-0.022505 0.00507033 0)
(-0.0237504 0.00500163 0)
(-0.0249758 0.00491266 0)
(-0.0261761 0.00480418 0)
(-0.027347 0.004677 0)
(-0.0284838 0.00453195 0)
(-0.0295825 0.00436987 0)
(-0.0306388 0.00419163 0)
(-0.0316491 0.00399809 0)
(-0.0326097 0.00379014 0)
(-0.0335171 0.00356866 0)
(-0.0343682 0.00333456 0)
(-0.0351601 0.00308875 0)
(-0.0358898 0.00283214 0)
(-0.0365551 0.00256564 0)
(-0.0371534 0.0022902 0)
(-0.0376828 0.00200673 0)
(-0.0381414 0.00171619 0)
(-0.0385276 0.00141953 0)
(-0.03884 0.00111771 0)
(-0.0390775 0.00081168 0)
(-0.0392392 0.000502436 0)
(-0.0393244 0.00019097 0)
(-0.0393328 -0.000121719 0)
(-0.0392641 -0.000434616 0)
(-0.0391186 -0.000746694 0)
(-0.0388964 -0.00105691 0)
(-0.0385983 -0.00136421 0)
(-0.0382251 -0.00166753 0)
(-0.0377779 -0.00196579 0)
(-0.037258 -0.00225791 0)
(-0.0366673 -0.0025428 0)
(-0.0360075 -0.00281935 0)
(-0.0352808 -0.00308645 0)
(-0.0344897 -0.003343 0)
(-0.0336369 -0.0035879 0)
(-0.0327254 -0.00382003 0)
(-0.0317584 -0.00403831 0)
(-0.0307394 -0.00424165 0)
(-0.0296722 -0.00442897 0)
(-0.0285608 -0.00459922 0)
(-0.0274094 -0.00475138 0)
(-0.0262226 -0.00488445 0)
(-0.025005 -0.00499745 0)
(-0.0237616 -0.00508946 0)
(-0.0224975 -0.00515961 0)
(-0.0212181 -0.00520708 0)
(-0.0199288 -0.00523112 0)
(-0.0186353 -0.00523104 0)
(-0.0173434 -0.00520626 0)
(-0.016059 -0.00515628 0)
(-0.014788 -0.00508071 0)
(-0.0135365 -0.00497931 0)
(-0.0123105 -0.00485195 0)
(-0.0111159 -0.00469869 0)
(-0.0099587 -0.00451976 0)
(-0.00884473 -0.00431563 0)
(-0.00777959 -0.00408702 0)
(-0.00676868 -0.00383494 0)
(-0.00581708 -0.00356076 0)
(-0.00492949 -0.00326626 0)
(-0.00411013 -0.00295373 0)
(-0.00336264 -0.00262605 0)
(-0.00268999 -0.00228684 0)
(-0.00209435 -0.00194061 0)
(-0.00157696 -0.00159295 0)
(-0.001138 -0.00125077 0)
(-0.000776479 -0.000922614 0)
(-0.000490125 -0.000619 0)
(-0.000275148 -0.000352864 0)
(-0.000126043 -0.000139988 0)
(-3.69851e-05 4.30291e-07 0)
(-3.41049e-06 4.34749e-05 0)
(-6.37823e-06 -5.08364e-05 0)
(-5.74138e-05 5.94321e-05 0)
(-0.0001816 0.000306673 0)
(-0.000380422 0.000623814 0)
(-0.000657994 0.000987241 0)
(-0.00101824 0.00138258 0)
(-0.00146351 0.00179751 0)
(-0.00199468 0.0022219 0)
(-0.00261137 0.00264723 0)
(-0.00331216 0.00306652 0)
(-0.00409473 0.00347395 0)
(-0.004956 0.00386484 0)
(-0.00589214 0.0042354 0)
(-0.0068988 0.00458259 0)
(-0.00797111 0.00490406 0)
(-0.00910384 0.005198 0)
(-0.0102914 0.00546306 0)
(-0.0115281 0.00569833 0)
(-0.0128077 0.00590317 0)
(-0.0141244 0.00607729 0)
(-0.0154717 0.0062206 0)
(-0.0168437 0.00633321 0)
(-0.0182339 0.00641542 0)
(-0.0196363 0.00646767 0)
(-0.0210448 0.0064905 0)
(-0.0224533 0.00648459 0)
(-0.0238559 0.00645067 0)
(-0.025247 0.00638955 0)
(-0.0266209 0.0063021 0)
(-0.0279723 0.00618925 0)
(-0.0292958 0.00605197 0)
(-0.0305864 0.00589125 0)
(-0.0318394 0.00570811 0)
(-0.03305 0.0055036 0)
(-0.0342139 0.00527881 0)
(-0.0353268 0.00503482 0)
(-0.0363849 0.00477272 0)
(-0.0373843 0.00449363 0)
(-0.0383216 0.00419869 0)
(-0.0391936 0.00388903 0)
(-0.0399971 0.0035658 0)
(-0.0407295 0.00323015 0)
(-0.0413883 0.00288325 0)
(-0.0419711 0.00252629 0)
(-0.0424759 0.00216043 0)
(-0.042901 0.00178689 0)
(-0.0432449 0.00140686 0)
(-0.0435063 0.00102158 0)
(-0.0436843 0.000632264 0)
(-0.0437782 0.000240176 0)
(-0.0437874 -0.000153428 0)
(-0.0437119 -0.000547273 0)
(-0.0435517 -0.000940065 0)
(-0.0433072 -0.00133049 0)
(-0.0429791 -0.00171723 0)
(-0.0425684 -0.00209895 0)
(-0.0420763 -0.00247429 0)
(-0.0415042 -0.0028419 0)
(-0.040854 -0.0032004 0)
(-0.0401278 -0.00354842 0)
(-0.039328 -0.00388456 0)
(-0.0384572 -0.00420745 0)
(-0.0375185 -0.0045157 0)
(-0.036515 -0.00480793 0)
(-0.0354504 -0.00508277 0)
(-0.0343284 -0.00533886 0)
(-0.0331531 -0.00557486 0)
(-0.031929 -0.00578947 0)
(-0.0306606 -0.0059814 0)
(-0.0293529 -0.00614942 0)
(-0.028011 -0.00629232 0)
(-0.0266403 -0.00640896 0)
(-0.0252464 -0.00649826 0)
(-0.023835 -0.00655923 0)
(-0.0224122 -0.00659094 0)
(-0.0209841 -0.00659256 0)
(-0.0195569 -0.00656338 0)
(-0.0181371 -0.00650282 0)
(-0.016731 -0.00641042 0)
(-0.0153453 -0.00628591 0)
(-0.0139865 -0.00612918 0)
(-0.0126609 -0.00594033 0)
(-0.0113751 -0.00571972 0)
(-0.0101352 -0.00546795 0)
(-0.00894734 -0.00518597 0)
(-0.00781737 -0.00487508 0)
(-0.00675073 -0.00453699 0)
(-0.00575252 -0.00417395 0)
(-0.00482731 -0.00378876 0)
(-0.00397911 -0.00338495 0)
(-0.00321125 -0.00296689 0)
(-0.00252626 -0.00253992 0)
(-0.00192578 -0.00211061 0)
(-0.00141047 -0.00168696 0)
(-0.000979903 -0.00127869 0)
(-0.000632494 -0.00089761 0)
(-0.00036532 -0.000558002 0)
(-0.000173901 -0.000277024 0)
(-5.44722e-05 -7.52226e-05 0)
(-6.24091e-06 2.12145e-05 0)
(-9.64406e-06 -1.75266e-05 0)
(-7.66338e-05 0.000163771 0)
(-0.000233388 0.000487568 0)
(-0.000476983 0.000886379 0)
(-0.000809143 0.00133542 0)
(-0.00123267 0.00181871 0)
(-0.00174911 0.0023228 0)
(-0.00235843 0.00283624 0)
(-0.00305968 0.00334951 0)
(-0.00385091 0.00385463 0)
(-0.00472935 0.00434497 0)
(-0.00569145 0.00481512 0)
(-0.006733 0.00526066 0)
(-0.00784926 0.00567804 0)
(-0.00903497 0.00606445 0)
(-0.0102845 0.00641774 0)
(-0.0115919 0.00673625 0)
(-0.0129509 0.00701888 0)
(-0.0143552 0.00726481 0)
(-0.0157983 0.00747365 0)
(-0.0172734 0.00764526 0)
(-0.018774 0.00777973 0)
(-0.0202935 0.00787739 0)
(-0.0218251 0.00793871 0)
(-0.0233624 0.00796435 0)
(-0.024899 0.00795508 0)
(-0.0264285 0.00791176 0)
(-0.0279448 0.00783535 0)
(-0.0294418 0.0077269 0)
(-0.0309137 0.00758751 0)
(-0.032355 0.00741835 0)
(-0.0337601 0.0072206 0)
(-0.0351239 0.00699552 0)
(-0.0364414 0.00674437 0)
(-0.0377078 0.00646845 0)
(-0.0389186 0.00616909 0)
(-0.0400695 0.00584762 0)
(-0.0411566 0.00550541 0)
(-0.0421759 0.00514383 0)
(-0.0431241 0.00476426 0)
(-0.0439979 0.00436812 0)
(-0.0447942 0.0039568 0)
(-0.0455104 0.00353173 0)
(-0.0461441 0.00309437 0)
(-0.0466929 0.00264615 0)
(-0.0471551 0.00218854 0)
(-0.047529 0.00172302 0)
(-0.0478132 0.00125109 0)
(-0.0480068 0.000774249 0)
(-0.0481089 0.000294035 0)
(-0.048119 -0.000188014 0)
(-0.0480371 -0.000670333 0)
(-0.0478632 -0.00115134 0)
(-0.0475977 -0.00162944 0)
(-0.0472413 -0.00210301 0)
(-0.0467951 -0.00257042 0)
(-0.0462604 -0.00303003 0)
(-0.0456388 -0.00348017 0)
(-0.0449323 -0.00391918 0)
(-0.0441432 -0.00434535 0)
(-0.0432739 -0.00475703 0)
(-0.0423275 -0.00515251 0)
(-0.0413071 -0.00553011 0)
(-0.0402162 -0.00588815 0)
(-0.0390587 -0.00622497 0)
(-0.0378386 -0.00653891 0)
(-0.0365604 -0.00682836 0)
(-0.0352288 -0.00709173 0)
(-0.0338488 -0.00732746 0)
(-0.0324256 -0.00753405 0)
(-0.0309648 -0.00771006 0)
(-0.0294722 -0.00785412 0)
(-0.0279538 -0.00796493 0)
(-0.0264158 -0.00804128 0)
(-0.0248646 -0.00808209 0)
(-0.0233068 -0.00808637 0)
(-0.0217491 -0.00805329 0)
(-0.0201984 -0.00798215 0)
(-0.0186617 -0.00787246 0)
(-0.0171457 -0.00772391 0)
(-0.0156577 -0.00753641 0)
(-0.0142043 -0.00731012 0)
(-0.0127926 -0.00704551 0)
(-0.0114292 -0.00674336 0)
(-0.0101206 -0.00640485 0)
(-0.00887301 -0.00603157 0)
(-0.00769231 -0.00562562 0)
(-0.00658399 -0.00518969 0)
(-0.00555301 -0.00472714 0)
(-0.00460378 -0.00424211 0)
(-0.00374002 -0.0037397 0)
(-0.00296472 -0.00322608 0)
(-0.00228 -0.00270873 0)
(-0.00168707 -0.00219664 0)
(-0.00118617 -0.00170061 0)
(-0.000776554 -0.00123354 0)
(-0.00045625 -0.000810857 0)
(-0.000221898 -0.000450782 0)
(-7.18356e-05 -0.000174829 0)
(-8.98822e-06 -9.97404e-06 0)
(-1.2697e-05 2.54614e-05 0)
(-9.51433e-05 0.000293658 0)
(-0.000284157 0.0007071 0)
(-0.000572399 0.00119873 0)
(-0.000959466 0.00174291 0)
(-0.00144697 0.00232258 0)
(-0.00203525 0.00292325 0)
(-0.00272355 0.00353247 0)
(-0.00351012 0.00413973 0)
(-0.00439241 0.0047362 0)
(-0.00536709 0.0053145 0)
(-0.00643014 0.00586851 0)
(-0.0075769 0.00639322 0)
(-0.0088022 0.00688457 0)
(-0.0101004 0.00733932 0)
(-0.0114654 0.00775493 0)
(-0.0128909 0.00812953 0)
(-0.0143703 0.00846169 0)
(-0.0158968 0.00875053 0)
(-0.0174635 0.00899549 0)
(-0.0190633 0.00919637 0)
(-0.0206893 0.00935327 0)
(-0.0223342 0.00946651 0)
(-0.0239913 0.00953665 0)
(-0.0256534 0.00956441 0)
(-0.0273138 0.00955068 0)
(-0.0289658 0.00949644 0)
(-0.0306027 0.00940284 0)
(-0.0322183 0.00927109 0)
(-0.0338063 0.00910248 0)
(-0.0353607 0.00889838 0)
(-0.0368758 0.00866019 0)
(-0.038346 0.00838939 0)
(-0.0397659 0.00808748 0)
(-0.0411305 0.00775601 0)
(-0.042435 0.00739655 0)
(-0.0436748 0.00701068 0)
(-0.0448457 0.00660004 0)
(-0.0459435 0.00616626 0)
(-0.0469646 0.005711 0)
(-0.0479055 0.00523591 0)
(-0.048763 0.00474271 0)
(-0.0495341 0.00423308 0)
(-0.0502163 0.00370875 0)
(-0.0508073 0.00317146 0)
(-0.0513049 0.00262295 0)
(-0.0517075 0.00206499 0)
(-0.0520137 0.00149939 0)
(-0.0522222 0.000927934 0)
(-0.0523324 0.000352462 0)
(-0.0523437 -0.000225185 0)
(-0.0522558 -0.000803136 0)
(-0.0520689 -0.0013795 0)
(-0.0517836 -0.00195236 0)
(-0.0514004 -0.0025198 0)
(-0.0509205 -0.00307987 0)
(-0.0503454 -0.00363059 0)
(-0.0496768 -0.00416998 0)
(-0.0489167 -0.00469605 0)
(-0.0480677 -0.0052068 0)
(-0.0471323 -0.00570022 0)
(-0.0461138 -0.00617429 0)
(-0.0450154 -0.00662701 0)
(-0.0438411 -0.00705637 0)
(-0.0425948 -0.00746041 0)
(-0.0412809 -0.00783715 0)
(-0.0399041 -0.00818468 0)
(-0.0384695 -0.00850111 0)
(-0.0369824 -0.00878459 0)
(-0.0354484 -0.00903336 0)
(-0.0338734 -0.0092457 0)