/*--------------------------------*- C++ -*----------------------------------*\
  =========                 |
  \\      /  F ield         | OpenFOAM: The Open Source CFD Toolbox
   \\    /   O peration     | Website:  https://openfoam.org
    \\  /    A nd           | Version:  11
     \\/     M anipulation  |
\*---------------------------------------------------------------------------*/
FoamFile
{
    format      ascii;
    class       volScalarField;
    location    "6.3";
    object      p;
}
// * * * * * * * * * * * * * * * * * * * * * * * * * * * * * * * * * * * * * //

dimensions      [0 2 -2 0 0 0 0];

internalField   nonuniform List<scalar> 
10100
(
1.30498e-07
9.0304e-05
-0.000110697
-0.000632342
-0.00143549
-0.00247551
-0.00370235
-0.00506653
-0.0065221
-0.00802846
-0.00954957
-0.0110538
-0.012514
-0.0139058
-0.0152084
-0.016404
-0.0174773
-0.0184155
-0.019208
-0.0198457
-0.0203206
-0.0206269
-0.02076
-0.0207167
-0.0204949
-0.0200937
-0.0195129
-0.0187531
-0.0178161
-0.0167046
-0.0154218
-0.0139716
-0.0123586
-0.010588
-0.00866583
-0.00659818
-0.00439179
-0.00205388
0.00040779
0.00298523
0.00567017
0.00845397
0.0113277
0.014282
0.0173072
0.0203935
0.0235304
0.0267076
0.0299146
0.0331412
0.036377
0.0396112
0.0428332
0.046032
0.0491969
0.0523168
0.0553812
0.0583794
0.0613013
0.0641369
0.0668766
0.0695104
0.0720286
0.0744221
0.0766819
0.0787996
0.0807674
0.0825777
0.084224
0.0857003
0.0870014
0.0881229
0.089061
0.0898123
0.0903746
0.0907468
0.0909291
0.0909226
0.0907298
0.0903547
0.0898031
0.089082
0.0882003
0.0871686
0.0859997
0.0847081
0.0833107
0.0818268
0.0802788
0.0786917
0.0770941
0.0755183
0.0740013
0.0725846
0.0713144
0.0702406
0.0694146
0.0688857
0.068696
0.068797
-8.53383e-05
3.14027e-05
-0.000147586
-0.000605348
-0.00129747
-0.00219126
-0.00324926
-0.00443094
-0.00569856
-0.00701668
-0.00835321
-0.00967994
-0.0109713
-0.0122049
-0.0133614
-0.0144236
-0.0153763
-0.0162073
-0.0169057
-0.0174624
-0.0178702
-0.0181228
-0.0182152
-0.018144
-0.0179067
-0.0175022
-0.0169302
-0.0161909
-0.0152855
-0.0142162
-0.0129856
-0.0115972
-0.0100555
-0.00836547
-0.00653236
-0.00456185
-0.0024602
-0.000234111
0.0021092
0.00456214
0.00711685
0.00976509
0.0124984
0.015308
0.0181849
0.0211195
0.0241021
0.0271226
0.0301713
0.0332384
0.036314
0.039388
0.04245
0.04549
0.0484975
0.0514622
0.0543739
0.0572229
0.0599993
0.0626938
0.0652972
0.0678003
0.0701937
0.0724692
0.0746185
0.0766336
0.0785069
0.0802318
0.0818022
0.0832128
0.0844588
0.0855363
0.0864418
0.0871726
0.0877268
0.0881039
0.0883044
0.0883296
0.0881824
0.0878669
0.087389
0.086756
0.0859764
0.0850608
0.0840215
0.0828728
0.0816307
0.0803139
0.0789431
0.0775418
0.0761362
0.0747557
0.0734328
0.0722034
0.0711055
0.0701786
0.06946
0.0689845
0.068797
0.0688983
0.000138938
0.000263838
9.33329e-05
-0.000331863
-0.000961253
-0.00176674
-0.00271636
-0.00377692
-0.00491541
-0.0061008
-0.00730497
-0.00850186
-0.00966794
-0.0107829
-0.0118284
-0.0127883
-0.0136483
-0.0143961
-0.0150211
-0.0155147
-0.0158695
-0.0160796
-0.01614
-0.0160467
-0.0157972
-0.0153902
-0.0148252
-0.0141023
-0.0132226
-0.0121875
-0.0109993
-0.00966127
-0.00817765
-0.00655307
-0.00479247
-0.00290114
-0.000884953
0.00124975
0.00349627
0.00584745
0.00829566
0.010833
0.0134515
0.0161429
0.0188986
0.0217093
0.0245656
0.027458
0.0303773
0.0333141
0.0362589
0.0392021
0.0421339
0.0450443
0.0479237
0.050762
0.0535494
0.0562768
0.0589349
0.0615149
0.0640077
0.0664046
0.0686972
0.0708772
0.072937
0.0748691
0.0766662
0.0783221
0.0798313
0.0811888
0.0823903
0.0834322
0.0843115
0.0850257
0.0855734
0.0859543
0.086169
0.0862192
0.0861077
0.0858389
0.0854186
0.0848539
0.0841534
0.0833274
0.0823876
0.0813478
0.0802234
0.0790318
0.0777927
0.0765275
0.0752603
0.0740176
0.0728287
0.0717246
0.0707376
0.0699006
0.069244
0.068797
0.0686101
0.0687105
0.000725051
0.00079454
0.000595001
0.000166952
-0.000440944
-0.00120279
-0.00209067
-0.00307555
-0.00412862
-0.0052228
-0.00633284
-0.00743503
-0.00850848
-0.00953388
-0.0104943
-0.0113748
-0.012162
-0.0128442
-0.0134111
-0.0138543
-0.0141666
-0.0143424
-0.0143768
-0.0142658
-0.0140068
-0.0135983
-0.0130394
-0.0123305
-0.0114722
-0.0104659
-0.00931357
-0.00801839
-0.00658422
-0.00501528
-0.00331617
-0.00149203
0.00045156
0.00250859
0.00467272
0.0069372
0.00929467
0.0117376
0.0142584
0.0168492
0.0195016
0.0222068
0.0249555
0.027739
0.0305483
0.0333743
0.0362081
0.0390402
0.0418613
0.0446621
0.0474328
0.0501639
0.0528461
0.0554706
0.0580288
0.0605119
0.0629115
0.065219
0.0674265
0.0695263
0.0715109
0.0733732
0.0751061
0.0767041
0.0781619
0.0794749
0.0806391
0.081651
0.0825081
0.0832081
0.08375
0.0841336
0.0843596
0.0844296
0.0843465
0.0841149
0.0837404
0.08323
0.082592
0.0818361
0.0809739
0.0800184
0.0789841
0.0778873
0.076746
0.0755802
0.0744118
0.073265
0.0721656
0.0711411
0.0702197
0.0694298
0.0687978
0.0683506
0.0681363
0.0681861
0.00161815
0.00157222
0.00130527
0.000846143
0.000231447
-0.000514571
-0.00136791
-0.00230318
-0.00329568
-0.00432157
-0.0053583
-0.00638536
-0.00738343
-0.00833495
-0.00922443
-0.0100378
-0.0107627
-0.0113882
-0.0119049
-0.0123044
-0.0125799
-0.0127257
-0.0127371
-0.0126107
-0.0123438
-0.0119346
-0.0113822
-0.0106865
-0.0098483
-0.00886862
-0.00774964
-0.00649432
-0.00510616
-0.00358898
-0.00194711
-0.000185482
0.00169056
0.00367539
0.00576296
0.00794672
0.0102197
0.0125748
0.0150047
0.0175019
0.0200583
0.0226651
0.0253139
0.0279961
0.0307031
0.0334263
0.0361569
0.038886
0.0416046
0.0443036
0.0469735
0.0496052
0.05219
0.0547195
0.0571853
0.0595789
0.0618923
0.0641175
0.0662467
0.0682725
0.0701879
0.0719857
0.0736597
0.0752044
0.076615
0.0778871
0.0790168
0.0800011
0.0808375
0.0815243
0.0820603
0.0824456
0.082681
0.0827679
0.0827095
0.08251
0.0821752
0.0817118
0.0811274
0.0804317
0.0796355
0.078751
0.0777919
0.0767731
0.0757113
0.0746248
0.0735333
0.0724587
0.0714239
0.070453
0.0695705
0.0688008
0.0681675
0.0676945
0.0674194
0.0673659
0.00275902
0.00255693
0.00219189
0.00167711
0.00103189
0.000277091
-0.000565242
-0.00147429
-0.00242839
-0.00340678
-0.00439001
-0.00535967
-0.00629858
-0.00719108
-0.0080229
-0.00878106
-0.00945408
-0.0100319
-0.0105059
-0.0108683
-0.0111124
-0.0112328
-0.0112249
-0.0110856
-0.0108123
-0.010403
-0.00985714
-0.00917428
-0.00835483
-0.00740002
-0.00631197
-0.00509348
-0.00374768
-0.00227818
-0.000689154
0.00101473
0.00282844
0.00474665
0.00676359
0.0088729
0.0110679
0.013342
0.0156882
0.018099
0.0205666
0.0230828
0.0256394
0.0282283
0.0308412
0.0334696
0.0361052
0.0387396
0.0413639
0.0439692
0.0465465
0.049087
0.0515825
0.054025
0.0564061
0.0587178
0.0609524
0.0631023
0.0651599
0.0671183
0.0689703
0.0707095
0.0723297
0.0738259
0.0751935
0.0764282
0.0775265
0.0784854
0.0793029
0.0799772
0.0805074
0.0808934
0.0811361
0.081237
0.0811993
0.0810271
0.0807259
0.080302
0.0797627
0.0791171
0.0783755
0.0775492
0.0766509
0.0756943
0.0746946
0.0736683
0.0726336
0.0716097
0.070617
0.0696764
0.068809
0.0680359
0.0673776
0.0668555
0.0664917
0.0662967
0.00409427
0.00371037
0.00322563
0.00263465
0.00193798
0.00115364
0.000300689
-0.000602654
-0.00153855
-0.00248899
-0.00343704
-0.00436644
-0.00526198
-0.00610968
-0.00689671
-0.00761131
-0.00824287
-0.00878219
-0.00922125
-0.00955299
-0.00977116
-0.00987062
-0.00984725
-0.00969774
-0.0094196
-0.00901128
-0.00847189
-0.00780101
-0.00699905
-0.00606731
-0.00500776
-0.00382292
-0.00251574
-0.00108971
0.000451134
0.00210239
0.00385934
0.00571684
0.00766929
0.00971071
0.0118348
0.0140351
0.0163049
0.0186369
0.0210236
0.0234573
0.02593
0.0284339
0.0309611
0.0335034
0.0360529
0.0386012
0.0411398
0.0436601
0.0461533
0.0486112
0.0510259
0.0533895
0.0556941
0.0579319
0.0600955
0.0621774
0.0641706
0.0660681
0.0678632
0.0695495
0.0711214
0.0725741
0.0739031
0.0751043
0.0761742
0.0771102
0.0779104
0.0785731
0.0790973
0.079483
0.079731
0.0798431
0.0798222
0.0796723
0.0793985
0.0790068
0.078504
0.0778986
0.0772002
0.0764195
0.0755679
0.0746582
0.0737039
0.0727201
0.0717231
0.0707299
0.0697586
0.0688271
0.0679536
0.0671558
0.0664521
0.0658611
0.0653871
0.0650255
0.00557508
0.00499525
0.00437489
0.00369198
0.00292731
0.00209585
0.00121489
0.000299317
-0.00063571
-0.00157503
-0.00250393
-0.00340822
-0.00427457
-0.00509049
-0.00584448
-0.0065261
-0.0071258
-0.00763513
-0.00804663
-0.0083539
-0.0085513
-0.0086341
-0.0085985
-0.00844131
-0.00816023
-0.00775375
-0.00722092
-0.00656142
-0.0057758
-0.00486535
-0.00383187
-0.00267767
-0.00140564
-1.91731e-05
0.00147795
0.00308152
0.00478698
0.00658939
0.00848334
0.0104632
0.0125229
0.0146564
0.0168569
0.0191174
0.0214308
0.0237896
0.0261864
0.0286135
0.0310631
0.0335275
0.035999
0.0384696
0.0409307
0.0433741
0.0457915
0.0481751
0.0505171
0.0528099
0.0550458
0.0572172
0.059317
0.0613382
0.0632736
0.0651166
0.0668607
0.0684998
0.0700287
0.0714425
0.0727371
0.0739083
0.0749529
0.0758684
0.0766529
0.0773047
0.0778229
0.0782073
0.0784589
0.0785795
0.0785718
0.0784395
0.0781874
0.0778209
0.0773465
0.0767721
0.0761066
0.0753599
0.0745425
0.0736656
0.0727418
0.0717847
0.0708086
0.0698287
0.0688606
0.06792
0.0670222
0.066182
0.065416
0.0647403
0.0641406
0.063597
0.00715938
0.00637609
0.00561021
0.00482361
0.00397768
0.00308523
0.00216165
0.00121904
0.000269955
-0.00067276
-0.00159644
-0.00248894
-0.00333855
-0.00413426
-0.00486592
-0.00552426
-0.00610071
-0.00658768
-0.00697848
-0.0072672
-0.00744879
-0.007519
-0.00747424
-0.00731168
-0.00702926
-0.00662547
-0.00609934
-0.00545079
-0.00468047
-0.00378958
-0.00277979
-0.0016534
-0.000413224
0.000937473
0.00239509
0.00395565
0.00561468
0.00736736
0.00920854
0.0111329
0.0131347
0.0152078
0.0173458
0.0195418
0.0217892
0.0240807
0.0264091
0.0287669
0.0311468
0.0335413
0.0359429
0.0383435
0.0407351
0.0431096
0.0454592
0.0477762
0.0500533
0.0522829
0.0544574
0.0565697
0.0586129
0.06058
0.0624641
0.0642586
0.0659574
0.0675549
0.0690457
0.0704252
0.0716892
0.072834
0.0738561
0.0747533
0.0755236
0.0761653
0.0766773
0.0770598
0.0773135
0.0774401
0.0774423
0.0773233
0.0770876
0.07674
0.0762866
0.0757347
0.0750928
0.0743697
0.0735749
0.0727185
0.071812
0.0708673
0.0698974
0.0689156
0.0679354
0.0669702
0.0660328
0.0651356
0.0642938
0.063521
0.0627851
0.0620509
0.00881074
0.00782181
0.00690458
0.00600556
0.00506829
0.00410381
0.00312558
0.00214349
0.00116773
0.000209148
-0.000721563
-0.00161392
-0.00245777
-0.0032436
-0.00396254
-0.00460634
-0.00516746
-0.00563902
-0.00601524
-0.00629088
-0.00646133
-0.00652269
-0.00647173
-0.00630606
-0.00602373
-0.00562328
-0.00510402
-0.00446602
-0.00370997
-0.00283694
-0.00184858
-0.00074727
0.000464191
0.00178278
0.00320507
0.00472712
0.00634451
0.00805262
0.00984666
0.0117215
0.0136715
0.0156906
0.0177726
0.0199111
0.0220994
0.0243308
0.0265981
0.0288943
0.0312121
0.0335443
0.0358835
0.038222
0.0405516
0.042865
0.0451544
0.0474126
0.0496321
0.0518058
0.0539262
0.0559865
0.0579797
0.0598992
0.0617381
0.0634901
0.0651493
0.0667102
0.0681677
0.0695172
0.0707546
0.0718761
0.0728785
0.0737595
0.0745171
0.0751495
0.0756557
0.0760356
0.07629
0.0764206
0.0764296
0.07632
0.0760956
0.0757611
0.075322
0.0747853
0.0741584
0.0734495
0.072667
0.07182
0.0709188
0.0699743
0.0689978
0.0680009
0.0669952
0.0659921
0.0650025
0.0640366
0.0631081
0.0622294
0.0613503
0.0604219
0.0104982
0.00930473
0.00823302
0.00721587
0.00617986
0.00513423
0.00409161
0.00305976
0.00204683
0.0010617
0.000113425
-0.00078897
-0.00163681
-0.00242194
-0.00313668
-0.00377379
-0.00432663
-0.00478928
-0.00515659
-0.00542402
-0.00558745
-0.00564336
-0.00558902
-0.00542229
-0.00514129
-0.00474481
-0.00423258
-0.00360473
-0.00286175
-0.00200483
-0.00103584
4.29082e-05
0.00122881
0.00251893
0.00390986
0.00539767
0.00697812
0.00864681
0.0103991
0.0122301
0.0141341
0.0161054
0.0181379
0.0202255
0.0223617
0.02454
0.0267534
0.0289951
0.0312583
0.0335357
0.03582
0.0381037
0.0403789
0.0426386
0.0448754
0.0470821
0.0492514
0.0513763
0.0534496
0.0554645
0.0574144
0.0592926
0.0610923
0.0628074
0.0644325
0.065962
0.0673908
0.0687145
0.0699288
0.0710302
0.0720156
0.0728826
0.0736291
0.0742532
0.0747537
0.0751306
0.0753847
0.0755174
0.0755304
0.0754264
0.075209
0.0748823
0.0744516
0.0739232
0.0733038
0.0726006
0.0718212
0.0709737
0.0700674
0.0691122
0.0681179
0.0670945
0.066052
0.065
0.0639477
0.0629036
0.0618804
0.0608891
0.059863
0.0587396
0.0121952
0.0107996
0.00957276
0.00843418
0.00729361
0.00616007
0.00504531
0.00395519
0.00289622
0.00187563
0.000900931
-2.03286e-05
-0.000880721
-0.00167323
-0.00239126
-0.00302866
-0.00357963
-0.00403918
-0.00440279
-0.0046664
-0.00482648
-0.0048801
-0.00482486
-0.00465871
-0.00438018
-0.00398844
-0.00348324
-0.0028648
-0.00213376
-0.00129142
-0.000339694
0.000719112
0.00188249
0.00314759
0.00451101
0.00596882
0.00751691
0.00915111
0.010867
0.0126596
0.0145235
0.016453
0.0184423
0.0204854
0.0225762
0.0247082
0.0268747
0.0290691
0.0312848
0.0335146
0.0357513
0.0379874
0.0402157
0.0424291
0.0446206
0.0467829
0.048909
0.050992
0.053025
0.0550013
0.0569142
0.0587571
0.0605235
0.0622075
0.0638037
0.0653067
0.0667113
0.0680131
0.0692081
0.0702926
0.0712636
0.0721188
0.0728557
0.0734724
0.0739677
0.0743414
0.0745943
0.0747273
0.0747419
0.0746403
0.0744258
0.0741024
0.0736748
0.0731487
0.07253
0.0718249
0.0710402
0.0701836
0.0692632
0.0682878
0.0672661
0.0662064
0.0651174
0.0640074
0.062884
0.0617541
0.0606299
0.0595216
0.0583464
0.0570293
0.0138789
0.0122849
0.0109035
0.00964109
0.00839231
0.0071658
0.00597273
0.00481744
0.00370505
0.00264151
0.00163283
0.000685214
-0.000195034
-0.00100195
-0.00172991
-0.00237374
-0.00292863
-0.0033902
-0.00375461
-0.0040184
-0.00417852
-0.00423258
-0.00417852
-0.00401452
-0.00373944
-0.00335285
-0.00285461
-0.00224487
-0.00152453
-0.000695153
0.000241309
0.00128273
0.00242668
0.00367018
0.00500977
0.00644165
0.00796193
0.00956656
0.0112511
0.0130107
0.01484
0.0167336
0.0186859
0.0206909
0.0227428
0.0248351
0.0269615
0.0291157
0.031291
0.0334802
0.0356763
0.0378721
0.0400606
0.0422349
0.0443881
0.0465131
0.0486029
0.0506509
0.0526502
0.0545943
0.0564764
0.0582901
0.0600289
0.0616873
0.0632599
0.0647412
0.0661261
0.06741
0.068589
0.0696599
0.0706193
0.0714647
0.0721937
0.0728041
0.0732947
0.0736652
0.0739162
0.074048
0.0740618
0.0739598
0.0737449
0.0734209
0.0729919
0.0724626
0.0718384
0.0711247
0.0703277
0.0694543
0.0685119
0.0675082
0.0664506
0.0653464
0.0642028
0.0630272
0.0618259
0.0606044
0.0593745
0.0581461
0.0568212
0.0553129
0.0155301
0.0137419
0.0122068
0.0108197
0.00946015
0.00813678
0.00686066
0.00563476
0.00446295
0.00335001
0.0023009
0.0013206
0.000414266
-0.000413087
-0.00115679
-0.00181247
-0.00237629
-0.00284445
-0.00321356
-0.00348093
-0.0036442
-0.00370115
-0.00364989
-0.00348927
-0.00321862
-0.00283746
-0.00234568
-0.00174383
-0.00103312
-0.000215145
0.000708269
0.00173499
0.00286245
0.0040876
0.00540702
0.00681709
0.00831404
0.00989381
0.011552
0.0132838
0.0150841
0.0169476
0.0188688
0.020842
0.0228611
0.0249203
0.0270135
0.0291343
0.0312759
0.0334314
0.0355938
0.0377563
0.0399122
0.0420545
0.0441763
0.0462707
0.048331
0.0503507
0.052323
0.0542411
0.0560985
0.0578888
0.0596058
0.0612442
0.0627983
0.0642626
0.065632
0.0669019
0.0680689
0.0691292
0.0700798
0.0709177
0.0716403
0.0722456
0.0727322
0.0730998
0.0733481
0.0734776
0.073489
0.0733843
0.0731663
0.0728381
0.0724035
0.0718663
0.071231
0.0705029
0.0696874
0.0687908
0.0678196
0.0667805
0.0656798
0.0645239
0.0633192
0.0620719
0.0607872
0.0594694
0.0581305
0.0567799
0.0553056
0.0536092
0.017132
0.0151537
0.0134667
0.0119545
0.0104825
0.0090595
0.00769669
0.00639592
0.00515983
0.00399223
0.00289718
0.00187869
0.000940941
8.80315e-05
-0.000676456
-0.00134891
-0.00192584
-0.00240429
-0.00278172
-0.00305586
-0.00322464
-0.00328629
-0.0032395
-0.00308348
-0.00281768
-0.00244179
-0.00195604
-0.00136135
-0.000659061
0.000149312
0.00106195
0.00207654
0.00319039
0.00440044
0.00570342
0.00709577
0.00857372
0.0101332
0.0117698
0.013479
0.0152558
0.0170949
0.0189909
0.0209381
0.0229309
0.0249635
0.0270299
0.0291238
0.0312384
0.0333669
0.0355026
0.0376389
0.0397689
0.041886
0.0439832
0.0460539
0.0480915
0.0500895
0.052041
0.0539393
0.055778
0.0575507
0.0592518
0.0608754
0.062416
0.063868
0.0652262
0.0664865
0.067645
0.0686982
0.0696426
0.0704751
0.0711933
0.0717949
0.0722785
0.0726432
0.0728887
0.0730149
0.0730226
0.0729134
0.0726899
0.0723547
0.0719107
0.0713612
0.0707104
0.0699628
0.0691236
0.0681982
0.0671923
0.0661116
0.0649618
0.0637483
0.0624769
0.0611529
0.0597804
0.0583629
0.0569124
0.0554385
0.0538157
0.0519346
0.0186696
0.0165052
0.0146683
0.0130313
0.011446
0.00992129
0.00846896
0.00708995
0.00578572
0.00455917
0.00341366
0.00235247
0.00137869
0.000495507
-0.000293983
-0.00098704
-0.00158086
-0.00207307
-0.00246176
-0.00274514
-0.00292149
-0.00298952
-0.00294848
-0.0027978
-0.00253702
-0.00216618
-0.00168598
-0.00109757
-0.000402239
0.000398474
0.00130257
0.00230758
0.00341073
0.00460904
0.00589928
0.00727792
0.0087411
0.0102848
0.0119047
0.0135964
0.0153551
0.0171754
0.0190518
0.0209791
0.0229517
0.0249641
0.0270101
0.0290835
0.0311775
0.0332856
0.0354014
0.0375183
0.0396293
0.0417277
0.0438071
0.0458607
0.0478822
0.0498649
0.0518019
0.0536865
0.0555124
0.0572737
0.0589643
0.0605784
0.0621105
0.0635549
0.0649065
0.0661612
0.0673152
0.0683645
0.0693055
0.0701351
0.0708508
0.0714503
0.0719319
0.0722943
0.0725369
0.0726594
0.0726624
0.0725474
0.0723164
0.0719715
0.0715149
0.0709497
0.0702794
0.0695083
0.0686407
0.0676816
0.0666359
0.0655085
0.0643043
0.0630285
0.0616858
0.060281
0.0588172
0.0572973
0.0557333
0.0541356
0.0523656
0.0503031
0.0201295
0.0177834
0.0157984
0.0140371
0.012338
0.0107105
0.0091664
0.0077062
0.00633069
0.00504196
0.00384231
0.00273442
0.00172079
0.000803647
-1.45967e-05
-0.000731594
-0.00134539
-0.0018543
-0.00225677
-0.00255138
-0.00273697
-0.0028128
-0.00277841
-0.00263338
-0.00237759
-0.00201156
-0.00153631
-0.00095302
-0.000262992
0.000532059
0.00142989
0.00242788
0.00352333
0.00471331
0.00599455
0.0073634
0.00881598
0.0103483
0.0119564
0.0136359
0.0153816
0.0171884
0.0190511
0.0209643
0.0229229
0.0249212
0.026953
0.0290121
0.0310921
0.0331865
0.0352891
0.037393
0.0394914
0.0415779
0.0436461
0.0456894
0.0477013
0.049675
0.0516036
0.0534806
0.0552998
0.0570553
0.0587409
0.0603508
0.0618793
0.0633209
0.0646706
0.0659241
0.0670773
0.068126
0.0690666
0.0698959
0.0706114
0.0712105
0.0716913
0.0720523
0.0722923
0.0724111
0.0724089
0.072287
0.0720468
0.0716899
0.0712182
0.0706343
0.0699414
0.0691432
0.0682435
0.0672465
0.0661565
0.0649779
0.0637153
0.0623729
0.0609553
0.0594662
0.0579083
0.0562837
0.0546053
0.0528835
0.0509674
0.0487266
0.0215003
0.0189759
0.0168451
0.0149602
0.0131473
0.0114159
0.00977848
0.00823502
0.00678559
0.00543167
0.00417499
0.00301728
0.00196041
0.00100623
0.00015636
-0.000587499
-0.00122401
-0.00175191
-0.00217008
-0.00247758
-0.00267384
-0.0027585
-0.00273121
-0.00259187
-0.00234094
-0.00197937
-0.00150822
-0.000928619
-0.000242092
0.000549304
0.00144313
0.00243683
0.00352773
0.00471283
0.00598871
0.00735162
0.00879782
0.0103235
0.0119246
0.0135967
0.0153347
0.0171335
0.018988
0.0208932
0.0228437
0.0248338
0.0268574
0.0289086
0.030981
0.0330683
0.035164
0.0372613
0.0393538
0.0414349
0.0434985
0.0455379
0.0475466
0.0495175
0.0514439
0.0533194
0.0551379
0.0568933
0.0585795
0.0601904
0.0617205
0.0631642
0.0645167
0.0657732
0.0669294
0.0679811
0.0689245
0.0697564
0.0704741
0.0710749
0.0715564
0.0719169
0.0721551
0.0722704
0.0722628
0.0721332
0.0718825
0.071512
0.0710233
0.0704184
0.0697003
0.068872
0.0679369
0.0668985
0.0657606
0.0645272
0.0632024
0.0617901
0.0602943
0.0587181
0.0570638
0.0553329
0.053539
0.0516932
0.0496322
0.0472158
0.0227712
0.0200721
0.0177976
0.0157897
0.013863
0.0120272
0.0102953
0.00866683
0.00714149
0.00572007
0.0044037
0.00319356
0.00209091
0.00109708
0.000213131
-0.000560033
-0.00122141
-0.00177008
-0.00220545
-0.00252724
-0.00273525
-0.00282922
-0.00280913
-0.00267549
-0.00242926
-0.00207146
-0.00160313
-0.00102562
-0.000340848
0.000448912
0.00134122
0.00233354
0.0034231
0.00460668
0.00588076
0.0072417
0.00868587
0.0102095
0.0118084
0.013478
0.0152134
0.0170097
0.0188618
0.0207646
0.0227128
0.0247006
0.0267222
0.0287717
0.0308429
0.0329293
0.0350245
0.0371217
0.0392147
0.041297
0.0433625
0.0454044
0.0474159
0.0493903
0.0513207
0.0532009
0.0550246
0.0567857
0.0584778
0.0600951
0.061632
0.063083
0.0644429
0.0657068
0.0668701
0.0679285
0.0688781
0.0697157
0.0704383
0.071043
0.0715272
0.0718886
0.072126
0.0722383
0.0722256
0.0720879
0.071826
0.0714407
0.0709334
0.0703057
0.0695602
0.0686994
0.0677261
0.0666434
0.0654546
0.0641633
0.0627734
0.0612884
0.0597116
0.0580461
0.0562933
0.0544547
0.0525445
0.0505747
0.04837
0.0457802
0.0239328
0.021062
0.0186453
0.0165155
0.0144749
0.0125343
0.0107072
0.00899247
0.00738952
0.00589873
0.0045206
0.0032559
0.00210547
0.00106985
0.000149631
-0.000654673
-0.00134242
-0.00191325
-0.00236719
-0.00270426
-0.00292446
-0.00302787
-0.00301506
-0.00288708
-0.00264501
-0.00228986
-0.00182289
-0.00124589
-0.000561059
0.000229308
0.0011228
0.00211672
0.00320807
0.00439348
0.00566948
0.00703255
0.00847906
0.0100051
0.0116065
0.0132786
0.0150166
0.0168158
0.0186711
0.0205772
0.0225288
0.0245204
0.0265461
0.0286001
0.0306763
0.0327681
0.034869
0.0369725
0.0390724
0.0411624
0.0432361
0.0452867
0.0473073
0.0492914
0.051232
0.053123
0.0549578
0.0567302
0.058434
0.0600631
0.0616122
0.0630755
0.0644475
0.0657233
0.0668979
0.067967
0.0689266
0.0697732
0.0705038
0.071115
0.0716038
0.071968
0.0722058
0.0723163
0.0722987
0.0721531
0.0718796
0.0714789
0.070952
0.0703002
0.0695256
0.0686302
0.0676166
0.0664872
0.065245
0.0638935
0.062436
0.0608757
0.0592157
0.0574586
0.0556057
0.0536582
0.0516312
0.0495373
0.0471897
0.0444284
0.0249765
0.0219361
0.0193788
0.0171278
0.0149735
0.0129277
0.0110047
0.00920286
0.007521
0.00595927
0.00451787
0.00319702
0.00199696
0.000917828
-4.01983e-05
-0.00087691
-0.00159226
-0.00218645
-0.00265983
-0.00301262
-0.00324511
-0.00335801
-0.00335248
-0.00322973
-0.00299081
-0.00263695
-0.00216989
-0.00159176
-0.000904802
-0.000111315
0.000786143
0.00178461
0.00288088
0.00407159
0.00535338
0.00672274
0.00817593
0.0097089
0.0113174
0.012997
0.0147429
0.0165505
0.0184144
0.0203294
0.0222903
0.0242914
0.0263273
0.0283921
0.0304794
0.0325827
0.0346957
0.0368119
0.0389252
0.0410291
0.0431173
0.0451828
0.0472188
0.0492188
0.0511759
0.0530836
0.0549355
0.0567251
0.0584462
0.0600928
0.0616594
0.0631401
0.0645293
0.0658215
0.0670119
0.0680959
0.0690694
0.0699288
0.0706704
0.0712908
0.0717867
0.0721557
0.0723958
0.0725056
0.0724842
0.0723311
0.0720462
0.0716298
0.0710826
0.0704057
0.0696007
0.0686694
0.0676136
0.0664357
0.0651383
0.0637245
0.0621972
0.0605596
0.0588144
0.0569639
0.0550094
0.0529519
0.0508073
0.0485893
0.0460992
0.0431677
0.0258941
0.0226857
0.0199889
0.0176172
0.0153496
0.0131985
0.0111789
0.00928906
0.0075274
0.00589364
0.00438768
0.00300932
0.00175827
0.000634421
-0.000362444
-0.00123258
-0.00197653
-0.00259482
-0.00308797
-0.00345653
-0.00370137
-0.00382377
-0.00382512
-0.00370661
-0.00346954
-0.00311562
-0.00264697
-0.00206579
-0.00137435
-0.000575096
0.000329099
0.00133504
0.00243949
0.00363918
0.00493073
0.00631053
0.00777465
0.00931903
0.0109395
0.0126316
0.0143907
0.0162119
0.0180899
0.0200194
0.0219953
0.0240121
0.0260643
0.0281458
0.0302503
0.0323714
0.0345028
0.0366382
0.0387711
0.0408954
0.0430042
0.0450908
0.0471485
0.0491706
0.0511504
0.0530811
0.054956
0.0567687
0.0585129
0.0601827
0.0617724
0.0632757
0.0646869
0.0660005
0.0672113
0.0683147
0.0693063
0.0701821
0.0709382
0.0715708
0.0720765
0.0724527
0.0726971
0.072808
0.072784
0.0726244
0.0723286
0.0718967
0.071329
0.0706264
0.0697903
0.0688218
0.0677228
0.066495
0.0651407
0.0636628
0.0620641
0.0603474
0.0585152
0.0565698
0.0545124
0.0523438
0.050081
0.0477384
0.045106
0.0420051
0.0266775
0.0233024
0.0204669
0.0179749
0.0155942
0.0133377
0.011221
0.00924255
0.00740031
0.0056937
0.00412217
0.00268522
0.00138234
0.000213016
-0.000823443
-0.00172783
-0.00250095
-0.00314351
-0.00365639
-0.00404069
-0.00429787
-0.0044294
-0.00443668
-0.00432114
-0.0040846
-0.0037292
-0.00325716
-0.00267072
-0.00197226
-0.0011646
-0.000250905
0.000765582
0.00188169
0.00309414
0.00439944
0.00579377
0.00727314
0.00883351
0.0104708
0.0121805
0.013958
0.0157981
0.0176956
0.0196452
0.021642
0.0236804
0.0257548
0.0278592
0.0299871
0.0321323
0.0342885
0.0364493
0.0386084
0.0407591
0.0428948
0.0450089
0.0470946
0.0491453
0.0511539
0.0531136
0.0550177
0.0568595
0.0586328
0.0603316
0.0619498
0.0634812
0.0649197
0.0662596
0.0674957
0.0686231
0.0696371
0.0705333
0.0713074
0.0719555
0.0724741
0.0728602
0.0731114
0.0732255
0.0732007
0.0730357
0.0727299
0.072283
0.0716951
0.0709668
0.0700991
0.069093
0.0679497
0.0666709
0.0652586
0.0637153
0.0620437
0.0602465
0.0583258
0.0562842
0.0541224
0.0518417
0.0494599
0.0469922
0.0442173
0.040947
0.0273188
0.0237781
0.0208043
0.0181923
0.0156985
0.0133364
0.0111224
0.00905484
0.00713142
0.00535122
0.00371345
0.00221734
0.00086215
-0.000353223
-0.00142986
-0.00236886
-0.00317119
-0.0038379
-0.00437041
-0.00477036
-0.00503943
-0.00517914
-0.00519108
-0.00507721
-0.00483984
-0.00448124
-0.00400367
-0.00340949
-0.00270151
-0.00188284
-0.000956743
7.35984e-05
0.00120502
0.00243408
0.00375707
0.00517005
0.00666907
0.00825015
0.00990915
0.0116416
0.0134425
0.0153068
0.0172292
0.0192047
0.0212282
0.0232942
0.0253968
0.0275301
0.0296876
0.0318633
0.0340506
0.0362434
0.0384348
0.0406183
0.0427874
0.0449353
0.0470555
0.0491411
0.0511848
0.0531798
0.0551191
0.0569963
0.0588048
0.0605384
0.0621909
0.0637558
0.0652269
0.0665984
0.0678649
0.0690211
0.070062
0.0709827
0.0717788
0.072446
0.0729808
0.07338
0.0736408
0.0737604
0.0737368
0.0735682
0.0732537
0.0727927
0.0721852
0.0714316
0.0705324
0.0694883
0.0683003
0.0669697
0.0654984
0.0638888
0.0621432
0.0602641
0.0582538
0.0561144
0.0538472
0.0514532
0.0489513
0.0463577
0.0434397
0.0399996
0.0278105
0.0241047
0.0209931
0.018261
0.0156538
0.013186
0.0108746
0.00871746
0.00671235
0.00485815
0.00315385
0.00159834
0.0001904
-0.00107139
-0.00218839
-0.00316187
-0.00399316
-0.00468385
-0.00523581
-0.00565091
-0.00593087
-0.00607743
-0.00609272
-0.0059792
-0.00573934
-0.00537544
-0.00488992
-0.00428558
-0.00356557
-0.00273313
-0.00179146
-0.000743722
0.000406725
0.0016562
0.00300083
0.0044367
0.00595994
0.00756653
0.00925219
0.0110122
0.0128417
0.0147354
0.0166884
0.0186956
0.0207516
0.022851
0.0249878
0.027156
0.0293495
0.031562
0.033787
0.036018
0.0382482
0.0404709
0.0426798
0.0448682
0.0470294
0.0491563
0.0512416
0.0532781
0.0552591
0.0571779
0.0590278
0.0608023
0.0624949
0.0640991
0.0656085
0.0670171
0.0683192
0.0695092
0.0705815
0.0715311
0.0723533
0.0730437
0.0735985
0.0740142
0.0742875
0.0744154
0.0743952
0.074225
0.0739035
0.07343
0.0728041
0.0720258
0.0710955
0.0700134
0.0687804
0.0673976
0.0658667
0.0641899
0.0623694
0.0604074
0.0583061
0.0560678
0.0536937
0.0511852
0.0485621
0.0458415
0.0427793
0.0391685
0.0281453
0.0242743
0.0210247
0.0181726
0.0154519
0.0128781
0.0104689
0.00822201
0.00613498
0.00420666
0.00243567
0.000820534
-0.000640372
-0.00194857
-0.00310569
-0.00411331
-0.00497328
-0.00568765
-0.00625847
-0.00668765
-0.00697716
-0.00712925
-0.00714656
-0.00703174
-0.00678729
-0.00641572
-0.00591988
-0.00530296
-0.00456826
-0.00371896
-0.00275825
-0.0016895
-0.00051635
0.000757358
0.00212773
0.00359094
0.00514308
0.00677996
0.00849709
0.0102897
0.0121528
0.0140815
0.0160707
0.0181152
0.0202096
0.0223482
0.0245251
0.0267346
0.0289704
0.0312261
0.0334951
0.0357707
0.038046
0.0403147
0.0425702
0.0448057
0.0470145
0.0491892
0.0513224
0.0534071
0.0554364
0.0574032
0.0593009
0.0611225
0.0628613
0.0645107
0.0660642
0.0675156
0.0688588
0.0700877
0.0711963
0.0721795
0.0730322
0.0737501
0.0743289
0.0747648
0.0750539
0.0751929
0.0751788
0.0750094
0.0746832
0.074199
0.0735562
0.0727544
0.0717935
0.0706738
0.0693959
0.0679608
0.0663701
0.0646256
0.0627294
0.0606834
0.05849
0.0561515
0.0536693
0.0510449
0.0482992
0.0454502
0.0422424
0.0384591
0.0283159
0.0242791
0.0208913
0.017919
0.0150846
0.0124044
0.00989714
0.00756034
0.00539136
0.0033888
0.00155098
-0.000123916
-0.00163761
-0.00299188
-0.00418869
-0.00523012
-0.00611839
-0.00685571
-0.00744422
-0.00788612
-0.00818383
-0.00834011
-0.00835778
-0.00823956
-0.00798817
-0.00760657
-0.00709804
-0.00646594
-0.00571351
-0.00484394
-0.00386063
-0.00276727
-0.00156769
-0.000265749
0.00113472
0.00262986
0.00421557
0.00588744
0.00764084
0.00947107
0.0113733
0.0133425
0.0153735
0.017461
0.0195994
0.021783
0.0240063
0.0262632
0.0285475
0.0308528
0.0331721
0.0354988
0.037826
0.0401474
0.0424562
0.0447457
0.0470087
0.0492378
0.0514258
0.0535654
0.0556495
0.0576711
0.059623
0.061498
0.0632894
0.0649902
0.0665939
0.0680939
0.0694838
0.0707569
0.0719071
0.0729289
0.0738171
0.074567
0.0751741
0.075634
0.0759425
0.0760959
0.076091
0.0759253
0.0755969
0.0751043
0.0744464
0.0736224
0.072632
0.0714754
0.0701531
0.068666
0.0670153
0.0652028
0.0632301
0.0610993
0.0588127
0.0563728
0.0537812
0.0510395
0.0481695
0.0451905
0.0418351
0.0378774
0.0283152
0.0241116
0.0205849
0.0174919
0.0145434
0.0117565
0.00915103
0.00672428
0.00447327
0.00239631
0.000491606
-0.00124282
-0.00280888
-0.0042088
-0.00544488
-0.0065196
-0.00743533
-0.00819439
-0.00879922
-0.00925245
-0.00955697
-0.00971574
-0.00973166
-0.00960769
-0.009347
-0.00895302
-0.00842921
-0.00777889
-0.00700534
-0.00611196
-0.0051025
-0.00398087
-0.00275092
-0.00141646
1.86328e-05
0.00155028
0.00317417
0.00488575
0.0066804
0.00855348
0.0105002
0.0125154
0.0145938
0.0167299
0.0189181
0.0211528
0.0234285
0.0257391
0.0280783
0.0304393
0.0328154
0.0351997
0.0375856
0.0399665
0.0423356
0.0446857
0.0470097
0.0493001
0.0515497
0.0537512
0.0558972
0.0579802
0.0599929
0.061928
0.0637784
0.0655371
0.0671973
0.0687521
0.0701944
0.0715174
0.0727147
0.0737805
0.0747094
0.0754962
0.0761361
0.0766242
0.0769561
0.0771276
0.0771353
0.0769766
0.0766489
0.0761505
0.0754795
0.0746351
0.0736167
0.0724244
0.0710585
0.0695198
0.0678094
0.0659285
0.0638788
0.0616624
0.0592817
0.0567394
0.0540369
0.0511762
0.0481804
0.0450693
0.0415641
0.037429
0.0281357