/*--------------------------------*- C++ -*----------------------------------*\
  =========                 |
  \\      /  F ield         | OpenFOAM: The Open Source CFD Toolbox
   \\    /   O peration     | Website:  https://openfoam.org
    \\  /    A nd           | Version:  11
     \\/     M anipulation  |
\*---------------------------------------------------------------------------*/
FoamFile
{
    format      ascii;
    class       surfaceScalarField;
    location    "6.3";
    object      phi;
}
// * * * * * * * * * * * * * * * * * * * * * * * * * * * * * * * * * * * * * //

dimensions      [0 3 -1 0 0 0 0];

internalField   nonuniform List<scalar> 
19980
(
6.85328e-07
-6.85799e-07
2.25804e-06
-1.57271e-06
3.90188e-06
-1.64374e-06
5.14013e-06
-1.23821e-06
5.69371e-06
-5.53576e-07
5.39424e-06
2.99429e-07
4.15253e-06
1.24174e-06
1.93178e-06
2.22056e-06
-1.26909e-06
3.201e-06
-5.42855e-06
4.15952e-06
-1.05088e-05
5.08027e-06
-1.64615e-05
5.95284e-06
-2.32321e-05
6.7705e-06
-3.07603e-05
7.5282e-06
-3.89834e-05
8.22317e-06
-4.78365e-05
8.85312e-06
-5.72541e-05
9.4177e-06
-6.7171e-05
9.91699e-06
-7.75221e-05
1.0351e-05
-8.8243e-05
1.07209e-05
-9.92708e-05
1.10278e-05
-0.000110544
1.12725e-05
-0.000122
1.14568e-05
-0.000133583
1.15824e-05
-0.000145234
1.16507e-05
-0.000156897
1.16631e-05
-0.000168518
1.16217e-05
-0.000180047
1.15282e-05
-0.000191432
1.13848e-05
-0.000202625
1.11935e-05
-0.000213581
1.09561e-05
-0.000224256
1.06744e-05
-0.000234606
1.03505e-05
-0.000244593
9.98678e-06
-0.000254179
9.58536e-06
-0.000263327
9.14837e-06
-0.000272005
8.67779e-06
-0.00028018
8.17552e-06
-0.000287824
7.64375e-06
-0.000294909
7.08475e-06
-0.000301409
6.50058e-06
-0.000307303
5.89319e-06
-0.000312567
5.26443e-06
-0.000317183
4.6163e-06
-0.000321134
3.95102e-06
-0.000324405
3.27091e-06
-0.000326984
2.57853e-06
-0.00032886
1.87645e-06
-0.000330027
1.16703e-06
-0.00033048
4.52262e-07
-0.000330214
-2.65974e-07
-0.000329228
-9.8535e-07
-0.000327525
-1.70336e-06
-0.000325108
-2.41758e-06
-0.000321982
-3.12517e-06
-0.000318159
-3.82319e-06
-0.00031365
-4.50925e-06
-0.000308469
-5.18098e-06
-0.000302633
-5.83574e-06
-0.000296162
-6.47137e-06
-0.000289076
-7.08588e-06
-0.000281399
-7.67645e-06
-0.000273159
-8.24001e-06
-0.000264385
-8.77389e-06
-0.00025511
-9.27539e-06
-0.000245368
-9.74143e-06
-0.000235199
-1.01691e-05
-0.000224643
-1.05562e-05
-0.000213743
-1.09002e-05
-0.000202544
-1.11986e-05
-0.000191095
-1.14495e-05
-0.000179444
-1.16507e-05
-0.000167644
-1.18002e-05
-0.000155749
-1.18953e-05
-0.000143815
-1.19337e-05
-0.000131902
-1.19134e-05
-0.000120069
-1.18323e-05
-0.000108381
-1.16886e-05
-9.69002e-05
-1.14805e-05
-8.56934e-05
-1.12068e-05
-7.48265e-05
-1.08668e-05
-6.43668e-05
-1.04597e-05
-5.43814e-05
-9.98541e-06
-4.49372e-05
-9.44417e-06
-3.61004e-05
-8.83675e-06
-2.7936e-05
-8.16434e-06
-2.05074e-05
-7.42861e-06
-1.38754e-05
-6.63208e-06
-8.09675e-06
-5.7786e-06
-3.22308e-06
-4.87362e-06
7.01635e-07
-3.92471e-06
3.64431e-06
-2.94268e-06
5.58774e-06
-1.94342e-06
6.53841e-06
-9.50644e-07
6.53884e-06
-4.18403e-10
5.68698e-06
8.51868e-07
4.16749e-06
1.51954e-06
2.30465e-06
1.8629e-06
6.53495e-07
1.65117e-06
6.53475e-07
1.72664e-06
-2.41259e-06
4.59011e-06
-4.43607e-06
7.17489e-06
-4.22864e-06
8.59207e-06
-2.65527e-06
8.22421e-06
-1.85879e-07
5.66923e-06
2.85471e-06
6.84503e-07
6.22634e-06
-6.84875e-06
9.75409e-06
-1.69635e-05
1.33155e-05
-2.96267e-05
1.68226e-05
-4.47605e-05
2.02141e-05
-6.2254e-05
2.34463e-05
-8.19718e-05
2.64884e-05
-0.000103763
2.93195e-05
-0.000127465
3.19248e-05
-0.000152907
3.4295e-05
-0.000179914
3.64252e-05
-0.00020831
3.83123e-05
-0.000237915
3.99564e-05
-0.000268553
4.13594e-05
-0.00030005
4.25239e-05
-0.000332231
4.34537e-05
-0.000364927
4.41538e-05
-0.000397974
4.46294e-05
-0.00043121
4.48859e-05
-0.000464476
4.49298e-05
-0.000497622
4.47675e-05
-0.0005305
4.4406e-05
-0.000562967
4.38527e-05
-0.000594889
4.31148e-05
-0.000626132
4.21998e-05
-0.000656573
4.11149e-05
-0.00068609
3.98681e-05
-0.000714571
3.84675e-05
-0.000741907
3.69213e-05
-0.000767996
3.52374e-05
-0.000792742
3.34236e-05
-0.000816055
3.14879e-05
-0.000837849
2.94383e-05
-0.000858047
2.7283e-05
-0.000876576
2.50301e-05
-0.000893371
2.26874e-05
-0.000908369
2.0263e-05
-0.000921518
1.77648e-05
-0.000932768
1.52013e-05
-0.000942079
1.25814e-05
-0.000949415
9.91428e-06
-0.000954748
7.20901e-06
-0.000958055
4.47446e-06
-0.000959322
1.71926e-06
-0.00095854
-1.04819e-06
-0.000955706
-3.81912e-06
-0.000950825
-6.584e-06
-0.00094391
-9.33301e-06
-0.000934979
-1.20563e-05
-0.000924058
-1.47436e-05
-0.000911183
-1.73849e-05
-0.000896393
-1.99706e-05
-0.000879737
-2.24914e-05
-0.000861271
-2.49377e-05
-0.000841056
-2.72999e-05
-0.000819165
-2.95681e-05
-0.000795673
-3.17318e-05
-0.000770667
-3.37801e-05
-0.00074424
-3.57025e-05
-0.000716492
-3.74888e-05
-0.000687533
-3.91286e-05
-0.000657477
-4.06122e-05
-0.000626447
-4.19301e-05
-0.000594572
-4.30735e-05
-0.000561988
-4.40336e-05
-0.000528837
-4.48019e-05
-0.000495267
-4.53701e-05
-0.000461433
-4.57298e-05
-0.000427493
-4.58729e-05
-0.000393615
-4.57921e-05
-0.000359967
-4.54804e-05
-0.000326724
-4.49316e-05
-0.000294063
-4.41406e-05
-0.000262167
-4.31032e-05
-0.000231217
-4.18167e-05
-0.000201397
-4.02796e-05
-0.000172891
-3.84921e-05
-0.000145879
-3.6456e-05
-0.00012054
-3.41754e-05
-9.70481e-05
-3.16562e-05
-7.55693e-05
-2.89074e-05
-5.62596e-05
-2.59418e-05
-3.92611e-05
-2.27771e-05
-2.4697e-05
-1.94378e-05
-1.26646e-05
-1.59571e-05
-3.22591e-06
-1.23813e-05
3.60556e-06
-8.77486e-06
7.88294e-06
-5.2281e-06
9.75211e-06
-1.86963e-06
9.48784e-06
1.11614e-06
7.54257e-06
3.46479e-06
4.60488e-06
4.80056e-06
1.64892e-06
4.60712e-06
2.30237e-06
1.96444e-06
-4.37693e-06
4.83219e-06
-7.30391e-06
6.83043e-06
-6.22687e-06
6.837e-06
-2.66179e-06
4.05935e-06
2.59185e-06
-2.04579e-06
8.95965e-06
-1.1818e-05
1.59986e-05
-2.54403e-05
2.33764e-05
-4.29733e-05
3.08487e-05
-6.43858e-05
3.82352e-05
-8.95758e-05
4.54041e-05
-0.000118389
5.22597e-05
-0.000150633
5.87321e-05
-0.000186085
6.47717e-05
-0.000224503
7.0343e-05
-0.000265631
7.54226e-05
-0.000309201
7.99953e-05
-0.000354942
8.40531e-05
-0.000402578
8.75929e-05
-0.000451834
9.06154e-05
-0.000502436
9.31256e-05
-0.000554113
9.51301e-05
-0.000606596
9.66377e-05
-0.000659626
9.76589e-05
-0.000712946
9.82055e-05
-0.000766306
9.82902e-05
-0.000819466
9.79269e-05
-0.00087219
9.71301e-05
-0.000924253
9.59153e-05
-0.000975436
9.42981e-05
-0.00102553
9.22942e-05
-0.00107434
8.99201e-05
-0.00112166
8.71926e-05
-0.00116732
8.41287e-05
-0.00121115
8.07459e-05
-0.00125297
7.70614e-05
-0.00129264
7.30924e-05
-0.00133001
6.88564e-05
-0.00136494
6.4371e-05
-0.00139731
5.9654e-05
-0.001427
5.47231e-05
-0.00145391
4.95959e-05
-0.00147794
4.42902e-05
-0.001499
3.88242e-05
-0.00151701
3.32164e-05
-0.00153192
2.74856e-05
-0.00154366
2.16515e-05
-0.00155218
1.57335e-05
-0.00155746
9.75117e-06
-0.00155946
3.72352e-06
-0.00155818
-2.32995e-06
-0.00155361
-8.38922e-06
-0.00154576
-1.4434e-05
-0.00153465
-2.04432e-05
-0.00152031
-2.63955e-05
-0.00150278
-3.22692e-05
-0.00148213
-3.80428e-05
-0.0014584
-4.36948e-05
-0.00143169
-4.92038e-05
-0.00140208
-5.45487e-05
-0.00136967
-5.97079e-05
-0.00133458
-6.46592e-05
-0.00129693
-6.93801e-05
-0.00125686
-7.38481e-05
-0.00121453
-7.80409e-05
-0.00117008
-8.1936e-05
-0.0011237
-8.55116e-05
-0.00107556
-8.87467e-05
-0.00102587
-9.16206e-05
-0.00097483
-9.41137e-05
-0.000922657
-9.62065e-05
-0.000869578
-9.78806e-05
-0.00081583
-9.9118e-05
-0.000761659
-9.99014e-05
-0.000707317
-0.000100214
-0.000653067
-0.000100042
-0.000599178
-9.937e-05
-0.000545922
-9.81869e-05
-0.00049358
-9.64826e-05
-0.000442434
-9.42495e-05
-0.000392768
-9.14826e-05
-0.000344868
-8.81802e-05
-0.000299016
-8.4344e-05
-0.000255492
-7.99796e-05
-0.00021457
-7.50973e-05
-0.000176513
-6.97129e-05
-0.000141572
-6.38491e-05
-0.000109976
-5.75373e-05
-8.19336e-05
-5.08199e-05
-5.76172e-05
-4.37541e-05
-3.71575e-05
-3.64167e-05
-2.06283e-05
-2.89106e-05
-8.02852e-06
-2.13746e-05
7.40507e-07
-1.39971e-05
5.90551e-06
-7.03452e-06
7.85916e-06
-8.37495e-07
7.20683e-06
4.11706e-06
4.81602e-06
7.19138e-06
1.86512e-06
7.55802e-06
4.16744e-06
1.58343e-06
-5.96036e-06
3.41949e-06
-9.13975e-06
3.63795e-06
-6.4453e-06
1.006e-06
-3.00947e-08
-5.35367e-06
8.95165e-06
-1.6053e-05
1.96592e-05
-3.14857e-05
3.14313e-05
-5.18719e-05
4.37624e-05
-7.72908e-05
5.62676e-05
-0.000107711
6.86553e-05
-0.000143015
8.07077e-05
-0.000183016
9.22608e-05
-0.000227477
0.000103193
-0.000276121
0.000113416
-0.000328642
0.000122864
-0.000384711
0.000131492
-0.000443987
0.000139271
-0.000506115
0.000146181
-0.000570737
0.000152215
-0.000637493
0.000157371
-0.000706021
0.000161654
-0.000775963
0.000165072
-0.000846965
0.00016764
-0.00091868
0.000169374
-0.000990766
0.000170292
-0.00106289
0.000170415
-0.00113473
0.000169768
-0.00120597
0.000168373
-0.00127632
0.000166257
-0.00134546
0.000163445
-0.00141313
0.000159966
-0.00147906
0.000155846
-0.00154298
0.000151115
-0.00160466
0.000145802
-0.00166385
0.000139936
-0.00172033
0.000133547
-0.0017739
0.000126664
-0.00182436
0.000119319
-0.00187153
0.000111541
-0.00191524
0.000103361
-0.00195533
9.48104e-05
-0.00199165
8.59196e-05
-0.00202408
7.672e-05
-0.0020525
6.72434e-05
-0.00207681
5.75216e-05
-0.00209691
4.75877e-05
-0.00211273
3.7475e-05
-0.00212422
2.72168e-05
-0.00213131
1.6847e-05
-0.00213399
6.39938e-06
-0.00213223
-4.09183e-06
-0.00212602
-1.45918e-05
-0.00211539
-2.50648e-05
-0.00210036
-3.54749e-05
-0.00208097
-4.57856e-05
-0.00205728
-5.59595e-05
-0.00202936
-6.59595e-05
-0.00199731
-7.57484e-05
-0.00196123
-8.52887e-05
-0.00192123
-9.4543e-05
-0.00187747
-0.000103473
-0.00183008
-0.000112042
-0.00177925
-0.00012021
-0.00172516
-0.000127939
-0.00166801
-0.000135191
-0.00160802
-0.000141928
-0.00154542
-0.000148112
-0.00148046
-0.000153708
-0.0014134
-0.00015868
-0.00134452
-0.000162994
-0.00127411
-0.000166616
-0.00120248
-0.000169515
-0.00112993
-0.000171661
-0.00105681
-0.000173024
-0.000983446
-0.000173578
-0.000910189
-0.000173298
-0.000837398
-0.000172162
-0.000765434
-0.00017015
-0.000694668
-0.000167249
-0.000625473
-0.000163445
-0.000558222
-0.000158733
-0.000493289
-0.000153113
-0.000431046
-0.000146587
-0.000371855
-0.00013917
-0.000316071
-0.000130882
-0.000264031
-0.000121753
-0.000216054
-0.000111826
-0.000172431
-0.00010116
-0.00013342
-8.98315e-05
-9.92303e-05
-7.79434e-05
-7.00172e-05
-6.56298e-05
-4.5861e-05
-5.30668e-05
-2.67495e-05
-4.04862e-05
-1.25537e-05
-2.81929e-05
-2.99846e-06
-1.65897e-05
2.37206e-06
-6.20806e-06
4.23558e-06
2.25357e-06
3.53559e-06
7.89143e-06
1.53859e-06
9.55502e-06
5.70602e-06
8.61653e-07
-6.822e-06
9.54698e-07
-9.23304e-06
-1.48627e-06
-4.00423e-06
-7.6864e-06
6.17012e-06
-1.85343e-05
1.97994e-05
-3.4656e-05
3.57808e-05
-5.64622e-05
5.32374e-05
-8.41834e-05
7.14837e-05
-0.000117903
8.99875e-05
-0.000157585
0.000108337
-0.000203094
0.000126217
-0.000254218
0.000143385
-0.000310683
0.000159658
-0.000372166
0.000174899
-0.000438309
0.000189006
-0.000508723
0.000201906
-0.000583001
0.000213549
-0.000660721
0.000223902
-0.000741453
0.000232947
-0.000824761
0.000240679
-0.000910209
0.000247101
-0.00099736
0.000252224
-0.00108578
0.000256065
-0.00117506
0.000258646
-0.00126476
0.000259995
-0.00135449
0.000260142
-0.00144384
0.00025912
-0.00153243
0.000256964
-0.00161989
0.000253713
-0.00170585
0.000249406
-0.00178997
0.000244083
-0.00187191
0.000237786
-0.00195135
0.000230559
-0.00202799
0.000222444
-0.00210154
0.000213487
-0.00217173
0.000203732
-0.00223829
0.000193226
-0.00230098
0.000182013
-0.00235958
0.00017014
-0.00241388
0.000157654
-0.00246367
0.000144602
-0.00250878
0.000131032
-0.00254905
0.000116991
-0.00258434
0.000102529
-0.00261451
8.76931e-05
-0.00263946
7.25347e-05
-0.00265909
5.71041e-05
-0.00267332
4.14523e-05
-0.0026821
2.56308e-05
-0.0026854
9.69148e-06
-0.00268318
-6.31276e-06
-0.00267544
-2.23287e-05
-0.0026622
-3.83021e-05
-0.0026435
-5.41779e-05
-0.00261938
-6.99005e-05
-0.00258993
-8.54137e-05
-0.00255523
-0.000100661
-0.00251539
-0.000115584
-0.00247055
-0.000130128
-0.00242086
-0.000144234
-0.00236649
-0.000157844
-0.00230763
-0.000170901
-0.00224449
-0.000183346
-0.00217731
-0.000195122
-0.00210633
-0.00020617
-0.00203183
-0.000216434
-0.00195408
-0.000225857
-0.00187341
-0.000234385
-0.00179012
-0.000241964
-0.00170457
-0.000248542
-0.00161712
-0.000254071
-0.00152813
-0.000258501
-0.001438
-0.000261788
-0.00134714
-0.00026389
-0.00125595
-0.000264765
-0.00116487
-0.00026438
-0.00107433
-0.000262702
-0.000984777
-0.000259704
-0.000896659
-0.000255366
-0.00081043
-0.000249674
-0.000726544
-0.000242619
-0.000645453
-0.000234204
-0.000567603
-0.000224438
-0.00049343
-0.000213343
-0.000423356
-0.000200956
-0.000357784
-0.000187326
-0.000297088
-0.000172522
-0.00024161
-0.000156637
-0.000191649
-0.000139793
-0.000147446
-0.000122146
-0.000109176
-0.0001039
-7.69292e-05
-8.53136e-05
-5.06915e-05
-6.67239e-05
-3.03222e-05
-4.85622e-05
-1.55283e-05
-3.13837e-05
-5.83397e-06
-1.59023e-05
-5.46865e-07
-3.03347e-06
1.28009e-06
6.06449e-06
9.00656e-07
9.93443e-06
6.6067e-06
-3.2079e-08
-6.78991e-06
-2.13039e-06
-7.13452e-06
-7.83387e-06
1.69916e-06
-1.82728e-05
1.6609e-05
-3.4285e-05
3.58118e-05
-5.64668e-05
5.79627e-05
-8.52103e-05
8.19812e-05
-0.000120735
0.000107008
-0.00016311
0.000132363
-0.000212285
0.000157512
-0.000268105
0.000182036
-0.00033033
0.00020561
-0.000398653
0.000227981
-0.000472712
0.000248958
-0.000552102
0.000268396
-0.000636384
0.000286188
-0.000725096
0.00030226
-0.000817754
0.00031656
-0.000913867
0.00032906
-0.00101293
0.000339745
-0.00111445
0.000348616
-0.00121791
0.000355685
-0.00132282
0.000360972
-0.00142867
0.000364505
-0.001535
0.000366321
-0.00164132
0.000366458
-0.00174716
0.000364961
-0.00185207
0.000361879
-0.00195562
0.000357263
-0.00205738
0.000351167
-0.00215695
0.000343647
-0.00225392
0.000334761
-0.00234793
0.000324568
-0.00243862
0.00031313
-0.00252564
0.000300507
-0.00260867
0.000286764
-0.00268741
0.000271963
-0.00276156
0.000256169
-0.00283087
0.000239447
-0.00289508
0.000221862
-0.00295396
0.000203482
-0.0030073
0.000184373
-0.00305491
0.000164603
-0.00309662
0.000144239
-0.00313228
0.000123353
-0.00316176
0.000102013
-0.00318495
8.02909e-05
-0.00320175
5.82586e-05
-0.00321211
3.59887e-05
-0.00321597
1.35546e-05
-0.00321332
-8.96942e-06
-0.00320414
-3.15079e-05
-0.00318845
-5.39846e-05
-0.00316631
-7.63224e-05
-0.00313777
-9.8443e-05
-0.00310291
-0.000120267
-0.00306186
-0.000141716
-0.00301473
-0.000162709
-0.0029617
-0.000183165
-0.00290293
-0.000203005
-0.00283862
-0.000222146
-0.00276902
-0.000240507
-0.00269436
-0.000258008
-0.00261491
-0.000274567
-0.00253098
-0.000290103
-0.00244287
-0.000304538
-0.00235094
-0.000317794
-0.00225553
-0.000329793
-0.00215703
-0.000340463
-0.00205584
-0.00034973
-0.00195239
-0.000357526
-0.0018471
-0.000363785
-0.00174045
-0.000368444
-0.00163289
-0.000371446
-0.00152492
-0.000372736
-0.00141703
-0.000372268
-0.00130973
-0.000369998
-0.00120355
-0.000365893
-0.00109899
-0.000359926
-0.000996582
-0.000352079
-0.000896856
-0.000342345
-0.00080033
-0.00033073
-0.000707516
-0.000317252
-0.000618914
-0.000301945
-0.000535006
-0.000284864
-0.000456249
-0.000266083
-0.000383068
-0.000245703
-0.000315848
-0.000223858
-0.000254923
-0.000200718
-0.000200565
-0.000176504
-0.000152972
-0.000151493
-0.000112247
-0.000126038
-7.83883e-05
-0.000100583
-5.12615e-05
-7.5689e-05
-3.05821e-05
-5.2063e-05
-1.58897e-05
-3.05947e-05
-6.5214e-06
-1.24017e-05
-1.583e-06
1.12604e-06
8.87016e-08
8.26273e-06
6.69542e-06
-1.00781e-06
-5.78202e-06
-5.55824e-06
-2.5842e-06
-1.49148e-05
1.10559e-05
-3.00545e-05
3.17487e-05
-5.17161e-05
5.74733e-05
-8.04306e-05
8.66773e-05
-0.000116544
0.000118094
-0.000160239
0.000150703
-0.000211559
0.000183683
-0.000270426
0.000216379
-0.000336657
0.000248268
-0.000409984
0.000278937
-0.000490067
0.000308064
-0.000576505
0.000335396
-0.000668852
0.000360743
-0.000766624
0.00038396
-0.000869307
0.000404943
-0.000976367
0.000423621
-0.00108726
0.000439949
-0.00120141
0.000453903
-0.00131828
0.000465481
-0.00143729
0.000474691
-0.00155787
0.000481559
-0.00167949
0.000486117
-0.00180157
0.00048841
-0.0019236
0.000488486
-0.00204505
0.000486403
-0.00216539
0.000482223
-0.00228414
0.000476012
-0.00240081
0.00046784
-0.00251494
0.00045778
-0.00262609
0.000445908
-0.00273382
0.000432301
-0.00283773
0.00041704
-0.00293743
0.000400206
-0.00303255
0.000381883
-0.00312274
0.000362153
-0.00320768
0.000341104
-0.00328705
0.00031882
-0.00336058
0.00029539
-0.003428
0.000270902
-0.00348907
0.000245445
-0.00354358
0.000219109
-0.00359132
0.000191985
-0.00363214
0.000164166
-0.00366587
0.000135745
-0.00369239
0.000106817
-0.00371161
7.74776e-05
-0.00372345
4.78234e-05
-0.00372785
1.79525e-05
-0.00372478
-1.20361e-05
-0.00371425
-4.2042e-05
-0.00369627
-7.19637e-05
-0.00367089
-0.000101699
-0.00363819
-0.000131142
-0.00359827
-0.000160191
-0.00355125
-0.000188737
-0.00349728
-0.000216676
-0.00343654
-0.0002439
-0.00336925
-0.000270302
-0.00329562
-0.000295774
-0.00321592
-0.000320209
-0.00313043
-0.000343498
-0.00303946
-0.000365536
-0.00294335
-0.000386215
-0.00284245
-0.000405431
-0.00273716
-0.000423083
-0.00262789
-0.000439068
-0.00251506
-0.000453289
-0.00239914
-0.000465653
-0.0022806
-0.000476068
-0.00215993
-0.000484448
-0.00203767
-0.000490712
-0.00191433
-0.000494785
-0.00179047
-0.000496597
-0.00166665
-0.000496089
-0.00154344
-0.000493206
-0.00142142
-0.000487907
-0.00130119
-0.000480158
-0.00118333
-0.000469941
-0.00106842
-0.00045725
-0.000957059
-0.000442095
-0.000849806
-0.000424505
-0.00074722
-0.000404531
-0.000649837
-0.000382247
-0.000558163
-0.000357757
-0.000472669
-0.000331198
-0.000393778
-0.000302748
-0.00032186
-0.000272635
-0.000257219
-0.000241145
-0.000200078
-0.000208635
-0.000150564
-0.000175552
-0.000108696
-0.00014245
-7.43671e-05
-0.000110018
-4.73229e-05
-7.91073e-05
-2.71468e-05
-5.07707e-05
-1.32402e-05
-2.63084e-05
-4.80305e-06
-7.31108e-06
-8.14637e-07
4.27434e-06
5.88078e-06
-2.01359e-06
-3.76868e-06
-9.1549e-06
4.55728e-06
-2.2399e-05
2.42998e-05
-4.25376e-05
5.18872e-05
-7.018e-05
8.51159e-05
-0.000105763
0.00012226
-0.000149562
0.000161893
-0.000201706
0.000202848
-0.000262196
0.000244173
-0.000330915
0.000285098
-0.000407645
0.000324998
-0.000492084
0.000363377
-0.000583856
0.000399836
-0.000682524
0.000434064
-0.0007876
0.000465819
-0.000898559
0.000494918
-0.00101484
0.000521225
-0.00113586
0.000544645
-0.00126103
0.000565114
-0.00138973
0.0005826
-0.00152134
0.000597092
-0.00165525
0.000608599
-0.00179083
0.000617145
-0.00192749
0.00062277
-0.0020646
0.000625526
-0.00220159
0.000625472
-0.00233786
0.000622679
-0.00247286
0.000617222
-0.00260603
0.000609183
-0.00273684
0.00059865
-0.00286477
0.000585713
-0.00298934
0.00057047
-0.00311005
0.000553016
-0.00322647
0.000533454
-0.00333815
0.000511887
-0.00344468
0.00048842
-0.00354569
0.000463159
-0.0036408
0.000436214
-0.00372967
0.000407694
-0.00381199
0.000377711
-0.00388747
0.000346378
-0.00395583
0.000313808
-0.00401684
0.000280116
-0.00407028
0.00024542
-0.00411595
0.000209838
-0.00415369
0.000173488
-0.00418337
0.000136492
-0.00420486
9.89725e-05
-0.00421809
6.10525e-05
-0.004223
2.28576e-05
-0.00421955
-1.54854e-05
-0.00420774
-5.38483e-05
-0.0041876
-9.21017e-05
-0.00415919
-0.000130114
-0.00412258
-0.000167753
-0.00407788
-0.000204885
-0.00402524
-0.000241374
-0.00396483
-0.000277086
-0.00389685
-0.000311885
-0.00382152
-0.000345632
-0.0037391
-0.000378191
-0.00364989
-0.000409425
-0.00355419
-0.000439198
-0.00345235
-0.000467374
-0.00334475
-0.000493818
-0.00323178
-0.000518398
-0.00311388
-0.000540984
-0.0029915
-0.000561448
-0.00286512
-0.000579668
-0.00273525
-0.000595525
-0.00260241
-0.000608903
-0.00246716
-0.000619696
-0.00233007
-0.000627801
-0.00219173
-0.000633125
-0.00205275
-0.000635582
-0.00191374
-0.000635099
-0.00177534
-0.000631609
-0.00163818
-0.000625062
-0.00150292
-0.000615421
-0.0013702
-0.000602663
-0.00124066
-0.000586788
-0.00111494
-0.000567811
-0.000993675
-0.000545774
-0.000877462
-0.000520744
-0.000766887
-0.000492822
-0.000662502
-0.000462141
-0.00056482
-0.00042888
-0.000474304
-0.000393264
-0.000391361
-0.000355579
-0.000316326
-0.00031618
-0.000249455
-0.000275506
-0.000190909
-0.000234098
-0.00014074
-0.000192619
-9.88817e-05
-0.000151877
-6.51303e-05
-0.000112859
-3.91359e-05
-7.67651e-05
-2.03891e-05
-4.50551e-05
-8.2132e-06
-1.9487e-05
-1.7589e-06
-2.17994e-06
4.12188e-06
-3.0204e-06
-7.48083e-07
-1.28101e-05
1.43469e-05
-3.00659e-05
4.15557e-05
-5.53801e-05
7.72015e-05
-8.92134e-05
0.000118949
-0.000131888
0.000164935
-0.000183592
0.000213597
-0.000244386
0.000263641
-0.00031421
0.000313998
-0.000392901
0.000363789
-0.000480199
0.000412296
-0.000575759
0.000458937
-0.000679168
0.000503245
-0.000789949
0.000544845
-0.000907575
0.000583446
-0.00103148
0.000618821
-0.00116106
0.000650804
-0.00129568
0.000679272
-0.00143472
0.000704145
-0.00157749
0.000725376
-0.00172335
0.000742947
-0.00187161
0.000756864
-0.00202162
0.000767153
-0.00217271
0.000773859
-0.00232422
0.000777041
-0.00247552
0.000776769
-0.00262597
0.000773126
-0.00277495
0.000766204
-0.00292187
0.0007561
-0.00306614
0.000742921
-0.0032072
0.000726778
-0.00334452
0.000707786
-0.00347757
0.000686066
-0.00360586
0.000661742
-0.00372891
0.000634939
-0.00384628
0.000605788
-0.00395754
0.00057442
-0.00406229
0.000540968
-0.00416017
0.00050557
-0.00425082
0.000468361
-0.00433392
0.000429483
-0.00440919
0.000389075
-0.00447635
0.00034728
-0.00453518
0.000304243
-0.00458545
0.000260111
-0.00462699
0.00021503
-0.00465965
0.000169152
-0.00468331
0.000122626
-0.00469786
7.56077e-05
-0.00470325
2.82508e-05
-0.00469945
-1.92874e-05
-0.00468645
-6.68481e-05
-0.00466428
-0.000114271
-0.004633
-0.000161393
-0.00459271
-0.000208051
-0.00454351
-0.00025408
-0.00448557
-0.000299312
-0.00441908
-0.000343581
-0.00434425
-0.000386717
-0.00426133
-0.000428552
-0.0041706
-0.000468917
-0.00407238
-0.000507642
-0.00396702
-0.00054456
-0.00385489
-0.000579504
-0.0037364
-0.000612309
-0.00361199
-0.00064281
-0.00348212
-0.00067085
-0.0033473
-0.000696272
-0.00320804
-0.000718924
-0.00306491
-0.000738662
-0.00291846
-0.000755346
-0.00276932
-0.000768843
-0.00261808
-0.000779032
-0.00246541
-0.000785799
-0.00231195
-0.00078904
-0.00215839
-0.000788666
-0.00200539
-0.000784602
-0.00185367
-0.000776786
-0.00170391
-0.000765177
-0.00155682
-0.000749752
-0.0014131
-0.000730511
-0.00127343
-0.000707481
-0.00113849
-0.000680716
-0.00100893
-0.000650303
-0.000885384
-0.000616368
-0.000768446
-0.000579079
-0.00065867
-0.000538656
-0.00055656
-0.000495374
-0.00046256
-0.000449579
-0.000377043
-0.000401696
-0.000300304
-0.000352245
-0.000232544
-0.000301859
-0.000173861
-0.000251301
-0.000124243
-0.000201495
-8.35529e-05
-0.000153549
-5.15233e-05
-0.000108795
-2.77528e-05
-6.88257e-05
-1.17046e-05
-3.55351e-05
-2.71371e-06
-1.11708e-05
1.40818e-06
-4.01264e-06
3.26455e-06
-1.64577e-05
2.6792e-05
-3.77721e-05
6.28701e-05
-6.83491e-05
0.000107778
-0.00010849
0.00015909
-0.000158392
0.000214837
-0.000218141
0.000273346
-0.000287715
0.000333215
-0.000366986
0.000393269
-0.000455733
0.000452536
-0.000553645
0.000510207
-0.000660331
0.000565624
-0.000775334
0.000618247
-0.000898135
0.000667646
-0.00102817
0.000713478
-0.00116482
0.000755475
-0.00130745
0.000793435
-0.00145539
0.000827211
-0.00160795
0.000856703
-0.00176442
0.00088185
-0.0019241
0.000902626
-0.00208627
0.000919033
-0.00225022
0.000931099
-0.00241523
0.000938873
-0.00258061
0.00094242
-0.00274566
0.000941824
-0.00290972
0.00093718
-0.00307211
0.000928595
-0.00323219
0.000916184
-0.00338934
0.000900073
-0.00354296
0.000880394
-0.00369246
0.000857285
-0.00383728
0.000830888
-0.00397689
0.000801353
-0.00411078
0.00076883
-0.00423847
0.000733475
-0.00435949
0.000695445
-0.00447343
0.000654903
-0.00457987
0.000612011
-0.00467844
0.000566935
-0.00476881
0.000519844
-0.00485064
0.000470908
-0.00492366
0.000420298
-0.0049876
0.000368191
-0.00504226
0.000314761
-0.00508741
0.000260189
-0.00512292
0.000204655
-0.00514863
0.000148341
-0.00516446
9.14337e-05
-0.00517033
3.412e-05
-0.0051662
-2.34106e-05
-0.00515209
-8.09662e-05
-0.005128
-0.000138353
-0.00509402
-0.000195375
-0.00505024
-0.000251834
-0.00499679
-0.000307532
-0.00493383
-0.000362267
-0.00486157
-0.000415837
-0.00478025
-0.000468039
-0.00469013
-0.00051867
-0.00459152
-0.000567526
-0.00448476
-0.000614404
-0.00437022
-0.000659102
-0.00424831
-0.000701419
-0.00411946
-0.000741156
-0.00398415
-0.000778119
-0.00384288
-0.000812116
-0.0036962
-0.00084296
-0.00354465
-0.000870471
-0.00338884
-0.000894475
-0.00322938
-0.000914805
-0.00306692
-0.000931304
-0.00290212
-0.000943827
-0.00273568
-0.000952239
-0.0025683
-0.00095642
-0.0024007
-0.000956263
-0.00223362
-0.00095168
-0.00206781
-0.000942603
-0.001904
-0.000928984
-0.00174295
-0.000910801
-0.00158541
-0.000888056
-0.0014321
-0.000860786
-0.00128376
-0.000829059
-0.00114108
-0.000792984
-0.00100473
-0.000752713
-0.000875359
-0.00070845
-0.000753559
-0.000660456
-0.000639874
-0.000609059
-0.000534791
-0.000554662
-0.000438725
-0.000497762
-0.000352015
-0.000438955
-0.000274912
-0.000378962
-0.000207571
-0.000318642
-0.000150042
-0.000259023
-0.000102268
-0.000201323
-6.40772e-05
-0.000146986
-3.51863e-05
-9.77165e-05
-1.52075e-05
-5.55139e-05
-3.66117e-06
-2.27171e-05
-2.25298e-06
-4.98151e-06
8.24604e-06
-2.00566e-05
4.18672e-05
-4.54259e-05
8.82395e-05
-8.12886e-05
0.000143641
-0.000127786
0.000205588
-0.000184982
0.000272032
-0.000252851
0.000341216
-0.000331282
0.000411645
-0.000420068
0.000482056
-0.000518922
0.000551389
-0.000627473
0.000618759
-0.000745281
0.000683432
-0.000871839
0.000744806
-0.00100659
0.000802392
-0.00114891
0.000855799
-0.00129815
0.00090472
-0.00145364
0.000948919
-0.00161465
0.000988223
-0.00178046
0.00102251
-0.00195032
0.00105171
-0.00212347
0.00107578
-0.00229917
0.00109473
-0.00247664
0.00110858
-0.00265515
0.00111738
-0.00283394
0.00112121
-0.00301229
0.00112017
-0.00318947
0.00111436
-0.00336478
0.0011039
-0.00353753
0.00108894
-0.00370706
0.00106961
-0.00387273
0.00104606
-0.00403392
0.00101847
-0.00419002
0.000986996
-0.00434048
0.000951812
-0.00448475
0.000913097
-0.00462231
0.000871034
-0.00475267
0.000825809
-0.00487539
0.000777613
-0.00499001
0.000726638
-0.00509616
0.00067308
-0.00519345
0.000617138
-0.00528156
0.000559014
-0.00536017
0.000498911
-0.00542902
0.000437036
-0.00548785
0.000373598
-0.00553647
0.000308808
-0.0055747
0.000242882
-0.00560239
0.000176035
-0.00561945
0.000108487
-0.00562579
4.04606e-05
-0.00562138
-2.7821e-05
-0.00560621
-9.61302e-05
-0.00558033
-0.000164238
-0.00554379
-0.000231912
-0.00549671
-0.000298918
-0.00543922
-0.000365022
-0.0053715
-0.000429985
-0.00529377
-0.000493568
-0.00520628
-0.000555532
-0.00510931
-0.000615637
-0.00500319
-0.000673643
-0.00488829
-0.000729309
-0.00476499
-0.000782397
-0.00463374
-0.000832671
-0.004495
-0.000879897
-0.00434927
-0.000923846
-0.0041971
-0.000964292
-0.00403904
-0.00100102
-0.00387571
-0.00103381
-0.00370772
-0.00106246
-0.00353575
-0.00108678
-0.00336048
-0.00110658
-0.00318261
-0.0011217
-0.00300288
-0.00113197
-0.00282204
-0.00113726
-0.00264086
-0.00113745
-0.00246011
-0.00113243
-0.00228059
-0.00112212
-0.00210309
-0.00110648
-0.00192841
-0.00108548
-0.00175733
-0.00105913
-0.00159065
-0.00102747
-0.00142911
-0.00099059
-0.00127348
-0.000948615
-0.00112447
-0.000901726
-0.000982757
-0.000850163
-0.000848984
-0.00079423
-0.000723738
-0.000734304
-0.000607552
-0.000670848
-0.00050089
-0.000604425
-0.00040414
-0.000535705
-0.000317609
-0.000465492
-0.000241517
-0.000394734
-0.000175989
-0.000324552
-0.000121052
-0.00025626
-7.66405e-05
-0.000191397
-4.25954e-05
-0.000131762
-1.86789e-05
-7.94306e-05
-4.59129e-06
-3.68046e-05
-6.84428e-06
-5.92263e-06
1.41688e-05
-2.35838e-05
5.95283e-05
-5.29708e-05
0.000117627
-9.40989e-05
0.000184769
-0.000146951
0.00025844
-0.000211456
0.000336537
-0.000287474
0.000417235
-0.000374794
0.000498964
-0.000473126
0.000580388
-0.000582109
0.000660372
-0.000701309
0.000737958
-0.000830226
0.000812349
-0.000968303
0.000882882
-0.00111493
0.000949017
-0.00126944
0.00101032
-0.00143115
0.00106643
-0.00159933
0.0011171
-0.00177322
0.00116211
-0.00195206
0.00120134
-0.00213504
0.0012347
-0.00232139
0.00126213
-0.0025103
0.00128364
-0.00270097
0.00129925
-0.00289261
0.00130902
-0.00308444
0.00131304
-0.00327568
0.00131141
-0.00346558
0.00130426
-0.00365339
0.00129171
-0.00383839
0.00127394
-0.00401987
0.00125109
-0.00419717
0.00122336
-0.00436962
0.00119092
-0.00453659
0.00115397
-0.00469749
0.00111271
-0.00485173
0.00106734
-0.00499878
0.00101808
-0.00513812
0.000965145
-0.00526926
0.000908751
-0.00539174
0.000849124
-0.00550516
0.000786492
-0.0056091
0.000721086
-0.00570323
0.000653141
-0.00578721
0.000582893
-0.00586076
0.000510584
-0.00592362
0.000436456
-0.00597557
0.000360757
-0.00601642
0.000283735
-0.00604603
0.000205643
-0.00606428
0.000126737
-0.00607109
4.72747e-05
-0.00606643
-3.24826e-05
-0.00605029
-0.00011227
-0.00602271
-0.000191822
-0.00598375
-0.000270867
-0.00593353
-0.000349134
-0.00587221
-0.000426349
-0.00579996
-0.000502236
-0.00571701
-0.000576516
-0.00562363
-0.000648912
-0.00552012
-0.000719144
-0.00540683
-0.000786933
-0.00528414
-0.000852002
-0.00515246
-0.000914073
-0.00501226
-0.000972872
-0.00486403
-0.00102813
-0.0047083
-0.00107958
-0.00454564
-0.00112695
-0.00437664
-0.00117001
-0.00420196
-0.0012085
-0.00402223
-0.00124218
-0.00383818
-0.00127083
-0.00365051
-0.00129425
-0.00345998
-0.00131223
-0.00326736
-0.00132459
-0.00307345
-0.00133118
-0.00287904
-0.00133185
-0.00268497
-0.0013265
-0.00249206
-0.00131503
-0.00230117
-0.00129738
-0.00211311
-0.00127354
-0.00192874
-0.00124351
-0.00174887
-0.00120734
-0.00157431
-0.00116514
-0.00140586
-0.00111706
-0.00124428
-0.00106331
-0.00109029
-0.00100415
-0.000944579
-0.000939941
-0.000807783
-0.0008711
-0.000680481
-0.00079815
-0.000563189
-0.000721716
-0.000456354
-0.00064254
-0.000360346
-0.000561501
-0.000275454
-0.000479627
-0.000201883
-0.000398123
-0.000139755
-0.000318388