/*--------------------------------*- C++ -*----------------------------------*\
  =========                 |
  \\      /  F ield         | OpenFOAM: The Open Source CFD Toolbox
   \\    /   O peration     | Website:  https://openfoam.org
    \\  /    A nd           | Version:  11
     \\/     M anipulation  |
\*---------------------------------------------------------------------------*/
FoamFile
{
    format      ascii;
    class       volVectorField;
    location    "6.3";
    object      U;
}
// * * * * * * * * * * * * * * * * * * * * * * * * * * * * * * * * * * * * * //

dimensions      [0 1 -1 0 0 0 0];

internalField   nonuniform List<vector> 
10100
(
(3.08791e-06 -2.83227e-06 0)
(1.42583e-05 -6.70359e-06 0)
(3.11893e-05 -7.37594e-06 0)
(4.64521e-05 -6.22083e-06 0)
(5.59048e-05 -4.03416e-06 0)
(5.74688e-05 -1.24544e-06 0)
(4.99212e-05 1.80253e-06 0)
(3.26703e-05 4.94983e-06 0)
(5.55976e-06 8.06165e-06 0)
(-3.13014e-05 1.10676e-05 0)
(-7.75855e-05 1.39309e-05 0)
(-0.000132863 1.66236e-05 0)
(-0.00019661 1.91234e-05 0)
(-0.000268241 2.14314e-05 0)
(-0.000347143 2.35334e-05 0)
(-0.000432677 2.54224e-05 0)
(-0.000524182 2.71164e-05 0)
(-0.000621006 2.8611e-05 0)
(-0.000722505 2.99063e-05 0)
(-0.000828015 3.10117e-05 0)
(-0.000936905 3.19258e-05 0)
(-0.00104856 3.26507e-05 0)
(-0.00116235 3.31981e-05 0)
(-0.00127768 3.35777e-05 0)
(-0.00139399 3.37884e-05 0)
(-0.00151069 3.38305e-05 0)
(-0.00162724 3.37115e-05 0)
(-0.00174311 3.34393e-05 0)
(-0.0018578 3.30226e-05 0)
(-0.0019708 3.247e-05 0)
(-0.00208166 3.17861e-05 0)
(-0.00218992 3.09737e-05 0)
(-0.00229514 3.0037e-05 0)
(-0.00239693 2.89821e-05 0)
(-0.00249488 2.78169e-05 0)
(-0.00258863 2.65494e-05 0)
(-0.00267784 2.51854e-05 0)
(-0.00276218 2.37306e-05 0)
(-0.00284134 2.21905e-05 0)
(-0.00291505 2.0572e-05 0)
(-0.00298304 1.88821e-05 0)
(-0.00304506 1.71235e-05 0)
(-0.0031009 1.53006e-05 0)
(-0.00315035 1.34213e-05 0)
(-0.00319322 1.14909e-05 0)
(-0.00322936 9.51695e-06 0)
(-0.00325864 7.50869e-06 0)
(-0.00328094 5.47175e-06 0)
(-0.00329617 3.41378e-06 0)
(-0.00330427 1.34258e-06 0)
(-0.00330521 -7.39961e-07 0)
(-0.00329895 -2.82932e-06 0)
(-0.00328551 -4.91548e-06 0)
(-0.00326489 -6.99085e-06 0)
(-0.00323715 -9.04781e-06 0)
(-0.00320239 -1.10757e-05 0)
(-0.00316069 -1.30671e-05 0)
(-0.0031122 -1.50173e-05 0)
(-0.00305707 -1.69194e-05 0)
(-0.00299549 -1.8767e-05 0)
(-0.00292765 -2.05562e-05 0)
(-0.00285377 -2.22796e-05 0)
(-0.00277412 -2.39265e-05 0)
(-0.00268898 -2.54876e-05 0)
(-0.00259865 -2.69549e-05 0)
(-0.00250347 -2.83194e-05 0)
(-0.00240382 -2.95723e-05 0)
(-0.00230009 -3.07066e-05 0)
(-0.00219271 -3.17152e-05 0)
(-0.0020821 -3.25908e-05 0)
(-0.00196874 -3.33279e-05 0)
(-0.00185312 -3.39218e-05 0)
(-0.00173573 -3.43661e-05 0)
(-0.00161712 -3.46523e-05 0)
(-0.00149784 -3.47721e-05 0)
(-0.00137846 -3.47183e-05 0)
(-0.00125958 -3.44837e-05 0)
(-0.00114183 -3.40608e-05 0)
(-0.00102583 -3.34431e-05 0)
(-0.000912233 -3.26267e-05 0)
(-0.000801706 -3.16082e-05 0)
(-0.000694914 -3.03845e-05 0)
(-0.000592529 -2.89537e-05 0)
(-0.000495224 -2.73163e-05 0)
(-0.000403666 -2.5474e-05 0)
(-0.000318511 -2.34274e-05 0)
(-0.000240404 -2.11772e-05 0)
(-0.000169967 -1.87262e-05 0)
(-0.000107792 -1.60823e-05 0)
(-5.44277e-05 -1.32575e-05 0)
(-1.0358e-05 -1.02673e-05 0)
(2.40224e-05 -7.13611e-06 0)
(4.84485e-05 -3.90456e-06 0)
(6.28446e-05 -6.42432e-07 0)
(6.74237e-05 2.53163e-06 0)
(6.28406e-05 5.41683e-06 0)
(5.04038e-05 7.66784e-06 0)
(3.25271e-05 8.66608e-06 0)
(1.40489e-05 7.35545e-06 0)
(2.74781e-06 2.75059e-06 0)
(8.22205e-06 -1.4673e-05 0)
(3.11364e-05 -2.89783e-05 0)
(6.04495e-05 -2.93418e-05 0)
(8.24899e-05 -2.13555e-05 0)
(8.89424e-05 -8.13682e-06 0)
(7.50735e-05 8.319e-06 0)
(3.78049e-05 2.65593e-05 0)
(-2.45865e-05 4.55775e-05 0)
(-0.000112831 6.46864e-05 0)
(-0.000226839 8.34239e-05 0)
(-0.000366048 0.00010147 0)
(-0.000529481 0.000118598 0)
(-0.000715878 0.00013468 0)
(-0.000923801 0.000149598 0)
(-0.00115167 0.000163292 0)
(-0.00139781 0.000175724 0)
(-0.00166048 0.000186874 0)
(-0.00193794 0.000196736 0)
(-0.00222837 0.00020532 0)
(-0.00253002 0.000212641 0)
(-0.00284113 0.000218711 0)
(-0.00315993 0.000223556 0)
(-0.00348473 0.000227207 0)
(-0.00381385 0.000229693 0)
(-0.00414565 0.000231044 0)
(-0.00447854 0.000231293 0)
(-0.00481097 0.000230472 0)
(-0.00514145 0.00022862 0)
(-0.00546852 0.000225776 0)
(-0.00579079 0.000221982 0)
(-0.00610693 0.000217274 0)
(-0.00641566 0.000211692 0)
(-0.00671574 0.000205273 0)
(-0.007006 0.000198063 0)
(-0.00728535 0.000190103 0)
(-0.00755272 0.000181437 0)
(-0.00780712 0.000172103 0)
(-0.00804763 0.00016214 0)
(-0.00827337 0.000151594 0)
(-0.00848352 0.000140506 0)
(-0.00867732 0.000128916 0)
(-0.0088541 0.000116865 0)
(-0.00901321 0.00010439 0)
(-0.00915407 9.15329e-05 0)
(-0.00927617 7.83386e-05 0)
(-0.00937907 6.4851e-05 0)
(-0.00946238 5.11192e-05 0)
(-0.00952579 3.71948e-05 0)
(-0.00956904 2.31214e-05 0)
(-0.00959194 8.94005e-06 0)
(-0.00959437 -5.30594e-06 0)
(-0.00957629 -1.95731e-05 0)
(-0.0095377 -3.38141e-05 0)
(-0.00947868 -4.7976e-05 0)
(-0.00939939 -6.20051e-05 0)
(-0.00930006 -7.58484e-05 0)
(-0.00918098 -8.94545e-05 0)
(-0.00904255 -0.000102774 0)
(-0.00888519 -0.000115759 0)
(-0.00870943 -0.000128365 0)
(-0.00851586 -0.000140546 0)
(-0.00830515 -0.000152248 0)
(-0.00807804 -0.000163415 0)
(-0.00783532 -0.00017399 0)
(-0.00757792 -0.00018392 0)
(-0.00730679 -0.000193147 0)
(-0.00702298 -0.000201617 0)
(-0.00672761 -0.000209281 0)
(-0.00642186 -0.000216091 0)
(-0.00610702 -0.000222 0)
(-0.00578438 -0.000226964 0)
(-0.00545534 -0.000230941 0)
(-0.00512136 -0.000233887 0)
(-0.00478396 -0.000235757 0)
(-0.00444469 -0.000236505 0)
(-0.00410519 -0.00023609 0)
(-0.00376713 -0.000234474 0)
(-0.00343224 -0.000231621 0)
(-0.00310229 -0.000227499 0)
(-0.00277906 -0.000222087 0)
(-0.00246437 -0.000215365 0)
(-0.00216008 -0.000207325 0)
(-0.001868 -0.000197962 0)
(-0.00158997 -0.000187285 0)
(-0.00132778 -0.000175309 0)
(-0.00108322 -0.000162059 0)
(-0.000857975 -0.000147573 0)
(-0.000653672 -0.000131907 0)
(-0.000471812 -0.000115142 0)
(-0.000313737 -9.73924e-05 0)
(-0.00018057 -7.88184e-05 0)
(-7.31309e-05 -5.96466e-05 0)
(8.16659e-06 -4.02041e-05 0)
(6.34677e-05 -2.0969e-05 0)
(9.36989e-05 -2.65109e-06 0)
(0.000100876 1.36833e-05 0)
(8.84464e-05 2.64258e-05 0)
(6.18433e-05 3.31377e-05 0)
(3.02447e-05 3.02565e-05 0)
(7.33589e-06 1.40315e-05 0)
(9.71787e-06 -3.41067e-05 0)
(3.44736e-05 -5.98336e-05 0)
(6.16622e-05 -5.50167e-05 0)
(7.43127e-05 -3.1484e-05 0)
(6.20748e-05 4.59709e-06 0)
(1.87125e-05 4.87871e-05 0)
(-6.00428e-05 9.78061e-05 0)
(-0.00017673 0.000149143 0)
(-0.000332464 0.000201074 0)
(-0.000527354 0.000252304 0)
(-0.000760687 0.000301911 0)
(-0.00103112 0.000349272 0)
(-0.00133691 0.000393894 0)
(-0.00167597 0.000435468 0)
(-0.00204593 0.000473765 0)
(-0.00244431 0.000508636 0)
(-0.00286846 0.000539988 0)
(-0.00331569 0.000567786 0)
(-0.00378325 0.000592018 0)
(-0.0042684 0.000612695 0)
(-0.00476836 0.00062987 0)
(-0.00528042 0.000643582 0)
(-0.00580188 0.000653901 0)
(-0.00633008 0.000660908 0)
(-0.00686245 0.00066468 0)
(-0.00739646 0.000665311 0)
(-0.00792966 0.000662896 0)
(-0.00845965 0.000657538 0)
(-0.00898413 0.000649339 0)
(-0.00950089 0.000638409 0)
(-0.0100078 0.000624856 0)
(-0.0105028 0.000608791 0)
(-0.0109839 0.00059033 0)
(-0.0114493 0.000569593 0)
(-0.0118971 0.000546698 0)
(-0.0123257 0.000521762 0)
(-0.0127336 0.000494901 0)
(-0.0131191 0.000466232 0)
(-0.0134809 0.000435875 0)
(-0.0138178 0.000403954 0)
(-0.0141284 0.000370585 0)
(-0.0144116 0.000335886 0)
(-0.0146665 0.000299979 0)
(-0.0148922 0.000262983 0)
(-0.0150877 0.000225021 0)
(-0.0152525 0.000186227 0)
(-0.0153858 0.000146733 0)
(-0.0154872 0.00010667 0)
(-0.0155563 6.61736e-05 0)
(-0.0155927 2.53711e-05 0)
(-0.0155964 -1.56124e-05 0)
(-0.0155671 -5.66404e-05 0)
(-0.015505 -9.75735e-05 0)
(-0.0154101 -0.000138271 0)
(-0.0152828 -0.000178587 0)
(-0.0151233 -0.00021837 0)
(-0.0149323 -0.000257475 0)
(-0.0147102 -0.000295758 0)
(-0.0144578 -0.000333076 0)
(-0.0141759 -0.000369287 0)
(-0.0138656 -0.000404248 0)
(-0.0135278 -0.00043781 0)
(-0.0131637 -0.000469817 0)
(-0.0127748 -0.000500114 0)
(-0.0123624 -0.000528548 0)
(-0.011928 -0.000554966 0)
(-0.0114734 -0.000579216 0)
(-0.0110004 -0.000601156 0)
(-0.0105108 -0.000620647 0)
(-0.0100066 -0.000637554 0)
(-0.00948997 -0.000651747 0)
(-0.00896313 -0.0006631 0)
(-0.0084284 -0.000671491 0)
(-0.00788819 -0.000676796 0)
(-0.00734498 -0.000678901 0)
(-0.00680137 -0.000677698 0)
(-0.00626 -0.00067309 0)
(-0.00572359 -0.000664989 0)
(-0.00519491 -0.000653322 0)
(-0.00467677 -0.000638031 0)
(-0.004172 -0.000619078 0)
(-0.00368347 -0.000596445 0)
(-0.00321401 -0.000570136 0)
(-0.00276645 -0.000540184 0)
(-0.00234356 -0.00050665 0)
(-0.00194804 -0.00046963 0)
(-0.00158245 -0.000429268 0)
(-0.00124923 -0.00038576 0)
(-0.000950569 -0.000339381 0)
(-0.000688402 -0.000290506 0)
(-0.000464274 -0.000239643 0)
(-0.00027924 -0.000187489 0)
(-0.000133713 -0.000135001 0)
(-2.72619e-05 -8.35044e-05 0)
(4.16626e-05 -3.48531e-05 0)
(7.6068e-05 8.35397e-06 0)
(8.07496e-05 4.24819e-05 0)
(6.27554e-05 6.25319e-05 0)
(3.3224e-05 6.18724e-05 0)
(8.6562e-06 3.24912e-05 0)
(8.49278e-06 -5.28881e-05 0)
(2.71989e-05 -8.56066e-05 0)
(4.0686e-05 -6.88714e-05 0)
(3.14634e-05 -2.11914e-05 0)
(-1.16685e-05 4.76388e-05 0)
(-9.57539e-05 0.000130595 0)
(-0.000225669 0.000222112 0)
(-0.000404405 0.000318089 0)
(-0.000633371 0.000415368 0)
(-0.00091276 0.000511637 0)
(-0.00124175 0.00060519 0)
(-0.0016188 0.000694746 0)
(-0.00204175 0.000779379 0)
(-0.00250799 0.00085843 0)
(-0.00301461 0.000931413 0)
(-0.00355839 0.000997999 0)
(-0.00413598 0.00105798 0)
(-0.00474388 0.00111123 0)
(-0.00537852 0.0011577 0)
(-0.00603631 0.0011974 0)
(-0.00671362 0.00123037 0)
(-0.00740686 0.0012567 0)
(-0.00811245 0.0012765 0)
(-0.00882689 0.00128989 0)
(-0.00954673 0.00129703 0)
(-0.0102686 0.00129809 0)
(-0.0109892 0.00129326 0)
(-0.0117054 0.00128271 0)
(-0.0124141 0.00126664 0)
(-0.0131122 0.00124527 0)
(-0.013797 0.00121879 0)
(-0.0144656 0.00118743 0)
(-0.0151155 0.00115141 0)
(-0.0157441 0.00111094 0)
(-0.016349 0.00106627 0)
(-0.0169279 0.0010176 0)
(-0.0174787 0.000965183 0)
(-0.0179993 0.000909235 0)
(-0.0184879 0.000849991 0)
(-0.0189427 0.000787686 0)
(-0.019362 0.000722556 0)
(-0.0197444 0.000654833 0)
(-0.0200885 0.000584755 0)
(-0.020393 0.000512565 0)
(-0.0206569 0.000438504 0)
(-0.0208791 0.000362821 0)
(-0.0210589 0.000285775 0)
(-0.0211956 0.00020762 0)
(-0.0212886 0.000128612 0)
(-0.0213375 4.9009e-05 0)
(-0.0213421 -3.09301e-05 0)
(-0.0213023 -0.000110943 0)
(-0.0212181 -0.000190758 0)
(-0.0210897 -0.000270097 0)
(-0.0209174 -0.000348682 0)
(-0.0207019 -0.000426232 0)
(-0.0204436 -0.000502458 0)
(-0.0201435 -0.000577077 0)
(-0.0198026 -0.000649806 0)
(-0.0194218 -0.000720363 0)
(-0.0190027 -0.000788457 0)
(-0.0185465 -0.0008538 0)
(-0.018055 -0.000916096 0)
(-0.0175299 -0.000975049 0)
(-0.0169732 -0.00103037 0)
(-0.016387 -0.00108175 0)
(-0.0157734 -0.00112893 0)
(-0.015135 -0.00117161 0)
(-0.0144742 -0.00120953 0)
(-0.0137938 -0.00124242 0)
(-0.0130966 -0.00127003 0)
(-0.0123856 -0.00129212 0)
(-0.0116639 -0.00130844 0)
(-0.0109347 -0.00131879 0)
(-0.0102015 -0.00132293 0)
(-0.00946747 -0.00132069 0)
(-0.00873634 -0.00131187 0)
(-0.00801165 -0.00129634 0)
(-0.00729709 -0.00127396 0)
(-0.00659635 -0.00124465 0)
(-0.00591319 -0.00120833 0)
(-0.00525135 -0.001165 0)
(-0.00461456 -0.00111469 0)
(-0.0040065 -0.00105747 0)
(-0.00343077 -0.000993483 0)
(-0.00289083 -0.000922958 0)
(-0.00238999 -0.000846204 0)
(-0.00193131 -0.000763649 0)
(-0.00151756 -0.000675871 0)
(-0.0011511 -0.000583637 0)
(-0.000833802 -0.000487972 0)
(-0.000566867 -0.000390236 0)
(-0.000350695 -0.000292247 0)
(-0.000184648 -0.000196437 0)
(-6.67805e-05 -0.000106071 0)
(6.47937e-06 -2.55403e-05 0)
(4.06272e-05 3.92828e-05 0)
(4.34839e-05 8.06823e-05 0)
(2.68364e-05 8.87414e-05 0)
(7.71808e-06 5.04491e-05 0)
(5.92028e-06 -6.57266e-05 0)
(1.35871e-05 -9.66897e-05 0)
(5.1484e-06 -5.96329e-05 0)
(-3.53321e-05 2.09451e-05 0)
(-0.0001187 0.000131693 0)
(-0.000252286 0.000262847 0)
(-0.000441151 0.000406729 0)
(-0.000688401 0.000557339 0)
(-0.000995564 0.00071013 0)
(-0.00136278 0.000861589 0)
(-0.00178918 0.00100907 0)
(-0.00227295 0.00115056 0)
(-0.00281163 0.00128456 0)
(-0.00340222 0.00140995 0)
(-0.00404128 0.00152592 0)
(-0.00472505 0.00163189 0)
(-0.00544954 0.00172748 0)
(-0.00621059 0.00181244 0)
(-0.00700393 0.00188665 0)
(-0.00782522 0.00195006 0)
(-0.00867008 0.00200274 0)
(-0.00953415 0.00204479 0)
(-0.0104131 0.00207635 0)
(-0.0113026 0.00209763 0)
(-0.0121985 0.00210885 0)
(-0.0130967 0.00211026 0)
(-0.0139931 0.00210215 0)
(-0.0148837 0.0020848 0)
(-0.0157649 0.00205854 0)
(-0.0166328 0.00202369 0)
(-0.0174841 0.00198057 0)
(-0.0183152 0.00192954 0)
(-0.0191229 0.00187094 0)
(-0.0199041 0.00180514 0)
(-0.0206557 0.0017325 0)
(-0.0213751 0.00165338 0)
(-0.0220594 0.00156815 0)
(-0.0227063 0.00147719 0)
(-0.0233133 0.00138087 0)
(-0.0238783 0.00127958 0)
(-0.0243992 0.00117369 0)
(-0.0248741 0.00106359 0)
(-0.0253014 0.000949674 0)
(-0.0256795 0.000832328 0)
(-0.0260071 0.000711954 0)
(-0.026283 0.000588954 0)
(-0.0265061 0.00046374 0)
(-0.0266755 0.000336729 0)
(-0.0267908 0.000208337 0)
(-0.0268512 7.89834e-05 0)
(-0.0268566 -5.09043e-05 0)
(-0.0268068 -0.000180892 0)
(-0.0267019 -0.000310542 0)
(-0.026542 -0.000439409 0)
(-0.0263278 -0.000567038 0)
(-0.0260598 -0.000692971 0)
(-0.0257387 -0.000816749 0)
(-0.0253657 -0.000937909 0)
(-0.024942 -0.00105599 0)
(-0.0244689 -0.00117052 0)
(-0.0239482 -0.00128104 0)
(-0.0233815 -0.00138706 0)
(-0.022771 -0.00148813 0)
(-0.0221188 -0.00158376 0)
(-0.0214273 -0.00167348 0)
(-0.0206992 -0.00175683 0)
(-0.0199372 -0.00183335 0)
(-0.0191443 -0.00190259 0)
(-0.0183237 -0.00196411 0)
(-0.0174787 -0.00201749 0)
(-0.0166127 -0.00206233 0)
(-0.0157296 -0.00209823 0)
(-0.014833 -0.00212482 0)
(-0.013927 -0.00214174 0)
(-0.0130157 -0.00214867 0)
(-0.0121033 -0.00214531 0)
(-0.0111941 -0.0021314 0)
(-0.0102925 -0.0021067 0)
(-0.00940305 -0.00207104 0)
(-0.00853019 -0.00202429 0)
(-0.00767849 -0.00196637 0)
(-0.00685249 -0.00189728 0)
(-0.00605669 -0.0018171 0)
(-0.00529551 -0.00172598 0)
(-0.00457325 -0.0016242 0)
(-0.00389405 -0.00151214 0)
(-0.00326181 -0.00139037 0)
(-0.00268015 -0.00125961 0)
(-0.00215228 -0.00112083 0)
(-0.00168094 -0.000975321 0)
(-0.00126825 -0.000824735 0)
(-0.000915563 -0.000671236 0)
(-0.000623322 -0.000517642 0)
(-0.000390814 -0.000367623 0)
(-0.000215937 -0.000225962 0)
(-9.49213e-05 -9.88957e-05 0)
(-2.20596e-05 5.48105e-06 0)
(1.06541e-05 7.68088e-05 0)
(1.46516e-05 0.000101955 0)
(5.58178e-06 6.3203e-05 0)
(2.80407e-06 -7.01794e-05 0)
(-3.45144e-06 -8.74927e-05 0)
(-3.93196e-05 -2.00867e-05 0)
(-0.000117599 0.000102772 0)
(-0.000248117 0.000264575 0)
(-0.000437858 0.000453001 0)
(-0.000691739 0.000658228 0)
(-0.00101274 0.000872507 0)
(-0.00140221 0.00108977 0)
(-0.00186023 0.00130529 0)
(-0.0023857 0.00151538 0)
(-0.00297661 0.00171725 0)
(-0.00363018 0.00190871 0)
(-0.00434305 0.00208813 0)
(-0.00511135 0.00225429 0)
(-0.00593084 0.00240631 0)
(-0.00679698 0.00254358 0)
(-0.00770504 0.00266568 0)
(-0.00865014 0.00277239 0)
(-0.00962728 0.00286361 0)
(-0.0106314 0.00293936 0)
(-0.0116576 0.00299977 0)
(-0.0127006 0.00304502 0)
(-0.0137557 0.00307538 0)
(-0.0148178 0.00309115 0)
(-0.0158822 0.00309267 0)
(-0.0169441 0.00308034 0)
(-0.017999 0.00305457 0)
(-0.0190424 0.00301581 0)
(-0.02007 0.00296452 0)
(-0.0210776 0.00290118 0)
(-0.0220613 0.00282627 0)
(-0.0230171 0.00274031 0)
(-0.0239415 0.00264383 0)
(-0.0248308 0.00253733 0)
(-0.0256819 0.00242135 0)
(-0.0264914 0.00229644 0)
(-0.0272566 0.00216314 0)
(-0.0279746 0.002022 0)
(-0.0286427 0.00187357 0)
(-0.0292587 0.00171841 0)
(-0.0298203 0.0015571 0)
(-0.0303255 0.0013902 0)
(-0.0307726 0.00121828 0)
(-0.0311598 0.00104194 0)
(-0.0314857 0.000861773 0)
(-0.0317493 0.000678368 0)
(-0.0319495 0.000492337 0)
(-0.0320854 0.000304293 0)
(-0.0321566 0.000114856 0)
(-0.0321627 -7.5348e-05 0)
(-0.0321035 -0.000265683 0)
(-0.0319791 -0.000455505 0)
(-0.0317899 -0.000644161 0)
(-0.0315362 -0.000830991 0)
(-0.031219 -0.00101533 0)
(-0.0308392 -0.00119649 0)
(-0.0303979 -0.00137381 0)
(-0.0298967 -0.00154661 0)
(-0.0293372 -0.0017142 0)
(-0.0287213 -0.0018759 0)
(-0.0280511 -0.00203101 0)
(-0.0273291 -0.00217885 0)
(-0.0265579 -0.00231874 0)
(-0.0257402 -0.00244998 0)
(-0.0248792 -0.00257191 0)
(-0.0239782 -0.00268386 0)
(-0.0230405 -0.00278518 0)
(-0.02207 -0.00287524 0)
(-0.0210705 -0.00295343 0)
(-0.0200462 -0.00301917 0)
(-0.0190014 -0.00307188 0)
(-0.0179406 -0.00311103 0)
(-0.0168683 -0.00313613 0)
(-0.0157895 -0.00314671 0)
(-0.0147089 -0.00314236 0)
(-0.0136317 -0.00312271 0)
(-0.012563 -0.00308746 0)
(-0.011508 -0.00303636 0)
(-0.0104718 -0.00296927 0)
(-0.00945988 -0.00288609 0)
(-0.00847733 -0.00278687 0)
(-0.00752937 -0.00267173 0)
(-0.00662107 -0.00254097 0)
(-0.00575735 -0.002395 0)
(-0.00494293 -0.00223445 0)
(-0.00418222 -0.00206015 0)
(-0.00347932 -0.00187323 0)
(-0.00283784 -0.00167513 0)
(-0.00226084 -0.00146772 0)
(-0.0017507 -0.00125339 0)
(-0.00130898 -0.00103519 0)
(-0.000936226 -0.000817008 0)
(-0.000631805 -0.000603819 0)
(-0.000393687 -0.000401939 0)
(-0.000218213 -0.000219413 0)
(-9.98467e-05 -6.64491e-05 0)
(-3.08568e-05 4.41389e-05 0)
(-9.34748e-07 9.63101e-05 0)
(2.85806e-06 6.84607e-05 0)
(-5.24594e-07 -6.51308e-05 0)
(-2.22239e-05 -5.47309e-05 0)
(-8.88726e-05 5.4465e-05 0)
(-0.00020943 0.000229743 0)
(-0.000391885 0.00045194 0)
(-0.000642675 0.000706493 0)
(-0.000966164 0.000981584 0)
(-0.00136493 0.0012678 0)
(-0.00184007 0.00155761 0)
(-0.00239133 0.00184505 0)
(-0.00301739 0.0021254 0)
(-0.00371595 0.00239499 0)
(-0.00448392 0.00265094 0)
(-0.00531758 0.00289103 0)
(-0.00621267 0.00311361 0)
(-0.00716451 0.00331742 0)
(-0.00816808 0.00350158 0)
(-0.00921815 0.00366548 0)
(-0.0103093 0.00380876 0)
(-0.0114359 0.00393123 0)
(-0.0125924 0.0040329 0)
(-0.0137732 0.00411386 0)
(-0.0149726 0.00417434 0)
(-0.0161849 0.00421465 0)
(-0.0174048 0.00423519 0)
(-0.0186267 0.00423641 0)
(-0.0198454 0.00421881 0)
(-0.0210555 0.00418294 0)
(-0.0222522 0.00412939 0)
(-0.0234305 0.00405876 0)
(-0.0245857 0.0039717 0)
(-0.0257132 0.00386889 0)
(-0.0268086 0.00375099 0)
(-0.0278678 0.00361871 0)
(-0.0288868 0.00347277 0)
(-0.0298618 0.00331388 0)
(-0.0307892 0.00314277 0)
(-0.0316656 0.0029602 0)
(-0.0324879 0.0027669 0)
(-0.0332531 0.00256364 0)
(-0.0339584 0.0023512 0)
(-0.0346015 0.00213033 0)
(-0.0351799 0.00190183 0)
(-0.0356916 0.00166648 0)
(-0.0361348 0.00142509 0)
(-0.0365078 0.00117847 0)
(-0.0368094 0.000927441 0)
(-0.0370384 0.000672831 0)
(-0.0371938 0.000415481 0)
(-0.0372751 0.000156239 0)
(-0.0372818 -0.000104031 0)
(-0.0372137 -0.00036446 0)
(-0.0370711 -0.000624169 0)
(-0.0368541 -0.000882264 0)
(-0.0365636 -0.00113784 0)
(-0.0362002 -0.00138999 0)
(-0.0357651 -0.00163779 0)
(-0.0352597 -0.00188032 0)
(-0.0346857 -0.00211665 0)
(-0.034045 -0.00234584 0)
(-0.0333398 -0.00256697 0)
(-0.0325725 -0.00277908 0)
(-0.0317458 -0.00298124 0)
(-0.0308627 -0.00317253 0)
(-0.0299264 -0.00335202 0)
(-0.0289404 -0.00351879 0)
(-0.0279085 -0.00367194 0)
(-0.0268347 -0.00381061 0)
(-0.0257231 -0.00393393 0)
(-0.0245782 -0.00404108 0)
(-0.0234046 -0.00413126 0)
(-0.0222073 -0.00420373 0)
(-0.0209914 -0.00425776 0)
(-0.019762 -0.0042927 0)
(-0.0185246 -0.00430793 0)
(-0.0172848 -0.00430291 0)
(-0.0160482 -0.00427717 0)
(-0.0148206 -0.00423032 0)
(-0.0136079 -0.00416207 0)
(-0.012416 -0.00407223 0)
(-0.0112507 -0.00396073 0)
(-0.0101179 -0.00382766 0)
(-0.0090234 -0.00367324 0)
(-0.00797284 -0.00349789 0)
(-0.0069717 -0.00330224 0)
(-0.00602519 -0.00308718 0)
(-0.00513823 -0.0028539 0)
(-0.00431531 -0.00260393 0)
(-0.00356043 -0.00233926 0)
(-0.00287698 -0.00206241 0)
(-0.00226762 -0.00177656 0)
(-0.00173415 -0.00148569 0)
(-0.00127735 -0.0011948 0)
(-0.000896803 -0.000910147 0)
(-0.000590761 -0.000639548 0)
(-0.000355927 -0.00039275 0)
(-0.000187243 -0.000181899 0)
(-7.76142e-05 -2.1981e-05 0)
(-1.83889e-05 6.85079e-05 0)
(-1.21095e-07 6.5002e-05 0)
(-3.84771e-06 -5.00886e-05 0)
(-4.17222e-05 3.49014e-06 0)
(-0.0001411 0.00016702 0)
(-0.00030664 0.00040555 0)
(-0.0005443 0.000697803 0)
(-0.000859517 0.00102728 0)
(-0.00125593 0.00138049 0)
(-0.0017355 0.00174641 0)
(-0.00229882 0.00211619 0)
(-0.00294529 0.00248263 0)
(-0.00367319 0.00284003 0)
(-0.00447989 0.00318381 0)
(-0.00536196 0.00351037 0)
(-0.00631531 0.0038169 0)
(-0.0073353 0.00410125 0)
(-0.00841683 0.00436176 0)
(-0.00955445 0.00459726 0)
(-0.0107425 0.0048069 0)
(-0.0119749 0.00499017 0)
(-0.0132458 0.00514679 0)
(-0.0145488 0.00527667 0)
(-0.015878 0.00537992 0)
(-0.017227 0.00545678 0)
(-0.0185897 0.00550763 0)
(-0.01996 0.00553294 0)
(-0.021332 0.00553325 0)
(-0.0226997 0.0055092 0)
(-0.0240575 0.00546147 0)
(-0.0253997 0.00539081 0)
(-0.0267209 0.00529799 0)
(-0.0280159 0.00518384 0)
(-0.0292796 0.00504921 0)
(-0.0305071 0.00489498 0)
(-0.0316939 0.00472204 0)
(-0.0328354 0.00453131 0)
(-0.0339275 0.00432373 0)
(-0.0349661 0.00410026 0)
(-0.0359476 0.00386185 0)
(-0.0368683 0.00360948 0)
(-0.0377251 0.00334413 0)
(-0.0385147 0.00306682 0)
(-0.0392346 0.00277854 0)
(-0.039882 0.00248032 0)
(-0.0404547 0.0021732 0)
(-0.0409507 0.00185821 0)
(-0.0413682 0.00153642 0)
(-0.0417056 0.00120889 0)
(-0.0419617 0.000876719 0)
(-0.0421355 0.000540989 0)
(-0.0422262 0.000202815 0)
(-0.0422336 -0.000136682 0)
(-0.0421573 -0.000476365 0)
(-0.0419974 -0.000815087 0)
(-0.0417545 -0.00115168 0)
(-0.0414291 -0.00148498 0)
(-0.0410223 -0.00181379 0)
(-0.0405352 -0.00213692 0)
(-0.0399695 -0.00245316 0)
(-0.039327 -0.00276131 0)
(-0.0386099 -0.00306015 0)
(-0.0378205 -0.00334847 0)
(-0.0369615 -0.00362504 0)
(-0.0360361 -0.00388866 0)
(-0.0350475 -0.00413811 0)
(-0.0339994 -0.00437221 0)
(-0.0328955 -0.00458977 0)
(-0.03174 -0.00478963 0)
(-0.0305375 -0.00497067 0)
(-0.0292924 -0.00513178 0)
(-0.0280099 -0.0052719 0)
(-0.026695 -0.00539001 0)
(-0.0253532 -0.00548514 0)
(-0.0239901 -0.00555639 0)
(-0.0226114 -0.00560291 0)
(-0.0212233 -0.00562394 0)
(-0.0198317 -0.00561879 0)
(-0.0184431 -0.00558688 0)
(-0.0170637 -0.00552774 0)
(-0.0157 -0.00544102 0)
(-0.0143585 -0.00532652 0)
(-0.0130456 -0.0051842 0)
(-0.0117677 -0.00501418 0)
(-0.0105313 -0.00481681 0)
(-0.00934236 -0.00459269 0)
(-0.008207 -0.00434267 0)
(-0.00713087 -0.00406794 0)
(-0.00611931 -0.00377006 0)
(-0.00517724 -0.00345106 0)
(-0.00430902 -0.00311349 0)
(-0.00351839 -0.00276055 0)
(-0.00280833 -0.00239623 0)
(-0.00218097 -0.00202547 0)
(-0.0016374 -0.00165436 0)
(-0.00117759 -0.0012904 0)
(-0.000800226 -0.000942821 0)
(-0.000502586 -0.000622926 0)
(-0.000280333 -0.000344572 0)
(-0.000127272 -0.00012459 0)
(-3.67416e-05 1.65674e-05 0)
(-3.17296e-06 5.22152e-05 0)
(-7.09938e-06 -2.49209e-05 0)
(-6.13578e-05 8.80443e-05 0)
(-0.000194368 0.000319314 0)
(-0.000406468 0.000632494 0)
(-0.000701295 0.00100477 0)
(-0.00108317 0.00141814 0)
(-0.00155475 0.00185756 0)
(-0.00211725 0.0023107 0)
(-0.00277063 0.00276741 0)
(-0.00351374 0.00321943 0)
(-0.00434444 0.00366003 0)
(-0.00525968 0.00408379 0)
(-0.00625564 0.0044864 0)
(-0.00732785 0.00486441 0)
(-0.00847125 0.00521516 0)
(-0.00968036 0.00553661 0)
(-0.0109493 0.00582724 0)
(-0.0122719 0.00608598 0)
(-0.0136418 0.00631209 0)
(-0.0150525 0.0065052 0)
(-0.0164973 0.00666515 0)
(-0.0179696 0.00679202 0)
(-0.0194626 0.00688608 0)
(-0.0209698 0.00694774 0)
(-0.0224844 0.00697754 0)
(-0.0240001 0.00697616 0)
(-0.0255103 0.00694434 0)
(-0.027009 0.00688293 0)
(-0.02849 0.00679281 0)
(-0.0299474 0.00667496 0)
(-0.0313754 0.00653039 0)
(-0.0327686 0.00636014 0)
(-0.0341217 0.00616531 0)
(-0.0354296 0.00594702 0)
(-0.0366875 0.0057064 0)
(-0.0378907 0.00544463 0)
(-0.0390348 0.0051629 0)
(-0.0401159 0.00486241 0)
(-0.0411299 0.00454439 0)
(-0.0420734 0.00421007 0)
(-0.0429429 0.00386072 0)
(-0.0437355 0.0034976 0)
(-0.0444483 0.00312199 0)
(-0.0450787 0.0027352 0)
(-0.0456247 0.00233854 0)
(-0.0460842 0.00193334 0)
(-0.0464556 0.00152095 0)
(-0.0467374 0.00110273 0)
(-0.0469286 0.000680065 0)
(-0.0470285 0.000254346 0)
(-0.0470365 -0.000173014 0)
(-0.0469525 -0.000600587 0)
(-0.0467765 -0.00102693 0)
(-0.0465091 -0.00145058 0)
(-0.0461509 -0.00187006 0)
(-0.0457031 -0.00228388 0)
(-0.045167 -0.00269054 0)
(-0.0445444 -0.00308853 0)
(-0.0438371 -0.00347634 0)
(-0.0430477 -0.00385244 0)
(-0.0421787 -0.00421531 0)
(-0.0412332 -0.00456342 0)
(-0.0402144 -0.00489526 0)
(-0.039126 -0.00520931 0)
(-0.0379718 -0.0055041 0)
(-0.0367562 -0.00577813 0)
(-0.0354836 -0.00602998 0)
(-0.0341588 -0.00625824 0)
(-0.0327871 -0.00646153 0)
(-0.0313737 -0.00663853 0)
(-0.0299244 -0.00678799 0)
(-0.0284449 -0.00690871 0)
(-0.0269414 -0.00699956 0)
(-0.0254203 -0.00705952 0)
(-0.023888 -0.00708765 0)
(-0.0223511 -0.00708312 0)
(-0.0208166 -0.00704524 0)
(-0.0192913 -0.00697344 0)
(-0.0177821 -0.00686734 0)
(-0.0162962 -0.0067267 0)
(-0.0148404 -0.00655151 0)
(-0.0134217 -0.006342 0)
(-0.012047 -0.00609863 0)
(-0.0107229 -0.00582218 0)
(-0.00945583 -0.00551377 0)
(-0.00825197 -0.0051749 0)
(-0.00711708 -0.00480756 0)
(-0.00605647 -0.00441425 0)
(-0.00507489 -0.00399814 0)
(-0.00417647 -0.00356312 0)
(-0.00336457 -0.00311399 0)
(-0.00264168 -0.00265662 0)
(-0.00200936 -0.00219817 0)
(-0.00146803 -0.00174732 0)
(-0.00101699 -0.00131457 0)
(-0.000654255 -0.000912626 0)
(-0.000376385 -0.000556816 0)
(-0.000178264 -0.000265474 0)
(-5.53909e-05 -6.05395e-05 0)
(-6.19826e-06 2.98761e-05 0)
(-1.02403e-05 1.02687e-05 0)
(-8.07893e-05 0.000199241 0)
(-0.000247697 0.000512112 0)
(-0.00050704 0.000911811 0)
(-0.00086008 0.00137445 0)
(-0.00130989 0.00188078 0)
(-0.00185807 0.00241457 0)
(-0.00250488 0.00296228 0)
(-0.00324955 0.00351268 0)
(-0.00409031 0.00405646 0)
(-0.00502448 0.00458598 0)
(-0.00604854 0.00509503 0)
(-0.0071582 0.00557856 0)
(-0.00834858 0.00603253 0)
(-0.00961422 0.00645378 0)
(-0.0109492 0.00683983 0)
(-0.0123473 0.00718884 0)
(-0.0138018 0.00749947 0)
(-0.015306 0.0077708 0)
(-0.016853 0.00800231 0)
(-0.0184355 0.00819377 0)
(-0.0200465 0.00834523 0)
(-0.0216789 0.00845696 0)
(-0.0233254 0.00852942 0)
(-0.0249791 0.00856324 0)
(-0.026633 0.00855919 0)
(-0.0282802 0.00851816 0)
(-0.0299141 0.00844112 0)
(-0.0315281 0.00832916 0)
(-0.0331158 0.00818343 0)
(-0.0346711 0.00800514 0)
(-0.0361881 0.00779555 0)
(-0.0376611 0.00755598 0)
(-0.0390845 0.00728779 0)
(-0.0404533 0.00699236 0)
(-0.0417623 0.0066711 0)
(-0.043007 0.00632547 0)
(-0.0441828 0.00595694 0)
(-0.0452857 0.00556699 0)
(-0.0463116 0.00515714 0)
(-0.0472572 0.00472892 0)
(-0.0481189 0.00428388 0)
(-0.0488938 0.0038236 0)
(-0.0495792 0.00334966 0)
(-0.0501728 0.00286367 0)
(-0.0506723 0.00236727 0)
(-0.0510759 0.00186209 0)
(-0.0513823 0.0013498 0)
(-0.0515902 0.000832094 0)
(-0.0516988 0.000310679 0)
(-0.0517076 -0.000212722 0)
(-0.0516164 -0.00073636 0)
(-0.0514252 -0.00125847 0)
(-0.0511347 -0.00177727 0)
(-0.0507456 -0.00229095 0)
(-0.0502591 -0.00279769 0)
(-0.0496766 -0.00329567 0)
(-0.049 -0.00378305 0)
(-0.0482314 -0.00425796 0)
(-0.0473735 -0.00471856 0)
(-0.0464291 -0.00516299 0)
(-0.0454013 -0.00558938 0)
(-0.0442938 -0.00599591 0)
(-0.0431105 -0.00638073 0)
(-0.0418556 -0.00674203 0)
(-0.0405336 -0.00707802 0)
(-0.0391494 -0.00738696 0)
(-0.0377082 -0.00766714 0)
(-0.0362156 -0.0079169 0)
(-0.0346773 -0.00813465 0)
(-0.0330994 -0.00831886 0)
(-0.0314881 -0.00846811 0)
(-0.0298502 -0.00858103 0)
(-0.0281922 -0.0086564 0)
(-0.0265214 -0.0086931 0)
(-0.0248447 -0.00869016 0)
(-0.0231694 -0.00864675 0)
(-0.0215031 -0.00856223 0)
(-0.0198531 -0.00843615 0)
(-0.0182269 -0.0082683 0)
(-0.0166321 -0.00805867 0)
(-0.0150761 -0.00780759 0)
(-0.013566 -0.00751566 0)
(-0.0121092 -0.00718387 0)
(-0.0107124 -0.0068136 0)
(-0.00938229 -0.00640671 0)
(-0.00812501 -0.00596559 0)
(-0.0069463 -0.00549327 0)
(-0.00585133 -0.0049935 0)
(-0.00484463 -0.00447089 0)
(-0.00393001 -0.00393102 0)
(-0.00311044 -0.00338068 0)
(-0.00238795 -0.002828 0)
(-0.0017636 -0.00228276 0)
(-0.00123737 -0.00175662 0)
(-0.000808161 -0.0012635 0)
(-0.000473536 -0.000819962 0)
(-0.000229565 -0.000445525 0)
(-7.39709e-05 -0.000163208 0)
(-9.14604e-06 -2.00904e-06 0)
(-1.32495e-05 5.52874e-05 0)
(-9.9822e-05 0.000336915 0)
(-0.000300471 0.000745574 0)
(-0.00060713 0.00124401 0)
(-0.00101876 0.00180759 0)
(-0.00153711 0.00241617 0)
(-0.00216261 0.00305254 0)
(-0.00289452 0.00370217 0)
(-0.00373122 0.00435285 0)
(-0.00467025 0.00499437 0)
(-0.0057083 0.00561826 0)
(-0.00684128 0.00621752 0)
(-0.00806445 0.00678646 0)
(-0.00937244 0.00732045 0)
(-0.0107594 0.00781581 0)
(-0.0122189 0.00826968 0)
(-0.0137443 0.00867987 0)
(-0.0153285 0.00904476 0)
(-0.0169645 0.00936326 0)
(-0.0186447 0.00963468 0)
(-0.0203617 0.00985874 0)
(-0.0221078 0.0100354 0)
(-0.0238756 0.010165 0)
(-0.0256573 0.010248 0)
(-0.0274457 0.0102851 0)
(-0.0292332 0.0102773 0)
(-0.0310126 0.0102254 0)
(-0.0327768 0.0101307 0)
(-0.0345188 0.00999449 0)
(-0.0362318 0.00981801 0)
(-0.0379094 0.00960272 0)
(-0.0395452 0.00935012 0)
(-0.0411331 0.00906176 0)
(-0.0426673 0.00873925 0)
(-0.0441423 0.00838422 0)
(-0.0455527 0.00799837 0)
(-0.0468935 0.00758341 0)
(-0.04816 0.0071411 0)
(-0.0493477 0.00667321 0)
(-0.0504525 0.00618155 0)
(-0.0514706 0.00566795 0)
(-0.0523984 0.00513426 0)
(-0.0532327 0.00458236 0)
(-0.0539706 0.00401415 0)
(-0.0546096 0.00343155 0)
(-0.0551474 0.00283652 0)
(-0.055582 0.00223101 0)
(-0.0559119 0.00161703 0)
(-0.0561359 0.000996587 0)
(-0.056253 0.000371731 0)
(-0.0562627 -0.000255476 0)
(-0.0561648 -0.000882948 0)
(-0.0559594 -0.00150857 0)
(-0.0556471 -0.00213021 0)
(-0.0552287 -0.00274572 0)
(-0.0547054 -0.00335292 0)
(-0.0540789 -0.00394964 0)
(-0.053351 -0.00453366 0)
(-0.0525243 -0.00510279 0)
(-0.0516012 -0.00565481 0)
(-0.0505849 -0.0061875 0)
(-0.0494789 -0.00669866 0)
(-0.0482868 -0.00718609 0)
(-0.047013 -0.0076476 0)
(-0.0456618 -0.00808105 0)
(-0.0442381 -0.00848432 0)
(-0.0427472 -0.00885531 0)
(-0.0411946 -0.00919202 0)
(-0.0395861 -0.00949248 0)
(-0.0379279 -0.0097548 0)
(-0.0362265 -0.00997718 0)
(-0.0344885 -0.0101579 0)
(-0.032721 -0.0102955 0)