/*--------------------------------*- C++ -*----------------------------------*\
  =========                 |
  \\      /  F ield         | OpenFOAM: The Open Source CFD Toolbox
   \\    /   O peration     | Website:  https://openfoam.org
    \\  /    A nd           | Version:  11
     \\/     M anipulation  |
\*---------------------------------------------------------------------------*/
FoamFile
{
    format      ascii;
    class       volScalarField;
    location    "1";
    object      p;
}
// * * * * * * * * * * * * * * * * * * * * * * * * * * * * * * * * * * * * * //

dimensions      [0 2 -2 0 0 0 0];

internalField   nonuniform List<scalar> 
10100
(
1.2651e-07
-3.67685e-05
-0.000334285
-0.000853563
-0.0016373
-0.00275102
-0.0042758
-0.00624743
-0.00867565
-0.0115078
-0.0146236
-0.0178812
-0.0211352
-0.0242781
-0.0271972
-0.0297895
-0.031925
-0.0334838
-0.034431
-0.0347749
-0.0345342
-0.0337428
-0.0324556
-0.0307593
-0.0287743
-0.0266241
-0.0243857
-0.0220809
-0.019709
-0.0172645
-0.0147336
-0.0120975
-0.00934608
-0.00648126
-0.00350319
-0.000403358
0.00282054
0.00615768
0.00959566
0.0131255
0.0167369
0.0204153
0.0241454
0.0279259
0.031772
0.035698
0.0397049
0.0437842
0.0479229
0.052099
0.056275
0.0603912
0.0643758
0.0681661
0.0717272
0.0750485
0.0781333
0.0809997
0.0836803
0.0862117
0.0886207
0.0909148
0.0930768
0.0950698
0.0968596
0.0984422
0.0998475
0.10112
0.102299
0.103418
0.104503
0.105571
0.106618
0.107626
0.108574
0.109443
0.110229
0.110932
0.111558
0.112102
0.112538
0.112839
0.112997
0.113038
0.113012
0.112962
0.112899
0.112802
0.112647
0.112423
0.112146
0.111842
0.111525
0.111195
0.110853
0.110511
0.110185
0.109874
0.109593
0.109429
-0.000325881
-0.000854654
-0.0015498
-0.00240416
-0.00344253
-0.00469731
-0.00617909
-0.00795003
-0.0100188
-0.0123785
-0.0149642
-0.0176701
-0.0203838
-0.0229804
-0.0253869
-0.0275275
-0.029303
-0.0306109
-0.0313801
-0.0315952
-0.0312929
-0.0305218
-0.029337
-0.0278062
-0.0260125
-0.024044
-0.0219643
-0.0198006
-0.0175606
-0.0152406
-0.0128225
-0.0102866
-0.00762921
-0.00485396
-0.00195854
0.00106158
0.00420476
0.00746219
0.010824
0.0142839
0.0178303
0.0214379
0.0250832
0.0287663
0.0325035
0.036308
0.0401843
0.0441297
0.0481323
0.0521696
0.0562043
0.0601781
0.0640197
0.0676727
0.0711095
0.0743187
0.0772991
0.0800705
0.0826739
0.0851506
0.0875242
0.089797
0.0919484
0.0939383
0.0957309
0.0973236
0.0987481
0.100045
0.101249
0.102388
0.103492
0.104581
0.105646
0.106662
0.1076
0.108448
0.109211
0.109901
0.110523
0.111064
0.111496
0.111787
0.11193
0.111958
0.111922
0.111862
0.111786
0.111672
0.111501
0.11127
0.111004
0.110727
0.110451
0.110172
0.109903
0.109673
0.109502
0.109366
0.109269
0.109285
-0.000142342
-0.00125496
-0.00234752
-0.00352915
-0.00479993
-0.00616931
-0.00765947
-0.00929344
-0.0111217
-0.0131345
-0.015314
-0.0175974
-0.0198881
-0.0220756
-0.0240733
-0.0258263
-0.0272893
-0.0283737
-0.0289895
-0.0291077
-0.0287444
-0.0279553
-0.0268126
-0.025377
-0.0237127
-0.0218834
-0.0199316
-0.017883
-0.0157525
-0.0135349
-0.0112109
-0.00876407
-0.00619118
-0.00349328
-0.000664367
0.00229653
0.00537777
0.00856952
0.011868
0.0152655
0.0187452
0.0222815
0.0258528
0.029459
0.033116
0.0368335
0.0406133
0.0444568
0.0483571
0.0522876
0.0562039
0.0600496
0.063764
0.0672996
0.0706323
0.0737508
0.0766505
0.0793495
0.0818934
0.0843309
0.086684
0.0889445
0.091084
0.0930644
0.0948558
0.0964572
0.0978976
0.0992152
0.100442
0.101606
0.102736
0.103848
0.104929
0.105943
0.106861
0.107683
0.108427
0.109111
0.109732
0.110268
0.110684
0.110954
0.11108
0.111098
0.111059
0.110997
0.110914
0.110787
0.110599
0.11036
0.110098
0.109836
0.109576
0.109319
0.109087
0.108926
0.108857
0.108847
0.108892
0.109065
0.000382254
-0.00136368
-0.0029256
-0.00445019
-0.00595666
-0.00741548
-0.00890295
-0.0104507
-0.0121029
-0.0138785
-0.0157464
-0.0176789
-0.0196128
-0.0214581
-0.0231216
-0.0245489
-0.0256972
-0.0265335
-0.026995
-0.0270339
-0.0266432
-0.0258606
-0.0247467
-0.0233692
-0.0217958
-0.0200737
-0.0182288
-0.0162812
-0.0142424
-0.0121028
-0.00984715
-0.00747021
-0.0049691
-0.002336
0.000435978
0.00334213
0.0063675
0.00950355
0.0127488
0.0160909
0.0195057
0.0229713
0.0264777
0.0300275
0.033627
0.0372773
0.040978
0.0447325
0.0485362
0.0523618
0.056162
0.059883
0.0634757
0.0669058
0.0701534
0.0732018
0.0760404
0.0786889
0.0811993
0.0836197
0.0859637
0.0882147
0.0903453
0.0923246
0.0941274
0.0957513
0.0972211
0.0985711
0.0998299
0.101024
0.102181
0.103312
0.104395
0.105391
0.106278
0.107071
0.107801
0.108482
0.109098
0.109615
0.110001
0.110241
0.11035
0.110366
0.110335
0.110281
0.110198
0.110063
0.109868
0.109628
0.109374
0.10912
0.108862
0.108601
0.108375
0.108239
0.108222
0.108299
0.108456
0.108739
0.000962409
-0.00134947
-0.0033322
-0.0051831
-0.00686894
-0.00841144
-0.009871
-0.0113337
-0.012858
-0.0144514
-0.016099
-0.0177643
-0.0194008
-0.0209649
-0.0223687
-0.0235463
-0.0244587
-0.0250747
-0.0253723
-0.0253251
-0.0249173
-0.0241585
-0.0230858
-0.0217641
-0.0202572
-0.0186053
-0.0168356
-0.0149674
-0.0129995
-0.0109179
-0.00871565
-0.00639351
-0.00394471
-0.0013574
0.00136988
0.0042253
0.00719734
0.010284
0.0134815
0.0167707
0.0201253
0.0235285
0.0269791
0.0304822
0.0340355
0.0376288
0.0412584
0.0449304
0.0486396
0.0523541
0.0560294
0.0596254
0.0631073
0.0664456
0.0696185
0.0726064
0.0753982
0.0780149
0.0805091
0.0829246
0.0852648
0.0875073
0.0896306
0.0916152
0.0934394
0.095094
0.0965953
0.0979741
0.0992603
0.10048
0.101655
0.102788
0.103854
0.104818
0.105673
0.106445
0.107168
0.107846
0.108453
0.10895
0.109309
0.109529
0.109632
0.109658
0.109641
0.109598
0.109521
0.109392
0.109207
0.108985
0.10875
0.108506
0.108245
0.107977
0.107748
0.10762
0.107633
0.107772
0.108004
0.108341
0.00132856
-0.00140679
-0.00368654
-0.00574701
-0.00757358
-0.00914706
-0.0105936
-0.0119845
-0.0133872
-0.0148525
-0.0163513
-0.0178253
-0.0192506
-0.0205806
-0.0217719
-0.0227641
-0.0235219
-0.0239989
-0.024178
-0.0240514
-0.0236136
-0.0228686
-0.0218408
-0.0205753
-0.01912
-0.0175158
-0.0157962
-0.0139761
-0.0120501
-0.0100091
-0.0078511
-0.00557083
-0.0031553
-0.000596401
0.00209947
0.00491698
0.00784786
0.0108944
0.0140493
0.0172875
0.0205866
0.0239416
0.0273536
0.0308187
0.0343272
0.0378681
0.0414367
0.0450348
0.0486518
0.0522539
0.0558043
0.0592807
0.0626632
0.0659233
0.0690313
0.0719656
0.0747208
0.0773213
0.0798151
0.082234
0.0845719
0.0868074
0.0889297
0.0909288
0.0927806
0.0944642
0.0959884
0.0973861
0.098691
0.0999266
0.101106
0.102226
0.103265
0.104201
0.10504
0.105813
0.106546
0.10723
0.107831
0.108313
0.108659
0.108878
0.108993
0.109034
0.109027
0.108985
0.108904
0.108778
0.108608
0.108409
0.108192
0.107953
0.107687
0.107414
0.107187
0.107065
0.107096
0.107272
0.107528
0.107853
0.00132114
-0.00165769
-0.00412536
-0.00630895
-0.00819088
-0.00977767
-0.0111812
-0.0125127
-0.01384
-0.0151921
-0.0165644
-0.0179136
-0.0191876
-0.0203394
-0.0213518
-0.0221914
-0.0228216
-0.0232087
-0.0233215
-0.023146
-0.0226837
-0.0219422
-0.0209426
-0.0197178
-0.0183029
-0.0167374
-0.0150538
-0.0132624
-0.0113602
-0.00934799
-0.00722504
-0.00497501
-0.0025795
-3.97969e-05
0.00263058
0.00542215
0.00833074
0.0113506
0.014466
0.0176545
0.020906
0.0242248
0.0276093
0.0310428
0.0345091
0.0380013
0.0415166
0.0450485
0.0485768
0.0520682
0.0555004
0.0588705
0.0621669
0.065355
0.0684001
0.0712871
0.0740198
0.0766206
0.0791237
0.0815488
0.0838872
0.0861248
0.0882599
0.0902837
0.0921637
0.09387
0.0954096
0.0968213
0.0981405
0.0993837
0.100556
0.101655
0.10267
0.103597
0.104448
0.105248
0.106009
0.10671
0.107313
0.107788
0.108132
0.108361
0.108492
0.108541
0.108524
0.108459
0.108357
0.108226
0.108067
0.107885
0.107675
0.107433
0.107162
0.10689
0.106665
0.106543
0.106575
0.106754
0.106983
0.107244
0.000867001
-0.00221447
-0.00473468
-0.0069625
-0.00885974
-0.0104254
-0.0117742
-0.0130423
-0.0142997
-0.0155557
-0.0168109
-0.0180447
-0.0191924
-0.0202265
-0.0211045
-0.0218163
-0.0223331
-0.0226353
-0.022695
-0.0224904
-0.0220141
-0.0212755
-0.0202934
-0.019091
-0.0177035
-0.0161707
-0.014515
-0.0127438
-0.0108649
-0.00888273
-0.00678647
-0.0045539
-0.00217307
0.000347773
0.0029979
0.00577518
0.00867317
0.0116728
0.0147515
0.017897
0.0211124
0.0244044
0.0277627
0.0311638
0.0345941
0.0380505
0.0415231
0.0449923
0.048434
0.051825
0.0551579
0.0584397
0.0616585
0.0647753
0.0677597
0.07061
0.0733364
0.0759497
0.0784665
0.0809002
0.0832484
0.0855043
0.0876668
0.0897206
0.0916258
0.0933493
0.0949019
0.0963265
0.0976556
0.0988964
0.100049
0.101123
0.102126
0.103063
0.103943
0.104778
0.105567
0.106284
0.106889
0.107363
0.10771
0.107949
0.108089
0.108134
0.108095
0.107997
0.107872
0.10774
0.107599
0.107433
0.107225
0.106969
0.106685
0.106407
0.106174
0.106031
0.106038
0.106183
0.106351
0.106516
-9.58264e-05
-0.00313207
-0.00560721
-0.00777793
-0.00965318
-0.0111736
-0.0124717
-0.013663
-0.0148302
-0.0159995
-0.0171476
-0.0182486
-0.0192779
-0.0202059
-0.0209858
-0.0215955
-0.0220197
-0.0222396
-0.0222368
-0.0219969
-0.0215065
-0.0207662
-0.0197915
-0.0186061
-0.0172423
-0.0157323
-0.0140972
-0.0123516
-0.0105057
-0.00855459
-0.00647951
-0.00426316
-0.00190101
0.000602303
0.00324341
0.00601723
0.00890566
0.0118824
0.0149303
0.0180472
0.0212388
0.0245065
0.0278362
0.0312079
0.0346147
0.038051
0.041491
0.044903
0.0482684
0.0515792
0.0548366
0.0580452
0.0611904
0.0642374
0.0671695
0.0699981
0.0727309
0.0753617
0.0778935
0.080342
0.0827144
0.0850048
0.0872028
0.0892853
0.0912114
0.0929516
0.0945196
0.0959563
0.0972862
0.0985089
0.0996288
0.100673
0.101667
0.10262
0.103524
0.104377
0.105172
0.105887
0.106488
0.106959
0.107309
0.107556
0.107706
0.107752
0.107702
0.107589
0.107461
0.107347
0.107237
0.107094
0.106881
0.1066
0.106286
0.105981
0.105717
0.105531
0.105485
0.105572
0.105658
0.105713
-0.00155628
-0.00442862
-0.00676009
-0.00880517
-0.0105827
-0.012059
-0.0133009
-0.0144065
-0.0154765
-0.0165415
-0.0175858
-0.0185681
-0.0194809
-0.0202874
-0.0209742
-0.0214967
-0.0218346
-0.0219777
-0.0219138
-0.0216242
-0.0211011
-0.0203509
-0.0193811
-0.0182073
-0.0168602
-0.0153717
-0.0137631
-0.0120494
-0.0102366
-0.00831427
-0.00626342
-0.00406991
-0.00172761
0.000765129
0.00340563
0.0061793
0.00905714
0.0120126
0.0150386
0.0181387
0.0213125
0.0245553
0.0278585
0.0312122
0.034611
0.0380379
0.0414517
0.0448173
0.0481279
0.0513847
0.0545848
0.0577265
0.0607997
0.0637849
0.0666797
0.0694999
0.0722435
0.07489
0.0774388
0.0799131
0.0823235
0.084655
0.0868858
0.0889916
0.0909385
0.0927008
0.094288
0.095732
0.0970495
0.0982388
0.0993148
0.100323
0.101303
0.102258
0.103164
0.104006
0.10478
0.105475
0.106065
0.106534
0.10689
0.107152
0.107324
0.107393
0.10736
0.107259
0.10715
0.107068
0.106995
0.106871
0.106648
0.106335
0.10598
0.105632
0.105315
0.105065
0.104949
0.104961
0.104957
0.104891
-0.00340669
-0.00603761
-0.00817495
-0.0100307
-0.0116569
-0.0130485
-0.0142325
-0.0152663
-0.0162373
-0.0171924
-0.0181233
-0.0190036
-0.01981
-0.0205107
-0.0210839
-0.0215103
-0.0217709
-0.0218382
-0.0216974
-0.0213475
-0.0207899
-0.0200192
-0.0190374
-0.0178677
-0.0165405
-0.015077
-0.0134954
-0.0118127
-0.0100317
-0.00813678
-0.0061098
-0.00393872
-0.00161233
0.00087599
0.00351807
0.00628873
0.00915558
0.012097
0.0151106
0.0181966
0.0213482
0.0245651
0.0278517
0.0312021
0.0346013
0.0380202
0.041413
0.0447495
0.0480296
0.051251
0.0543998
0.0574748
0.0604823
0.06342
0.0662914
0.0691077
0.0718592
0.0745202
0.0770916
0.0796008
0.0820533
0.0844211
0.0866765
0.0888036
0.0907787
0.0925732
0.0941831
0.0956289
0.0969254
0.0980769
0.0991099
0.100082
0.101041
0.101982
0.10287
0.103682
0.10442
0.105088
0.105669
0.106144
0.106516
0.106802
0.107009
0.107117
0.107118
0.107044
0.106957
0.106899
0.106846
0.106728
0.106493
0.106152
0.10576
0.105364
0.104983
0.104655
0.104458
0.104387
0.104282
0.104084
-0.00553458
-0.0078586
-0.00976586
-0.0114156
-0.012864
-0.0141142
-0.0152278
-0.0162096
-0.0170901
-0.0179367
-0.0187671
-0.0195606
-0.0202598
-0.0208617
-0.0213388
-0.0216726
-0.0218359
-0.0218119
-0.0215955
-0.021185
-0.020577
-0.0197688
-0.018771
-0.0176054
-0.0162909
-0.0148455
-0.0132891
-0.0116345
-0.00987794
-0.0080039
-0.0059969
-0.00384186
-0.00152276
0.000964258
0.00360243
0.00636401
0.00922141
0.0121544
0.0151549
0.0182181
0.0213406
0.0245348
0.0278141
0.0311656
0.0345617
0.0379705
0.0413512
0.0446758
0.0479389
0.0511279
0.0542241
0.0572369
0.0601919
0.0630963
0.065951
0.0687624
0.0715202
0.0741995
0.0768002
0.0793454
0.0818325
0.0842262
0.0865018
0.0886566
0.0906735
0.0925131
0.0941521
0.095602
0.0968826
0.0980085
0.0990137
0.0999607
0.100899
0.101823
0.102691
0.103472
0.104179
0.104825
0.105403
0.105892
0.106286
0.106599
0.106836
0.106979
0.107012
0.106959
0.106882
0.106823
0.106764
0.106635
0.106387
0.106027
0.105606
0.10516
0.10471
0.104303
0.104023
0.103862
0.103644
0.1033
-0.00784461
-0.00981666
-0.011449
-0.0128862
-0.0141601
-0.0152742
-0.0162841
-0.0171936
-0.0180175
-0.0187919
-0.0195299
-0.0202201
-0.0208391
-0.021356
-0.0217394
-0.0219741
-0.0220401
-0.0219252
-0.0216243
-0.0211399
-0.0204722
-0.0196236
-0.0186068
-0.0174365
-0.0161256
-0.014692
-0.0131529
-0.0115142
-0.00977036
-0.00790887
-0.00591356
-0.00376547
-0.00144965
0.00103149
0.00365824
0.00640719
0.00925332
0.0121702
0.0151443
0.0181746
0.0212675
0.0244431
0.0277136
0.0310576
0.0344438
0.0378457
0.0412245
0.0445442
0.0477892
0.0509422
0.0539892
0.0569532
0.0598721
0.0627545
0.0655964
0.0684057
0.0711767
0.0738824
0.0765146
0.0790888
0.0815992
0.0840122
0.086312
0.0885072
0.0905811
0.0924785
0.0941567
0.0956226
0.0969058
0.0980305
0.0990317
0.09997
0.100898
0.101812
0.102669
0.103433
0.104116
0.104746
0.105322
0.105823
0.106234
0.106563
0.106815
0.106976
0.107027
0.106986
0.106906
0.106829
0.106741
0.106587
0.106323
0.105951
0.105501
0.105002
0.104484
0.104005
0.103648
0.103391
0.103044
0.102544
-0.0102533
-0.0118452
-0.0131816
-0.0143877
-0.0155125
-0.0165034
-0.0174048
-0.018251
-0.0190254
-0.0197342
-0.0204046
-0.0210144
-0.021552
-0.0219769
-0.0222749
-0.0224176
-0.0223839
-0.0221712
-0.0217837
-0.0212233
-0.0204916
-0.0195993
-0.0185603
-0.0173808
-0.0160674
-0.014636
-0.0131014
-0.0114661
-0.00972383
-0.00786318
-0.00586889
-0.00372403
-0.00141638
0.00105168
0.0036627
0.00639436
0.00921823
0.0121033
0.0150392
0.0180348
0.021101
0.0242565
0.0275104
0.0308396
0.0342162
0.0376175
0.0409983
0.04431
0.0475322
0.0506524
0.0536641
0.0565979
0.0594967
0.0623688
0.0652087
0.0680283
0.0708252
0.0735648
0.0762249
0.0788172
0.0813431
0.0837781
0.086113
0.0883603
0.0905007
0.0924645
0.0941925
0.0956884
0.0969933
0.0981397
0.0991584
0.100103
0.101029
0.101943
0.102798
0.103555
0.104219
0.104826
0.10539
0.105892
0.10631
0.106643
0.106896
0.107059
0.10712
0.107089
0.107008
0.10691
0.106789
0.106603
0.10632
0.105931
0.105448
0.104895
0.104316
0.103779
0.103349
0.102985
0.102498
0.101837
-0.0126475
-0.0139136
-0.0149574
-0.0159085
-0.0168787
-0.0177826
-0.018603
-0.0193776
-0.0201074
-0.0207774
-0.0213836
-0.0219237
-0.0223799
-0.0227249
-0.0229329
-0.0229748
-0.0228439
-0.0225415
-0.0220692
-0.0214301
-0.020638
-0.019711
-0.0186531
-0.0174599
-0.0161379
-0.0147036
-0.0131662
-0.0115233
-0.00976976
-0.00789977
-0.00590219
-0.00376191
-0.00146582
0.000986339
0.00357726
0.00628236
0.00907229
0.0119184
0.0148171
0.0177827
0.0208246
0.0239584
0.0271946
0.0305129
0.0338861
0.0372891
0.0406683
0.0439679
0.0471702
0.0502703
0.0532651
0.0561867
0.0590816
0.0619599
0.0648165
0.0676643
0.0704984
0.0732727
0.0759538
0.078556
0.0810959
0.0835597
0.0859385
0.0882423
0.0904489
0.0924795
0.0942623
0.0957971
0.0971336
0.0983124
0.0993597
0.100321
0.101254
0.102172
0.103033
0.103786
0.104431
0.105009
0.105549
0.106039
0.106455
0.106787
0.107035
0.107198
0.107268
0.107252
0.107178
0.107068
0.106919
0.106705
0.106401
0.10599
0.105472
0.10487
0.104241
0.103655
0.103149
0.102668
0.102036
0.101216
-0.0149576
-0.0159701
-0.0167681
-0.0174823
-0.0182736
-0.0190879
-0.019862
-0.0205898
-0.0212712
-0.0218967
-0.0224493
-0.0229314
-0.0233079
-0.0235655
-0.0236758
-0.0236237
-0.0234048
-0.0230145
-0.0224578
-0.0217533
-0.0209233
-0.0199747
-0.0188986
-0.0176927
-0.016367
-0.0149304
-0.0133822
-0.0117203
-0.00994829
-0.00806622
-0.00606339
-0.00392432
-0.00163689
0.000798605
0.00336468
0.00603859
0.00879521
0.0116096
0.0144809
0.0174243
0.0204477
0.0235666
0.0267944
0.03011
0.0334828
0.0368843
0.0402575
0.0435461
0.0467379
0.0498325
0.0528259
0.0557506
0.0586589
0.0615642
0.0644572
0.0673455
0.0702197
0.0730252
0.075722
0.0783315
0.0808873
0.0833844
0.0858082
0.0881619
0.0904234
0.0925127
0.0943481
0.0959222
0.0972903
0.0985027
0.0995851
0.100575
0.101526
0.102458
0.103331
0.104089
0.104723
0.105276
0.105792
0.10627
0.106682
0.10701
0.107253
0.107416
0.107497
0.107497
0.107432
0.107314
0.107144
0.10691
0.106587
0.106155
0.105604
0.104962
0.104293
0.103654
0.10306
0.102454
0.101679
0.100703
-0.0171427
-0.0179636
-0.0185936
-0.0191012
-0.0197247
-0.0204473
-0.0211721
-0.0218647
-0.0225115
-0.0230918
-0.0235958
-0.0240075
-0.0243058
-0.0244716
-0.0244879
-0.0243489
-0.0240424
-0.0235682
-0.0229462
-0.022204
-0.0213558
-0.0203934
-0.0193076
-0.0181019
-0.0167804
-0.015338
-0.0137705
-0.0120846
-0.0102919
-0.00839381
-0.00637867
-0.00423392
-0.0019514
0.00046896
0.00301306
0.00566269
0.00839688
0.0111918
0.0140473
0.0169801
0.0199972
0.0231133
0.0263412
0.0296565
0.0330257
0.0364209
0.0397868
0.0430685
0.0462573
0.049356
0.0523598
0.0553026
0.0582421
0.0611921
0.0641336
0.0670652
0.0699753
0.0728077
0.0755205
0.0781409
0.0807155
0.0832452
0.0857083
0.0881004
0.0904015
0.0925345
0.094413
0.0960228
0.097422
0.0986711
0.0997994
0.100837
0.101828
0.102792
0.103692
0.104468
0.105108
0.105657
0.106167
0.106643
0.107054
0.107377
0.107612
0.107773
0.107864
0.10788
0.107818
0.107686
0.107493
0.107236
0.106897
0.106445
0.105865
0.105188
0.104475
0.103772
0.103078
0.102346
0.101429
0.100294
-0.0191856
-0.0198577
-0.020371
-0.0207387
-0.0212189
-0.0218484
-0.0225314
-0.0231983
-0.0238169
-0.0243591
-0.0248114
-0.0251474
-0.0253654
-0.0254426
-0.0253708
-0.0251432
-0.0247525
-0.0242137
-0.0235544
-0.0227958
-0.0219384
-0.0209715
-0.0198917
-0.0186981
-0.0173798
-0.0159241
-0.014333
-0.0126218
-0.0108041
-0.00888138
-0.00684537
-0.00468955
-0.00240758
4.70865e-06
0.00253707
0.00517366
0.00789622
0.0106825
0.0135342
0.0164691
0.0194911
0.0226105
0.025838
0.0291485
0.032509
0.035895
0.0392533
0.0425297
0.0457192
0.0488289
0.051855
0.0548308
0.0578155
0.0608194
0.0638123
0.0667845
0.0697266
0.0725868
0.0753217
0.0779596
0.0805556
0.0831159
0.0856127
0.0880341
0.0903615
0.0925243
0.0944363
0.0960796
0.0975155
0.0988138
0.100007
0.101116
0.102172
0.103188
0.10413
0.104941
0.105609
0.106178
0.106702
0.107189
0.107605
0.107923
0.108148
0.108307
0.108411
0.108442
0.108381
0.108226
0.107998
0.10771
0.107347
0.10687
0.106259
0.105541
0.104774
0.103994
0.103196
0.102337
0.101274
0.0999762
-0.0210901
-0.0216322
-0.0220428
-0.0223297
-0.0227204
-0.0232802
-0.0239317
-0.0245854
-0.0251859
-0.0257007
-0.0260991
-0.0263699
-0.0265064
-0.0264984
-0.0263402
-0.0260246
-0.0255636
-0.0249833
-0.0243056
-0.0235375
-0.0226749
-0.0217142
-0.020651
-0.0194688
-0.0181438
-0.0166673
-0.0150513
-0.0133133
-0.0114647
-0.00950971
-0.00744724
-0.00527605
-0.00298862
-0.00057609
0.00195323
0.00458455
0.00730347
0.0100908
0.0129488
0.0158934
0.0189227
0.0220429
0.0252656
0.0285675
0.0319168
0.0352918
0.038642
0.0419155
0.0451115
0.0482427
0.0513049
0.0543264
0.0573626
0.0604202
0.0634628
0.0664755
0.0694521
0.0723461
0.0751129
0.0777781
0.0804003
0.0829911
0.0855196
0.0879666
0.0903131
0.0924962
0.0944364
0.0961184
0.0976056
0.0989717
0.100249
0.101445
0.102578
0.103655
0.104647
0.105502
0.106209
0.106813
0.107364
0.107869
0.108291
0.108604
0.108826
0.108994
0.109121
0.109178
0.109121
0.108942
0.108672
0.108344
0.107948
0.107437
0.106783
0.106015
0.105186
0.104327
0.103425
0.102436
0.101221
0.0997524
-0.0228134
-0.0232617
-0.0235984
-0.0238348
-0.0241905
-0.024725
-0.0253679
-0.0260264
-0.0266273
-0.0271251
-0.0274821
-0.0276979
-0.0277588
-0.0276669
-0.0274217
-0.02703
-0.0265177
-0.0259078
-0.0252117
-0.0244313
-0.0235683
-0.0226209
-0.0215705
-0.0203848
-0.0190411
-0.0175413
-0.0159022
-0.0141363
-0.0122524
-0.0102612
-0.00817013
-0.00598098
-0.00368379
-0.00126587
0.00126581
0.00389841
0.00662182
0.00941839
0.012288
0.0152431
0.018278
0.0213975
0.0246157
0.0279108
0.0312507
0.0346161
0.0379622
0.0412419
0.0444579
0.0476251
0.0507357
0.0538094
0.0568966
0.0600047
0.063096
0.0661525
0.0691697
0.0721055
0.0749148
0.0776183
0.0802753
0.0829011
0.0854628
0.0879338
0.090295
0.0924941
0.0944644
0.0961959
0.0977512
0.099201
0.10057
0.101853
0.103056
0.104186
0.10522
0.106118
0.106868
0.107509
0.108087
0.108605
0.109032
0.109346
0.109577
0.109771
0.109939
0.110033
0.10999
0.109795
0.109491
0.109126
0.108695
0.108143
0.107442
0.106619
0.10573
0.104795
0.103787
0.102662
0.101291
0.0996508
-0.0242854
-0.0247198
-0.0250265
-0.0252469
-0.0256134
-0.0261682
-0.0268395
-0.0275276
-0.028148
-0.0286425
-0.0289813
-0.0291471
-0.029139
-0.0289675
-0.0286453
-0.0281957
-0.0276413
-0.0269973
-0.026275
-0.0254831
-0.0246246
-0.0236845
-0.0226273
-0.0214209
-0.0200555
-0.0185388
-0.0168798
-0.0150829
-0.0131601
-0.0111328
-0.00901482
-0.006807
-0.00449552
-0.00206492
0.000477955
0.00312137
0.00585802
0.00866985
0.0115541
0.0145219
0.0175662
0.0206914
0.0239127
0.0272083
0.0305453
0.0339088
0.0372634
0.0405662
0.0438183
0.0470321
0.050196
0.0533222
0.0564573
0.0596128
0.0627536
0.0658579
0.068919
0.0719
0.0747589
0.0775119
0.0802136
0.0828794
0.085475
0.0879685
0.090342
0.0925575
0.0945646
0.0963587
0.097996
0.0995365
0.100993
0.102349
0.103605
0.10477
0.105837
0.106772
0.107564
0.10824
0.108839
0.109364
0.109791
0.110114
0.110368
0.110603
0.11082
0.110955
0.110932
0.110735
0.110415
0.11003
0.109573
0.108986
0.10824
0.107371
0.106429
0.105419
0.104298
0.103033
0.10151
0.0996993
-0.0254818
-0.0259899
-0.0263294
-0.0265838
-0.0270001
-0.0276122
-0.0283454
-0.029092
-0.029752
-0.0302591
-0.0305873
-0.0307122
-0.0306469
-0.0304107
-0.0300297
-0.0295312
-0.0289318
-0.0282497
-0.0275044
-0.0267065
-0.0258466
-0.0248929
-0.0238096
-0.02258
-0.0212026
-0.0196752
-0.0179929
-0.0161591
-0.0141971
-0.0121382
-0.00999513
-0.00776259
-0.00542434
-0.0029664
-0.000398948
0.00226568
0.00502324
0.00785692
0.0107631
0.0137526
0.0168178
0.0199606
0.0231951
0.0265007
0.0298468
0.0332238
0.0366043
0.039947
0.0432461
0.0465086
0.0497229
0.0528987
0.0560799
0.059281
0.0624704
0.0656221
0.0687264
0.0717521
0.0746634
0.0774724
0.0802245
0.0829309
0.0855567
0.0880692
0.0904557
0.0926937
0.0947484
0.0966166
0.0983428
0.0999723
0.101506
0.102922
0.104218
0.105412
0.106507
0.107482
0.108317
0.10903
0.109649
0.110179
0.110609
0.110946
0.111234
0.111516
0.111778
0.111945
0.111938
0.111747
0.11143
0.111043
0.110574
0.109962
0.109181
0.108272
0.107279
0.106188
0.104947
0.103545
0.10188
0.0999024
-0.0264516
-0.027102
-0.0275415
-0.0278761
-0.0283767
-0.0290791
-0.0298958
-0.0307156
-0.0314264
-0.0319583
-0.032276
-0.0323764
-0.0322736
-0.031992
-0.0315655
-0.0310203
-0.03038
-0.0296712
-0.0289134
-0.0281065
-0.027227
-0.0262425
-0.0251323
-0.0238911
-0.0225085
-0.0209645
-0.0192494
-0.0173769
-0.0153813
-0.0132935
-0.0111171
-0.00884207
-0.00645723
-0.00395645
-0.00135416
0.00133912
0.00412503
0.00699032
0.00993049
0.0129545
0.0160527
0.0192236
0.0224814
0.0258094
0.0291806
0.0325887
0.0360101
0.0394022
0.0427509
0.04606
0.0493224
0.0525487
0.0557773
0.0590232
0.0622582
0.0654545
0.0685994
0.0716684
0.0746325
0.0774984
0.0802987
0.0830385
0.0856858
0.0882131
0.090616
0.0928859
0.094999
0.096949
0.0987652
0.100478
0.102082
0.103554
0.104893
0.106125
0.10726
0.108281
0.109168
0.109924
0.110568
0.11111
0.11155
0.111909
0.112235
0.112561
0.112858
0.113043
0.113045
0.112864
0.112559
0.112179
0.111703
0.111069
0.110257
0.109309
0.108255
0.107071
0.105712
0.104185
0.102388
0.100248
-0.0272941
-0.0281356
-0.0287202
-0.0291731
-0.0297872
-0.0305964
-0.0315011
-0.0323886
-0.0331492
-0.0337104
-0.0340314
-0.0341227
-0.0339994
-0.0336902
-0.0332303
-0.0326518
-0.0319892
-0.0312691
-0.0305003
-0.0296715
-0.0287594
-0.0277456
-0.0266214
-0.0253745
-0.0239775
-0.0224032
-0.0206517
-0.0187474
-0.0167226
-0.0145969
-0.0123668
-0.0100281
-0.00758322
-0.00503427
-0.00239474
0.000332079
0.00315538
0.00606357
0.00904834
0.0121157
0.0152551
0.0184643
0.0217581
0.0251249
0.0285397
0.0319934
0.0354634
0.038908
0.0423078
0.0456656
0.0489818
0.0522676
0.0555518
0.0588447
0.0621231
0.065362
0.0685476
0.0716595
0.0746735
0.0775905
0.0804302
0.0831926
0.0858516
0.08839
0.0908134
0.0931233
0.0953014
0.097335
0.0992384
0.10103
0.102704
0.10424
0.10564
0.106928
0.10812
0.109199
0.110143
0.110946
0.111623
0.112185
0.112646
0.113035
0.113399
0.113761
0.114084
0.114281
0.114293
0.114125
0.113836
0.113461
0.11297
0.112307
0.111458
0.11046
0.109334
0.108056
0.106591
0.104955
0.103032
0.100733
-0.0281272
-0.0291888
-0.0299443
-0.03054
-0.031276
-0.0321835
-0.0331644
-0.0341093
-0.0349158
-0.0355054
-0.0358458
-0.0359394
-0.03581
-0.0354913
-0.0350179
-0.0344293
-0.0337613
-0.0330327
-0.0322446
-0.031386
-0.0304446
-0.0294132
-0.0282792
-0.0270154
-0.0255878
-0.0239787
-0.0221988
-0.0202698
-0.0182091
-0.0160265
-0.0137242
-0.0113145
-0.00881322
-0.00622239
-0.00354672
-0.000781319
0.00208709
0.00504512
0.00807908
0.0111941
0.0143839
0.0176466
0.0209949
0.0244193
0.0278938
0.0314033
0.0349258
0.038426
0.0418847
0.0453038
0.0486883
0.0520484
0.0554009
0.0587489
0.0620748
0.065359
0.0685877
0.0717418
0.0747996
0.0777572
0.0806249
0.083401
0.086067
0.0886165
0.0910637
0.093417
0.0956602
0.0977749
0.0997631
0.101636
0.103387
0.105003
0.106485
0.107851
0.109114
0.110257
0.111258
0.112108
0.11282
0.11341
0.113897
0.114317
0.114716
0.115108
0.115449
0.11566
0.115687
0.11554
0.115268
0.114891
0.114375
0.113673
0.112776
0.111717
0.110518
0.10916
0.107608
0.105871
0.103828
0.101373
-0.0290575
-0.030348
-0.0312844
-0.0320236
-0.0328658
-0.0338555
-0.034901
-0.0358943
-0.0367381
-0.0373559
-0.0377221
-0.0378325
-0.0377152
-0.0374052
-0.0369382
-0.0363539
-0.0356823
-0.0349386
-0.0341265
-0.033242
-0.0322804
-0.0312331
-0.0300767
-0.0287799
-0.027318
-0.0256837
-0.0238848
-0.0219263
-0.0198131
-0.0175593
-0.0151842
-0.0127155
-0.0101719
-0.00754645
-0.0048331
-0.00202412
0.00089213
0.00390071
0.00698667
0.0101581
0.0134149
0.0167526
0.0201756
0.0236719
0.0272148
0.0307848
0.0343635
0.037927
0.0414587
0.0449565
0.048426
0.051875
0.0553088
0.0587233
0.0621057
0.0654418
0.0687174
0.0719126
0.0750073
0.0779957
0.0808842
0.0836721
0.0863484
0.0889138
0.0913879
0.0937842
0.0960901
0.0982841
0.10036
0.102322
0.104166
0.105881
0.107462
0.108922
0.110264
0.111473
0.11253
0.113428
0.114177
0.114797
0.115313
0.115762
0.116187
0.116598
0.116952
0.117175
0.117221
0.117098
0.116841
0.116456
0.115909
0.11516
0.114209
0.113092
0.111831
0.110409
0.108778
0.106943
0.104779
0.102171
-0.0301449
-0.0316562
-0.0327677
-0.0336404
-0.0345744
-0.0356319
-0.0367322
-0.0377654
-0.0386361
-0.0392863
-0.0396845
-0.0398288
-0.0397399
-0.0394495
-0.0389958
-0.0384147
-0.0377337
-0.0369725
-0.0361402
-0.0352363
-0.0342547
-0.0331802
-0.0319877
-0.0306554
-0.0291699
-0.0275203
-0.0256975
-0.0236929
-0.0215134
-0.0191905
-0.0167584
-0.014248
-0.0116707
-0.00900929
-0.00625378
-0.00339967
-0.000437067
0.00262326
0.00577075
0.00901685
0.0123631
0.0157961
0.0193052
0.0228764
0.0264872
0.030118
0.033756
0.0373901
0.0410069
0.0445967
0.0481616
0.0517076
0.0552319
0.0587235
0.0621715
0.0655655
0.0688908
0.0721278
0.075259
0.0782785
0.081191
0.0839982
0.0866949
0.0892854
0.0917914
0.0942312
0.0965996
0.0988767
0.101049
0.103115
0.105067
0.106894
0.108586
0.110146
0.111572
0.112853
0.11397
0.114921
0.115716
0.116374
0.116923
0.117401
0.117846
0.118267
0.118622
0.118848
0.118906
0.118799
0.118548
0.11815
0.117567
0.116769
0.115767
0.114599
0.113287
0.111802
0.110086
0.108146
0.105858
0.103102
-0.0314027
-0.0331171
-0.0343906
-0.0353926
-0.036418
-0.0375314
-0.0386715
-0.0397393
-0.0406422
-0.0413316
-0.0417717
-0.0419583
-0.0419021
-0.0416326
-0.0411884
-0.0406048
-0.0399137
-0.0391394
-0.0382915
-0.0373679
-0.0363586
-0.0352479
-0.0340191
-0.0326613
-0.0311595
-0.0294868
-0.0276195
-0.0255512
-0.0233045
-0.0209256
-0.0184515
-0.015905
-0.0132897
-0.010586
-0.00778666
-0.00489028
-0.0018823
0.0012379
0.00446472
0.00780609
0.0112576
0.0147923
0.0183847
0.0220227
0.025695
0.0293847
0.0330826
0.0367888
0.040493
0.0441782
0.0478415
0.0514878
0.055108
0.0586845
0.0622058
0.0656629
0.0690424
0.0723286
0.0755085
0.0785755
0.0815297
0.0843727
0.0871039
0.0897307
0.0922759
0.0947639
0.0972002
0.099569
0.10185
0.10403
0.106097
0.108037
0.109837
0.111494
0.113005
0.114363
0.115553
0.116572
0.117426
0.118135
0.118727
0.119242
0.119712
0.120141
0.120491
0.120709
0.120764
0.120658
0.120401
0.11998
0.119358
0.118511
0.11746
0.116244
0.114875
0.113309
0.11149
0.109436
0.107024
0.104128
-0.032822
-0.0347224
-0.0361466
-0.0372733
-0.0383897
-0.0395554
-0.04073
-0.0418359
-0.0427881
-0.0435231
-0.0440095
-0.0442356
-0.0442094
-0.0439588
-0.0435206
-0.0429349
-0.042239
-0.0414563
-0.0405938
-0.0396474
-0.0386068
-0.0374622
-0.0362058
-0.0348261
-0.0332952
-0.0315731
-0.0296378
-0.0274983
-0.0251916
-0.0227663
-0.0202503
-0.0176587
-0.0149964
-0.0122491
-0.00941062
-0.00647454
-0.00341539
-0.000220365
0.00310381
0.00655157
0.0101074
0.0137341
0.0173977
0.0210925
0.0248214
0.0285696
0.0323273
0.0361024
0.0398894
0.0436667
0.0474282
0.0511767
0.0548971
0.058565
0.0621671
0.0656959
0.0691414
0.0724948
0.0757488
0.0788926
0.0819159
0.0848155
0.0875955
0.0902694
0.0928632
0.0954082
0.0979204
0.100388
0.102783
0.105078
0.107252
0.10929
0.111181
0.112923
0.114515
0.115952
0.117225
0.118325
0.119253
0.120025
0.120673
0.121235
0.121741
0.122186
0.122534
0.122741
0.122788
0.122674
0.122402
0.121951
0.121285
0.120388
0.119285
0.118014
0.116566
0.114896
0.112962
0.110795
0.10827
0.105247
-0.0343851
-0.0364572
-0.0380207
-0.039261
-0.0404667
-0.0416946
-0.0429181
-0.0440741
-0.0450823
-0.0458675
-0.0463985
-0.0466616
-0.0466654
-0.0464338
-0.0460039
-0.0454222
-0.0447275
-0.0439402
-0.0430653