/*--------------------------------*- C++ -*----------------------------------*\
  =========                 |
  \\      /  F ield         | OpenFOAM: The Open Source CFD Toolbox
   \\    /   O peration     | Website:  https://openfoam.org
    \\  /    A nd           | Version:  11
     \\/     M anipulation  |
\*---------------------------------------------------------------------------*/
FoamFile
{
    format      ascii;
    class       surfaceScalarField;
    location    "1";
    object      phi;
}
// * * * * * * * * * * * * * * * * * * * * * * * * * * * * * * * * * * * * * //

dimensions      [0 3 -1 0 0 0 0];

internalField   nonuniform List<scalar> 
19980
(
1.43484e-06
-1.4353e-06
4.55999e-06
-3.12511e-06
8.61601e-06
-4.05583e-06
1.33807e-05
-4.76471e-06
1.83402e-05
-4.95963e-06
2.31096e-05
-4.76942e-06
2.72514e-05
-4.14181e-06
3.04225e-05
-3.17122e-06
3.23066e-05
-1.88416e-06
3.26252e-05
-3.18435e-07
3.12145e-05
1.41068e-06
2.796e-05
3.25461e-06
2.28567e-05
5.1033e-06
1.59578e-05
6.899e-06
7.39276e-06
8.5651e-06
-2.62933e-06
1.00221e-05
-1.38033e-05
1.1174e-05
-2.57954e-05
1.1992e-05
-3.82525e-05
1.24571e-05
-5.08475e-05
1.2595e-05
-6.32919e-05
1.24445e-05
-7.53093e-05
1.20174e-05
-8.67055e-05
1.13963e-05
-9.73943e-05
1.06888e-05
-0.000107359
9.96446e-06
-0.00011665
9.29126e-06
-0.000125377
8.72664e-06
-0.000133651
8.27413e-06
-0.000141561
7.9099e-06
-0.000149177
7.61629e-06
-0.000156541
7.36456e-06
-0.000163649
7.10802e-06
-0.000170461
6.81198e-06
-0.000176933
6.47139e-06
-0.000183033
6.09992e-06
-0.000188746
5.71315e-06
-0.000194071
5.32489e-06
-0.000199021
4.95048e-06
-0.000203627
4.60563e-06
-0.000207916
4.28966e-06
-0.000211897
3.98108e-06
-0.00021556
3.66257e-06
-0.000218884
3.32427e-06
-0.000221831
2.94667e-06
-0.000224342
2.51114e-06
-0.000226356
2.01395e-06
-0.000227815
1.45966e-06
-0.000228678
8.62868e-07
-0.000228927
2.48783e-07
-0.000228563
-3.64351e-07
-0.000227587
-9.75656e-07
-0.000226014
-1.57319e-06
-0.00022388
-2.13422e-06
-0.000221235
-2.64441e-06
-0.000218131
-3.10483e-06
-0.000214617
-3.51309e-06
-0.000210753
-3.86451e-06
-0.000206585
-4.16732e-06
-0.000202148
-4.43714e-06
-0.000197467
-4.68169e-06
-0.000192562
-4.90482e-06
-0.000187449
-5.11287e-06
-0.000182149
-5.29965e-06
-0.000176713
-5.43642e-06
-0.000171217
-5.49567e-06
-0.000165734
-5.48284e-06
-0.000160299
-5.43493e-06
-0.000154907
-5.39222e-06
-0.000149527
-5.37964e-06
-0.000144119
-5.40801e-06
-0.000138642
-5.47691e-06
-0.000133069
-5.57314e-06
-0.000127391
-5.67787e-06
-0.00012161
-5.78163e-06
-0.000115721
-5.88842e-06
-0.000109717
-6.00469e-06
-0.000103586
-6.13034e-06
-9.73254e-05
-6.26078e-06
-9.09363e-05
-6.38905e-06
-8.44356e-05
-6.5007e-06
-7.78639e-05
-6.57165e-06
-7.12865e-05
-6.57743e-06
-6.47789e-05
-6.50746e-06
-5.84036e-05
-6.37522e-06
-5.21885e-05
-6.21508e-06
-4.61283e-05
-6.06019e-06
-4.02106e-05
-5.91764e-06
-3.44458e-05
-5.76478e-06
-2.88834e-05
-5.5625e-06
-2.36065e-05
-5.27686e-06
-1.87043e-05
-4.9022e-06
-1.42473e-05
-4.45702e-06
-1.02866e-05
-3.96081e-06
-6.86401e-06
-3.42257e-06
-4.02998e-06
-2.83404e-06
-1.85846e-06
-2.17159e-06
-4.18898e-07
-1.43962e-06
2.35484e-07
-6.54257e-07
1.99081e-07
3.67053e-08
1.9922e-07
1.47811e-06
-2.9133e-06
4.5176e-06
-6.16483e-06
8.64116e-06
-8.17923e-06
1.27841e-05
-8.9075e-06
1.61666e-05
-8.34208e-06
1.80758e-05
-6.67863e-06
1.80881e-05
-4.15404e-06
1.58006e-05
-8.83777e-07
1.09741e-05
2.94238e-06
3.43491e-06
7.22057e-06
-6.93423e-06
1.178e-05
-2.01542e-05
1.64746e-05
-3.61619e-05
2.1111e-05
-5.47792e-05
2.55162e-05
-7.57415e-05
2.95275e-05
-9.87056e-05
3.29864e-05
-0.000123331
3.57996e-05
-0.000149173
3.78343e-05
-0.000175792
3.9076e-05
-0.000202759
3.9562e-05
-0.000229673
3.93582e-05
-0.000256205
3.85494e-05
-0.000282116
3.73073e-05
-0.000307226
3.57987e-05
-0.000331433
3.41722e-05
-0.00035472
3.25783e-05
-0.000377111
3.11169e-05
-0.000398649
2.98122e-05
-0.000419389
2.865e-05
-0.000439373
2.76004e-05
-0.00045861
2.6602e-05
-0.000477077
2.55746e-05
-0.000494728
2.44628e-05
-0.000511513
2.32564e-05
-0.000527385
2.1972e-05
-0.000542308
2.06364e-05
-0.000556267
1.92842e-05
-0.000569267
1.79501e-05
-0.000581316
1.66543e-05
-0.000592418
1.53924e-05
-0.000602572
1.41348e-05
-0.000611756
1.28468e-05
-0.000619932
1.15005e-05
-0.000627049
1.00636e-05
-0.000633043
8.50496e-06
-0.000637846
6.81732e-06
-0.000641406
5.01952e-06
-0.000643689
3.14507e-06
-0.000644674
1.23446e-06
-0.000644362
-6.76719e-07
-0.000642773
-2.565e-06
-0.000639934
-4.41201e-06
-0.000635875
-6.19295e-06
-0.000630636
-7.88319e-06
-0.000624272
-9.46931e-06
-0.000616837
-1.09479e-05
-0.000608382
-1.23195e-05
-0.000598962
-1.3588e-05
-0.000588636
-1.47629e-05
-0.000577457
-1.58601e-05
-0.000565469
-1.68935e-05
-0.000552719
-1.78625e-05
-0.000539275
-1.87435e-05
-0.000525211
-1.95008e-05
-0.000510594
-2.01127e-05
-0.000495485
-2.05924e-05
-0.000479932
-2.09877e-05
-0.000463962
-2.1362e-05
-0.000447573
-2.17691e-05
-0.000430748
-2.22331e-05
-0.000413481
-2.27432e-05
-0.000395786
-2.32688e-05
-0.000377681
-2.3782e-05
-0.00035919
-2.42729e-05
-0.000340333
-2.47455e-05
-0.000321135
-2.5203e-05
-0.000301625
-2.56401e-05
-0.000281842
-2.60432e-05
-0.000261842
-2.63893e-05
-0.000241703
-2.66398e-05
-0.000221531
-2.67443e-05
-0.000201448
-2.66603e-05
-0.000181584
-2.63716e-05
-0.000162063
-2.58954e-05
-0.000143004
-2.52741e-05
-0.000124517
-2.45476e-05
-0.000106714
-2.37202e-05
-8.97245e-05
-2.27548e-05
-7.36953e-05
-2.15917e-05
-5.87972e-05
-2.0175e-05
-4.5213e-05
-1.84866e-05
-3.3119e-05
-1.65511e-05
-2.26743e-05
-1.44055e-05
-1.40187e-05
-1.20782e-05
-7.27185e-06
-9.58086e-06
-2.52359e-06
-6.9198e-06
2.21229e-07
-4.18452e-06
1.12102e-06
-1.55421e-06
6.64885e-07
4.92482e-07
8.64312e-07
-7.16374e-07
-2.19674e-06
-1.41211e-06
-5.46897e-06
-1.66429e-06
-7.92711e-06
-2.93269e-06
-7.63901e-06
-6.34138e-06
-4.93345e-06
-1.24774e-05
-5.42477e-07
-2.16701e-05
5.03875e-06
-3.404e-05
1.14862e-05
-4.95915e-05
1.84939e-05
-6.82337e-05
2.58629e-05
-8.98352e-05
3.33815e-05
-0.000114175
4.08149e-05
-0.000141075
4.80104e-05
-0.000170234
5.46757e-05
-0.000201394
6.0687e-05
-0.00023424
6.58327e-05
-0.000268426
6.99853e-05
-0.000303663
7.3072e-05
-0.000339651
7.50631e-05
-0.000376079
7.59909e-05
-0.00041267
7.59487e-05
-0.000449179
7.50591e-05
-0.000485383
7.3511e-05
-0.000521086
7.15013e-05
-0.000556132
6.92185e-05
-0.000590392
6.68384e-05
-0.000623752
6.44771e-05
-0.000656125
6.21852e-05
-0.000687447
5.99715e-05
-0.00071766
5.78133e-05
-0.000746709
5.56514e-05
-0.000774549
5.34142e-05
-0.000801141
5.10558e-05
-0.000826448
4.85631e-05
-0.000850422
4.59457e-05
-0.000873019
4.3234e-05
-0.000894202
4.04673e-05
-0.000913934
3.76813e-05
-0.000932179
3.48999e-05
-0.000948906
3.21197e-05
-0.000964085
2.93131e-05
-0.000977688
2.64498e-05
-0.000989686
2.34984e-05
-0.00100005
2.04245e-05
-0.00100875
1.72042e-05
-0.00101576
1.38347e-05
-0.00102108
1.0334e-05
-0.00102467
6.74174e-06
-0.00102655
3.10716e-06
-0.00102669
-5.33715e-07
-0.0010251
-4.15407e-06
-0.00102179
-7.72001e-06
-0.00101679
-1.11971e-05
-0.00101011
-1.45653e-05
-0.00100176
-1.78111e-05
-0.000991794
-2.09191e-05
-0.000980232
-2.38814e-05
-0.000967116
-2.67039e-05
-0.000952483
-2.93953e-05
-0.000936383
-3.19606e-05
-0.000918872
-3.44044e-05
-0.000900008
-3.6726e-05
-0.000879846
-3.89055e-05
-0.000858438
-4.09089e-05
-0.000835834
-4.27172e-05
-0.000812078
-4.4348e-05
-0.000787215
-4.58504e-05
-0.000761295
-4.72821e-05
-0.000734375
-4.8689e-05
-0.000706516
-5.00926e-05
-0.000677774
-5.1485e-05
-0.000648204
-5.28386e-05
-0.000617861
-5.41247e-05
-0.000586808
-5.5326e-05
-0.000555119
-5.64349e-05
-0.000522877
-5.74444e-05
-0.000490178
-5.83391e-05
-0.00045713
-5.90917e-05
-0.000423857
-5.96619e-05
-0.0003905
-5.99967e-05
-0.000357209
-6.00356e-05
-0.000324144
-5.97257e-05
-0.000291476
-5.90387e-05
-0.000259395
-5.79768e-05
-0.000228107
-5.65622e-05
-0.000197839
-5.48151e-05
-0.000168832
-5.27277e-05
-0.000141328
-5.02584e-05
-0.000115573
-4.73469e-05
-9.18092e-05
-4.39389e-05
-7.02791e-05
-4.00166e-05
-5.12253e-05
-3.5605e-05
-3.48828e-05
-3.07482e-05
-2.14634e-05
-2.54975e-05
-1.11318e-05
-1.99123e-05
-3.9537e-06
-1.40978e-05
1.60716e-07
-8.29866e-06
1.54197e-06
-2.93516e-06
9.58171e-07
1.07616e-06
1.82256e-06
-3.41015e-06
1.2134e-06
-8.21486e-06
-6.6405e-07
-1.30236e-05
-3.11836e-06
-1.95735e-05
-1.08908e-06
-2.92009e-05
4.6938e-06
-4.25183e-05
1.27749e-05
-5.97889e-05
2.23092e-05
-8.09384e-05
3.26358e-05
-0.00010587
4.34253e-05
-0.000134279
5.42724e-05
-0.000165854
6.49557e-05
-0.000200298
7.52597e-05
-0.000237217
8.49288e-05
-0.000276322
9.37811e-05
-0.000317248
0.000101614
-0.000359708
0.000108293
-0.00040341
0.000113687
-0.000448086
0.000117748
-0.000493451
0.000120429
-0.000539285
0.000121825
-0.000585358
0.000122022
-0.000631467
0.000121168
-0.000677408
0.000119452
-0.00072297
0.000117064
-0.00076795
0.000114198
-0.000812147
0.000111035
-0.000855371
0.000107701
-0.000897459
0.000104273
-0.000938274
0.000100786
-0.000977693
9.7232e-05
-0.00101561
9.35723e-05
-0.00105196
8.9764e-05
-0.00108668
8.57773e-05
-0.00111973
8.16055e-05
-0.00115104
7.72593e-05
-0.00118057
7.27643e-05
-0.00120826
6.81588e-05
-0.00123406
6.34779e-05
-0.0012579
5.87415e-05
-0.00127973
5.39491e-05
-0.0012995
4.90847e-05
-0.00131718
4.41311e-05
-0.00133275
3.90673e-05
-0.00134619
3.38631e-05
-0.00135749
2.84994e-05
-0.00136663
2.29835e-05
-0.00137364
1.73383e-05
-0.00137849
1.15966e-05
-0.00138119
5.80158e-06
-0.00138172
-6.11131e-09
-0.00138008
-5.79348e-06
-0.00137627
-1.15262e-05
-0.0013703
-1.71683e-05
-0.00136217
-2.26924e-05
-0.0013519
-2.808e-05
-0.00133951
-3.33162e-05
-0.001325
-3.83899e-05
-0.00130841
-4.32954e-05
-0.00128977
-4.8031e-05
-0.00126913
-5.25986e-05
-0.00124654
-5.69999e-05
-0.00122204
-6.12258e-05
-0.00119569
-6.52515e-05
-0.00116755
-6.90503e-05
-0.00113765
-7.26137e-05
-0.00110604
-7.59577e-05
-0.00107278
-7.91147e-05
-0.00103794
-8.21221e-05
-0.00100162
-8.50129e-05
-0.000963904
-8.78035e-05
-0.000924903
-9.04858e-05
-0.000884709
-9.30336e-05
-0.000843417
-9.54163e-05
-0.000801134
-9.76093e-05
-0.000757977
-9.95913e-05
-0.000714084
-0.000101338
-0.000669606
-0.000102817
-0.000624707
-0.00010399
-0.000579563
-0.000104806
-0.00053436
-0.0001052
-0.000489295
-0.000105101
-0.000444577
-0.000104444
-0.000400431
-0.000103185
-0.000357102
-0.000101305
-0.000314865
-9.87997e-05
-0.000274017
-9.5663e-05
-0.000234876
-9.18685e-05
-0.000197766
-8.73678e-05
-0.000163004
-8.21093e-05
-0.000130892
-7.60512e-05
-0.000101727
-6.91818e-05
-7.58016e-05
-6.15302e-05
-5.33979e-05
-5.31519e-05
-3.47676e-05
-4.41278e-05
-2.00932e-05
-3.45869e-05
-9.43751e-06
-2.47536e-05
-2.70216e-06
-1.50339e-05
4.44688e-07
-6.08184e-06
7.61815e-07
7.5906e-07
2.5843e-06
-5.64265e-06
6.85594e-06
-1.43182e-05
8.01152e-06
-2.33895e-05
5.95286e-06
-3.47623e-05
1.02837e-05
-4.98578e-05
1.97894e-05
-6.93654e-05
3.22825e-05
-9.34782e-05
4.6422e-05
-0.000122146
6.13032e-05
-0.000155044
7.63239e-05
-0.000191893
9.1121e-05
-0.000232266
0.000105329
-0.000275733
0.000118726
-0.000321872
0.000131069
-0.000370297
0.000142205
-0.000420612
0.000151929
-0.000472491
0.000160172
-0.00052562
0.000166816
-0.000579724
0.000171852
-0.00063456
0.000175264
-0.000689866
0.000177131
-0.000745409
0.000177565
-0.000800976
0.000176735
-0.000856348
0.000174824
-0.0009113
0.000172015
-0.000965607
0.000168505
-0.00101904
0.000164465
-0.00107136
0.000160025
-0.00112237
0.000155283
-0.00117188
0.000150299
-0.00121974
0.000145091
-0.00126581
0.000139644
-0.00131
0.000133948
-0.00135222
0.000127996
-0.0013924
0.000121787
-0.00143047
0.000115332
-0.00146637
0.000108664
-0.00150003
0.000101822
-0.00153139
9.48345e-05
-0.00156037
8.77193e-05
-0.0015869
8.04845e-05
-0.00161095
7.31282e-05
-0.00163246
6.5643e-05
-0.00165141
5.80172e-05
-0.00166778
5.02342e-05
-0.00168157
4.22868e-05
-0.00169277
3.41861e-05
-0.00170139
2.59549e-05
-0.00170742
1.76259e-05
-0.00171085
9.23797e-06
-0.00171169
8.27043e-07
-0.00170991
-7.57055e-06
-0.00170552
-1.59113e-05
-0.00169853
-2.41582e-05
-0.00168894
-3.22893e-05
-0.00167673
-4.02837e-05
-0.00166193
-4.8114e-05
-0.00164457
-5.57591e-05
-0.00162465
-6.32121e-05
-0.00160221
-7.0469e-05
-0.00157729
-7.75204e-05
-0.00154993
-8.4355e-05
-0.0015202
-9.0959e-05
-0.00148814
-9.73105e-05
-0.00145381
-0.000103386
-0.00141725
-0.000109174
-0.00137852
-0.000114684
-0.0013377
-0.000119933
-0.00129488
-0.000124939
-0.00125018
-0.000129719
-0.00120371
-0.000134276
-0.00115559
-0.0001386
-0.00110596
-0.000142661
-0.00105495
-0.000146426
-0.00100271
-0.000149857
-0.000949381
-0.000152917
-0.000895151
-0.000155568
-0.000840207
-0.000157761
-0.000784755
-0.000159442
-0.000729015
-0.000160546
-0.000673217
-0.000160998
-0.000617603
-0.000160715
-0.000562428
-0.000159619
-0.000507963
-0.00015765
-0.000454503
-0.000154765
-0.000402371
-0.000150931
-0.000351919
-0.000146116
-0.000303513
-0.000140274
-0.000257526
-0.000133355
-0.000214326
-0.000125309
-0.000174268
-0.00011611
-0.000137694
-0.000105755
-0.000104938
-9.42864e-05
-7.63138e-05
-8.17762e-05
-5.20977e-05
-6.83439e-05
-3.24904e-05
-5.41942e-05
-1.75838e-05
-3.96603e-05
-7.34284e-06
-2.5275e-05
-1.56157e-06
-1.18632e-05
3.14818e-07
-1.11729e-06
2.89903e-06
-7.4058e-06
1.42617e-05
-1.93508e-05
1.99566e-05
-3.23951e-05
1.89973e-05
-4.83028e-05
2.61913e-05
-6.84887e-05
3.99754e-05
-9.36377e-05
5.74315e-05
-0.000123937
7.67211e-05
-0.000159263
9.66296e-05
-0.000199358
0.000116419
-0.000243773
0.000135536
-0.000292078
0.000153634
-0.00034378
0.000170428
-0.000398434
0.000185722
-0.000455552
0.000199324
-0.000514756
0.000211133
-0.000575615
0.000221031
-0.000637821
0.000229022
-0.000701035
0.000235065
-0.00076499
0.00023922
-0.00082942
0.000241561
-0.000894074
0.000242219
-0.000958695
0.000241357
-0.00102303
0.000239156
-0.00108683
0.00023582
-0.00114986
0.000231537
-0.00121186
0.000226465
-0.00127259
0.00022075
-0.00133182
0.00021451
-0.00138933
0.000207815
-0.00144495
0.000200707
-0.00149851
0.000193211
-0.00154991
0.000185344
-0.00159903
0.000177116
-0.00164578
0.000168536
-0.00169008
0.00015963
-0.00173185
0.000150434
-0.00177101
0.000140984
-0.00180748
0.000131309
-0.0018412
0.000121432
-0.00187208
0.00011137
-0.00190008
0.000101131
-0.00192516
9.07191e-05
-0.00194728
8.01324e-05
-0.0019664
6.9363e-05
-0.00198254
5.84184e-05
-0.00199567
4.73211e-05
-0.00200581
3.60913e-05
-0.00201293
2.47531e-05
-0.00201704
1.3347e-05
-0.00201813
1.91517e-06
-0.0020162
-9.50614e-06
-0.00201123
-2.08767e-05
-0.00200323
-3.21573e-05
-0.0019922
-4.33203e-05
-0.00197814
-5.43406e-05
-0.00196107
-6.51862e-05
-0.001941
-7.58303e-05
-0.00191795
-8.62587e-05
-0.00189196
-9.646e-05
-0.00186307
-0.000106417
-0.00183131
-0.000116108
-0.00179676
-0.000125515
-0.00175946
-0.000134613
-0.00171947
-0.000143376
-0.00167685
-0.000151789
-0.00163168
-0.000159851
-0.00158405
-0.000167564
-0.00153406
-0.000174928
-0.00148184
-0.000181939
-0.00142753
-0.000188592
-0.00137126
-0.000194867
-0.00131319
-0.000200727
-0.00125349
-0.000206126
-0.00119234
-0.000211014
-0.00112991
-0.000215343
-0.00106642
-0.000219058
-0.00100209
-0.000222095
-0.000937149
-0.000224379
-0.000871864
-0.000225831
-0.0008065
-0.000226362
-0.000741337
-0.000225877
-0.000676672
-0.000224285
-0.000612819
-0.000221503
-0.000550115
-0.000217468
-0.000488924
-0.000212123
-0.000429629
-0.00020541
-0.000372633
-0.00019727
-0.000318346
-0.000187642
-0.000267176
-0.00017648
-0.000219516
-0.000163769
-0.000175749
-0.000149523
-0.000136242
-0.000133794
-0.00010134
-0.000116679
-7.13464e-05
-9.8337e-05
-4.65014e-05
-7.90392e-05
-2.69573e-05
-5.92043e-05
-1.27872e-05
-3.94453e-05
-3.97207e-06
-2.06782e-05
-2.4451e-07
-4.8449e-06
2.65454e-06
-8.65538e-06
2.2917e-05
-2.33132e-05
3.46145e-05
-3.99252e-05
3.56094e-05
-6.00563e-05
4.63222e-05
-8.50692e-05
6.49883e-05
-0.000115547
8.79091e-05
-0.000151635
0.00011281
-0.000193201
0.000138195
-0.000239888
0.000163106
-0.000291286
0.000186934
-0.000346908
0.000209257
-0.000406225
0.000229745
-0.000468752
0.000248249
-0.000533981
0.000264553
-0.000601478
0.00027863
-0.000670806
0.000290359
-0.000741566
0.000299783
-0.000813406
0.000306905
-0.000886006
0.000311819
-0.000959064
0.000314618
-0.00103229
0.000315447
-0.00110541
0.000314478
-0.00117815
0.000311897
-0.00125023
0.000307901
-0.00132138
0.000302682
-0.00139133
0.000296414
-0.00145983
0.00028925
-0.00152663
0.000281313
-0.00159151
0.000272695
-0.00165427
0.000263468
-0.00171475
0.000253684
-0.00177278
0.00024338
-0.00182825
0.000232587
-0.00188105
0.000221337
-0.00193109
0.000209665
-0.00197827
0.000197612
-0.0020225
0.000185217
-0.0020637
0.00017251
-0.00210179
0.000159522
-0.0021367
0.000146282
-0.00216838
0.000132805
-0.00219676
0.000119103
-0.00222181
0.000105187
-0.00224351
9.10638e-05
-0.00226184
7.67475e-05
-0.00227679
6.22657e-05
-0.00228834
4.76424e-05
-0.00229649
3.29034e-05
-0.00230123
1.80887e-05
-0.00230256
3.24117e-06
-0.00230046
-1.1601e-05
-0.00229494
-2.63959e-05
-0.002286
-4.11027e-05
-0.00227363
-5.56908e-05
-0.00225784
-7.01294e-05
-0.00223865
-8.43794e-05
-0.00221607
-9.84078e-05
-0.00219013
-0.000112196
-0.00216086
-0.000125727
-0.00212831
-0.000138971
-0.00209252
-0.000151899
-0.00205355
-0.000164483
-0.00201147
-0.000176697
-0.00196633
-0.000188512
-0.00191822
-0.000199903
-0.00186721
-0.000210855
-0.00181342
-0.000221355
-0.00175696
-0.000231388
-0.00169797
-0.000240934
-0.00163659
-0.000249972
-0.00157298
-0.000258472
-0.00150733
-0.000266384
-0.00143981
-0.000273647
-0.00137062
-0.000280198
-0.00129999
-0.000285976
-0.00122814
-0.00029091
-0.00115531
-0.000294917
-0.00108179
-0.000297905
-0.00100784
-0.000299775
-0.000933779
-0.000300426
-0.000859909
-0.000299747
-0.000786564
-0.000297629
-0.000714097
-0.00029397
-0.000642879
-0.000288686
-0.000573304
-0.000281698
-0.000505787
-0.000272928
-0.000440757
-0.0002623
-0.000378654
-0.000249745
-0.000319915
-0.000235219
-0.00026497
-0.000218713
-0.000214236
-0.000200256
-0.000168116
-0.000179914
-0.00012699
-0.000157804
-9.12021e-05
-0.000134125
-6.10417e-05
-0.0001092
-3.67462e-05
-8.34998e-05
-1.85188e-05
-5.76727e-05
-6.54768e-06
-3.26493e-05
-8.67021e-07
-1.05257e-05
1.78758e-06
-9.41574e-06
3.23327e-05
-2.61621e-05
5.13608e-05
-4.59566e-05
5.5404e-05
-7.00954e-05
7.04609e-05
-9.9672e-05
9.45648e-05
-0.000135248
0.000123485
-0.000176824
0.000154386
-0.000224254
0.000185625
-0.00027717
0.000216021
-0.000335116
0.00024488
-0.000397557
0.000271698
-0.000463998
0.000296186
-0.000533852
0.000318103
-0.000606662
0.000337363
-0.000681878
0.000353846
-0.000759088
0.000367569
-0.000837841
0.000378536
-0.000917754
0.000386818
-0.000998437
0.000392503
-0.00107956
0.00039574
-0.00116081
0.000396694
-0.00124186
0.00039553
-0.00132241
0.000392449
-0.00140217
0.000387664
-0.00148086
0.000381367
-0.00155817
0.000373732
-0.00163386
0.000364932
-0.00170765
0.000355109
-0.00177933
0.000344374
-0.00184868
0.000332815
-0.00191551
0.000320514
-0.00197966
0.000307531
-0.00204099
0.000293918
-0.00209938
0.000279722
-0.0021547
0.000264993
-0.00220687
0.000249781
-0.00225579
0.000234131
-0.00230136
0.00021808
-0.0023435
0.000201664
-0.00238214
0.000184922
-0.00241721
0.00016788
-0.00244867
0.000150557
-0.00247646
0.000132977
-0.00250055
0.000115156
-0.00252092
9.71197e-05
-0.00253756
7.88999e-05
-0.00255044
6.05223e-05
-0.00255955
4.20155e-05
-0.00256489
2.34256e-05
-0.00256644
4.79862e-06
-0.00256422
-1.3829e-05
-0.0025582
-3.24159e-05
-0.00254838
-5.09157e-05
-0.00253478
-6.92908e-05
-0.00251741
-8.75049e-05
-0.00249627
-0.000105515
-0.0024714
-0.000123284
-0.00244281
-0.000140786
-0.00241054
-0.000157994
-0.00237464
-0.000174869
-0.00233517
-0.000191372
-0.00229218
-0.000207472
-0.00224574
-0.000223136
-0.00219593
-0.000238327
-0.00214282
-0.000253006
-0.00208653
-0.000267148
-0.00202716
-0.000280727
-0.00196483
-0.00029371
-0.0018997
-0.000306063
-0.00183193
-0.000317747
-0.00176168
-0.000328717
-0.00168916
-0.00033891
-0.00161456
-0.000348249
-0.0015381
-0.000356657
-0.00146002
-0.000364056
-0.00138057
-0.00037036
-0.00130002
-0.000375466
-0.00121866
-0.000379261
-0.00113681
-0.000381631
-0.00105478
-0.000382454
-0.00097292
-0.000381607
-0.000891588
-0.000378962
-0.000811162
-0.000374396
-0.000732047
-0.000367801
-0.000654664
-0.000359081
-0.000579451
-0.00034814
-0.000506867
-0.000334884
-0.000437374
-0.000319238
-0.000371438
-0.000301155
-0.000309521
-0.00028063
-0.000252076
-0.000257702
-0.000199544
-0.000232445
-0.000152346
-0.000205002
-0.000110871
-0.000175601
-7.5473e-05
-0.000144598
-4.64884e-05
-0.000112485
-2.42559e-05
-7.99051e-05
-9.16998e-06
-4.77353e-05
-1.53182e-06
-1.81638e-05
2.55711e-07
-9.69079e-06
4.20234e-05
-2.79711e-05
6.9641e-05
-5.05727e-05
7.80058e-05
-7.83992e-05
9.82874e-05
-0.000112395
0.000128561
-0.000152812
0.000163902
-0.000199675
0.000201249
-0.000252702
0.000238652
-0.000311514
0.000274834
-0.000375618
0.000308985
-0.00044449
0.000340569
-0.000517592
0.000369289
-0.000594336
0.000394847
-0.000674189
0.000417216
-0.000756635
0.000436292
-0.000841193
0.000452126
-0.000927376
0.000464719
-0.00101476
0.000474207
-0.00110297
0.000480709
-0.00119161
0.000484374
-0.00128029
0.000485377
-0.00136869
0.000483935
-0.00145651
0.000480263
-0.0015434
0.000474556
-0.00162905
0.00046702
-0.00171319
0.000457864
-0.00179552
0.000447268
-0.00187579
0.000435378
-0.00195374
0.000422327
-0.00202917
0.000408238
-0.00210187
0.000393214
-0.00217166
0.000377328
-0.0022384
0.000360652
-0.00230194
0.000343259
-0.00236216
0.000325212
-0.00241894
0.000306567
-0.00247219
0.000287378
-0.0025218
0.000267692
-0.00256769
0.000247557
-0.00260979
0.000227021
-0.00264802
0.000206111
-0.00268233
0.000184861
-0.00271266
0.000163307
-0.00273898
0.000141476
-0.00276126
0.000119398
-0.00277947
9.71101e-05
-0.00279359
7.46456e-05
-0.00280361
5.20383e-05
-0.00280952
2.93375e-05
-0.00281132
6.59141e-06
-0.00280898
-1.61619e-05
-0.00280252
-3.88778e-05
-0.00279193
-6.15047e-05
-0.00277723
-8.39986e-05
-0.00275841
-0.000106319
-0.00273551
-0.000128419
-0.00270854
-0.000150253
-0.00267753
-0.000171789
-0.00264254
-0.000192991
-0.00260359
-0.000213812
-0.00256076
-0.000234202
-0.00251411
-0.000254123
-0.00246371
-0.000273538
-0.00240964
-0.000292395
-0.002352
-0.000310646
-0.0022909
-0.000328251
-0.00222645
-0.000345172
-0.0021588
-0.000361363
-0.0020881
-0.000376768
-0.00201451
-0.000391335
-0.00193823
-0.000405
-0.00185945
-0.000417686
-0.0017784
-0.000429299
-0.00169531
-0.000439745
-0.00161044
-0.00044893
-0.00152405
-0.000456751
-0.00143643
-0.000463085
-0.00134789
-0.000467799
-0.00125876
-0.000470756
-0.0011694
-0.00047182
-0.00108016
-0.000470848
-0.000991424
-0.000467694
-0.000903604
-0.000462216
-0.000817124
-0.000454281
-0.000732432
-0.000443773
-0.000649994
-0.000430578
-0.000570289
-0.000414589
-0.000493805
-0.000395722
-0.000421034
-0.000373926
-0.000352469
-0.000349195
-0.000288598
-0.000321572
-0.000229902
-0.000291141
-0.000176846
-0.000258059
-0.000129871
-0.000222575
-8.9411e-05
-0.000185058
-5.59053e-05
-0.00014599
-2.98277e-05
-0.000105983
-1.17575e-05
-6.58054e-05
-2.21236e-06
-2.77089e-05
-1.95674e-06
-9.53436e-06
5.15579e-05
-2.88323e-05
8.89387e-05
-5.38969e-05
0.00010307
-8.52044e-05
0.000129595
-0.000123332
0.000166688
-0.000168425
0.000208995
-0.000220323
0.000253147
-0.00027869
0.000297019
-0.000343121
0.000339264
-0.000413088
0.000378953
-0.000488049
0.000415529
-0.000567371
0.000448611
-0.000650579
0.000478055
-0.000737046
0.000503683
-0.000826241
0.000525488
-0.000917615
0.0005435
-0.00101073
0.00055783
-0.00110509
0.000568575
-0.00120026
0.000575878
-0.00129583
0.000579942
-0.00139143
0.000580973
-0.00148668
0.000579183
-0.00158121
0.000574794
-0.00167469
0.000568037
-0.00176681
0.000559144
-0.00185727
0.000548321
-0.00194575
0.000535756
-0.002032
0.000521626
-0.00211577
0.000506091
-0.00219682
0.00048929
-0.00227494
0.000471337
-0.00234995
0.000452337
-0.00242168
0.000432384
-0.00248999
0.000411565
-0.00255473
0.000389956
-0.00261579
0.000367624
-0.00267305
0.000344639
-0.00272641
0.000321057
-0.00277579
0.000296934
-0.0028211
0.000272326
-0.00286226
0.000247273
-0.00289921
0.000221816
-0.00293191
0.000196003
-0.0029603
0.00016987
-0.00298436
0.000143452
-0.00300404
0.000116796
-0.00301934
8.9941e-05
-0.00303023
6.29256e-05
-0.00303669
3.58035e-05
-0.00303873
8.62664e-06
-0.00303633
-1.85636e-05
-0.00302949
-4.57185e-05
-0.00301821
-7.27806e-05
-0.00300251
-9.96999e-05
-0.0029824
-0.000126431
-0.00295789
-0.000152922
-0.00292903
-0.000179121
-0.00289583
-0.000204986
-0.00285835
-0.000230473
-0.00281663
-0.000255526
-0.00277075
-0.000280087
-0.00272076
-0.00030411
-0.00266675
-0.000327548
-0.00260881
-0.000350339
-0.00254703
-0.00037242
-0.00248155
-0.000393738
-0.00241247
-0.000414245
-0.00233996
-0.000433878
-0.00226416
-0.000452564
-0.00218527
-0.000470231
-0.00210347
-0.0004868
-0.00201897
-0.000502177
-0.00193202
-0.000516251
-0.00184286
-0.00052891
-0.00175174
-0.000540042
-0.00165897
-0.000549524
-0.00156484
-0.000557217
-0.00146968
-0.000562962
-0.00137383
-0.000566603
-0.00127767
-0.000567984
-0.00118157
-0.000566943
-0.00108595
-0.000563317
-0.000991226
-0.000556939
-0.000897853
-0.000547654
-0.000806303
-0.000535323
-0.000717065
-0.000519816
-0.000630639
-0.000501015
-0.000547539
-0.000478822
-0.000468282
-0.000453183
-0.000393392
-0.000424086
-0.000323394
-0.00039157
-0.00025881
-0.000355726
-0.000200151
-0.000316718
-0.000147922
-0.000274804
-0.000102638
-0.000230343
-6.48402e-05
-0.000183788
-3.51322e-05
-0.000135691
-1.42473e-05
-8.66903e-05
-2.87658e-06
-3.90797e-05
-4.83329e-06
-9.11137e-06
6.06693e-05
-2.89742e-05
0.000108802
-5.61374e-05
0.000130233
-9.06711e-05
0.000164129
-0.000132727
0.000208744
-0.000182249
0.000258517
-0.000238954
0.000309852
-0.000302451
0.000360516
-0.00037223
0.000409042
-0.000447735
0.000454458
-0.000528429
0.000496223
-0.000613714
0.000533896
-0.000702968
0.000567309
-0.0007956
0.000596315
-0.000891095
0.000620983
-0.000988891
0.000641296
-0.00108844
0.000657383
-0.00118926
0.000669395
-0.00129092
0.000677532
-0.00139296
0.000681985
-0.00149496
0.000682972
-0.00159653
0.000680749
-0.0016973
0.000675564
-0.00179691
0.000667656
-0.00189504
0.000657267
-0.00199134
0.000644628
-0.00208554
0.00062995
-0.00217734
0.00061343
-0.00226649
0.000595243
-0.00235275
0.000575549
-0.0024359
0.000554487
-0.00251575
0.000532181
-0.00259211
0.000508746
-0.00266483
0.000484287
-0.00273377
0.000458893
-0.00279879
0.000432646
-0.00285978
0.000405628
-0.00291663
0.000377906
-0.00296924
0.000349547
-0.00301753
0.000320617
-0.00306143
0.000291164
-0.00310085
0.000261241
-0.00313575
0.000230905
-0.00316608
0.0002002
-0.0031918
0.00016917
-0.00321287
0.000137868
-0.00322927
0.000106342
-0.00324098
7.46353e-05
-0.00324799
4.2807e-05
-0.00325027
1.09134e-05
-0.00324784
-2.10004e-05
-0.00324067
-5.28801e-05
-0.00322879
-8.46609e-05
-0.00321221
-0.000116287
-0.00319093
-0.00014771
-0.00316498
-0.000178871
-0.00313439
-0.000209709
-0.0030992
-0.000240175
-0.00305946
-0.000270215
-0.00301522
-0.000299765
-0.00296655
-0.000328759
-0.00291352
-0.000357142
-0.00285621
-0.000384854
-0.00279473
-0.000411823
-0.00272917
-0.000437972
-0.00265967
-0.000463238
-0.00258636
-0.000487557
-0.00250939
-0.000510852
-0.00242892
-0.000533032
-0.00234515
-0.000554003
-0.00225828
-0.00057367
-0.00216853
-0.000591924
-0.00207614
-0.000608639
-0.00198137
-0.00062368
-0.0018845
-0.000636914
-0.00178582
-0.0006482
-0.00168566
-0.000657379
-0.00158435
-0.000664272
-0.00148226
-0.000668698
-0.00137976
-0.000670478
-0.00127727
-0.000669433
-0.00117521
-0.000665378
-0.00107402
-0.000658125
-0.000974183
-0.000647495
-0.000876181
-0.000633325
-0.000780529
-0.000615468
-0.000687752
-0.000593791
-0.000598385
-0.00056819
-0.000512973
-0.000538595
-0.000432071
-0.000504987
-0.000356246
-0.000467395
-0.000286063
-0.000425909
-0.000222085
-0.000380695
-0.000164881
-0.000332008
-0.000115044
-0.000280179
-7.32175e-05
-0.000225615
-4.01152e-05
-0.000168793
-1.66003e-05
-0.000110205
-3.50782e-06
-5.21723e-05
-8.34106e-06
-8.47027e-06
6.91396e-05
-2.85816e-05
0.000128913
-5.75787e-05
0.000159231
-9.50366e-05
0.000201586
-0.000140789
0.000254496
-0.000194524
0.000312252
-0.000255825
0.000371154
-0.00032416
0.000428852
-0.000399014
0.000483896
-0.000479853
0.000535297
-0.000565986
0.000582355
-0.000656846
0.000624757
-0.000751802
0.000662265
-0.000850309
0.000694822
-0.000951703
0.000722377
-0.00105545
0.000745041
-0.00116102
0.000762958
-0.00126791
0.000776285
-0.00137561
0.000785227
-0.00148364
0.000790021
-0.0015916
0.000790932
-0.00169907
0.000788219
-0.00180565
0.000782139
-0.00191096
0.000772966
-0.00201466
0.000760968
-0.00211642
0.00074639
-0.00221593
0.000729458
-0.0023129
0.000710395
-0.00240705
0.000689401
-0.00249816
0.000666653
-0.00258598
0.000642309
-0.00267032
0.000616519
-0.00275099
0.000589414
-0.00282781
0.000561117
-0.00290065
0.000531732
-0.00296936
0.000501356
-0.00303382
0.000470086
-0.00309392
0.000438001
-0.00314955
0.000405178
-0.00320062
0.000371691
-0.00324706
0.000337602
-0.00328879
0.000302971
-0.00332575
0.000267868
-0.0033579
0.000232343
-0.00338517
0.000196448
-0.00340755
0.000160244
-0.003425
0.000123788
-0.00343749
8.713e-05
-0.00344502
5.03328e-05
-0.00344756
1.3458e-05
-0.00344512
-2.34429e-05
-0.00343769
-6.03101e-05
-0.00342528
-9.70721e-05
-0.0034079
-0.000133667
-0.00338557
-0.000170041
-0.00335831
-0.000206129
-0.00332616
-0.000241861
-0.00328916
-0.000277178
-0.00324735
-0.000312019
-0.0032008
-0.000346314
-0.00314958
-0.000379984
-0.00309376
-0.000412963
-0.00303343
-0.000445182
-0.00296869
-0.000476558
-0.00289967
-0.000507
-0.00282647
-0.00053643
-0.00274926
-0.000564773
-0.00266817
-0.000591936
-0.0025834
-0.000617809
-0.00249512
-0.000642277
-0.00240356
-0.000665227
-0.00230895
-0.000686538
-0.00221152
-0.000706064
-0.00211156
-0.00072365
-0.00200933
-0.000739138
-0.00190517
-0.000752367
-0.00179939
-0.000763159
-0.00169234
-0.000771315
-0.00158441
-0.000776628
-0.001476
-0.000778895
-0.00136752
-0.000777915
-0.00125941
-0.000773482
-0.00115215
-0.000765388
-0.00104621
-0.000753429
-0.000942122
-0.000737417
-0.000840406
-0.000717185
-0.000741611
-0.000692586
-0.000646301
-0.0006635