/*--------------------------------*- C++ -*----------------------------------*\
  =========                 |
  \\      /  F ield         | OpenFOAM: The Open Source CFD Toolbox
   \\    /   O peration     | Website:  https://openfoam.org
    \\  /    A nd           | Version:  11
     \\/     M anipulation  |
\*---------------------------------------------------------------------------*/
FoamFile
{
    format      ascii;
    class       volVectorField;
    location    "1";
    object      U;
}
// * * * * * * * * * * * * * * * * * * * * * * * * * * * * * * * * * * * * * //

dimensions      [0 1 -1 0 0 0 0];

internalField   nonuniform List<vector> 
10100
(
(3.8135e-06 -1.14908e-05 0)
(2.72366e-05 -2.1715e-05 0)
(6.33415e-05 -2.85592e-05 0)
(0.000109287 -3.556e-05 0)
(0.000158953 -4.10467e-05 0)
(0.000208641 -4.38021e-05 0)
(0.0002539 -4.28722e-05 0)
(0.000291234 -3.93897e-05 0)
(0.000316719 -3.21879e-05 0)
(0.000328249 -2.32393e-05 0)
(0.000322889 -1.28502e-05 0)
(0.000300014 -1.77436e-06 0)
(0.000258173 9.28197e-06 0)
(0.000197886 2.06158e-05 0)
(0.000120287 3.12612e-05 0)
(2.63089e-05 4.02649e-05 0)
(-8.00496e-05 4.72939e-05 0)
(-0.000196338 5.23339e-05 0)
(-0.000319489 5.52818e-05 0)
(-0.00044539 5.68173e-05 0)
(-0.000571248 5.65358e-05 0)
(-0.000694075 5.38936e-05 0)
(-0.00081128 4.96623e-05 0)
(-0.000921666 4.49208e-05 0)
(-0.00102502 4.02615e-05 0)
(-0.00112141 3.61673e-05 0)
(-0.00121139 3.29842e-05 0)
(-0.00129615 3.06044e-05 0)
(-0.00137691 2.86888e-05 0)
(-0.00145443 2.71423e-05 0)
(-0.00152928 2.6019e-05 0)
(-0.00160164 2.50974e-05 0)
(-0.00167133 2.40561e-05 0)
(-0.00173791 2.28288e-05 0)
(-0.00180084 2.14789e-05 0)
(-0.00185984 2.00839e-05 0)
(-0.00191497 1.874e-05 0)
(-0.00196632 1.74907e-05 0)
(-0.00201401 1.64536e-05 0)
(-0.00205842 1.5735e-05 0)
(-0.00209976 1.51571e-05 0)
(-0.00213803 1.44657e-05 0)
(-0.00217314 1.35642e-05 0)
(-0.00220468 1.23533e-05 0)
(-0.00223207 1.07325e-05 0)
(-0.00225478 8.73782e-06 0)
(-0.00227226 6.43697e-06 0)
(-0.00228393 3.87365e-06 0)
(-0.00228943 1.17508e-06 0)
(-0.00228874 -1.52197e-06 0)
(-0.00228193 -4.19446e-06 0)
(-0.0022691 -6.82553e-06 0)
(-0.00225056 -9.27209e-06 0)
(-0.00222669 -1.1407e-05 0)
(-0.00219791 -1.32288e-05 0)
(-0.00216473 -1.47591e-05 0)
(-0.00212779 -1.59759e-05 0)
(-0.00208759 -1.68857e-05 0)
(-0.00204448 -1.75415e-05 0)
(-0.00199875 -1.79817e-05 0)
(-0.00195066 -1.82401e-05 0)
(-0.00190041 -1.83751e-05 0)
(-0.00184821 -1.83788e-05 0)
(-0.00179445 -1.81003e-05 0)
(-0.00173977 -1.7376e-05 0)
(-0.00168486 -1.62292e-05 0)
(-0.00163024 -1.48769e-05 0)
(-0.00157612 -1.35716e-05 0)
(-0.00152234 -1.24893e-05 0)
(-0.00146848 -1.17197e-05 0)
(-0.00141406 -1.1255e-05 0)
(-0.00135876 -1.09781e-05 0)
(-0.00130245 -1.07545e-05 0)
(-0.00124516 -1.05727e-05 0)
(-0.00118687 -1.05447e-05 0)
(-0.00112749 -1.07445e-05 0)
(-0.00106687 -1.11092e-05 0)
(-0.0010049 -1.15297e-05 0)
(-0.000941544 -1.19564e-05 0)
(-0.000876949 -1.23656e-05 0)
(-0.000811488 -1.27026e-05 0)
(-0.000745714 -1.29068e-05 0)
(-0.000680274 -1.29472e-05 0)
(-0.000615787 -1.28678e-05 0)
(-0.000552694 -1.28468e-05 0)
(-0.000491174 -1.31013e-05 0)
(-0.000431209 -1.36887e-05 0)
(-0.000372767 -1.44698e-05 0)
(-0.000316074 -1.51826e-05 0)
(-0.000261752 -1.55695e-05 0)
(-0.00021064 -1.55734e-05 0)
(-0.00016359 -1.53004e-05 0)
(-0.000121358 -1.48719e-05 0)
(-8.4393e-05 -1.436e-05 0)
(-5.30227e-05 -1.35532e-05 0)
(-2.77695e-05 -1.20817e-05 0)
(-9.42448e-06 -9.74318e-06 0)
(8.59125e-07 -6.46055e-06 0)
(2.99229e-06 -2.73236e-06 0)
(9.72981e-07 -5.58323e-07 0)
(1.18715e-06 -2.50546e-05 0)
(2.55194e-05 -5.39815e-05 0)
(6.44905e-05 -6.935e-05 0)
(0.00010851 -7.96109e-05 0)
(0.000147539 -8.05835e-05 0)
(0.000175898 -7.56051e-05 0)
(0.000186362 -6.28755e-05 0)
(0.000175497 -4.42057e-05 0)
(0.000140443 -2.07361e-05 0)
(7.82592e-05 7.71759e-06 0)
(-1.0827e-05 3.85212e-05 0)
(-0.000129192 7.11942e-05 0)
(-0.000275365 0.000103726 0)
(-0.000448701 0.000135234 0)
(-0.000647783 0.000164083 0)
(-0.00086823 0.000189329 0)
(-0.00110712 0.000209352 0)
(-0.00136036 0.000223402 0)
(-0.00162328 0.000231793 0)
(-0.00189212 0.00023468 0)
(-0.00216249 0.00023258 0)
(-0.00243032 0.000226034 0)
(-0.00269298 0.000216119 0)
(-0.00294835 0.00020425 0)
(-0.00319511 0.000191823 0)
(-0.0034328 0.000180195 0)
(-0.00366128 0.000170203 0)
(-0.00388083 0.000161874 0)
(-0.00409217 0.000154963 0)
(-0.00429581 0.00014916 0)
(-0.00449187 0.000143919 0)
(-0.00468037 0.000138587 0)
(-0.00486111 0.000132667 0)
(-0.00503347 0.000126047 0)
(-0.00519684 0.000118947 0)
(-0.00535084 0.000111555 0)
(-0.00549522 0.000104088 0)
(-0.00563001 9.68706e-05 0)
(-0.00575525 9.00805e-05 0)
(-0.00587091 8.36783e-05 0)
(-0.00597713 7.74442e-05 0)
(-0.00607401 7.10489e-05 0)
(-0.0061611 6.41934e-05 0)
(-0.00623774 5.66207e-05 0)
(-0.0063034 4.80948e-05 0)
(-0.00635752 3.85175e-05 0)
(-0.00639939 2.80295e-05 0)
(-0.0064286 1.69621e-05 0)
(-0.00644491 5.66435e-06 0)
(-0.00644813 -5.6529e-06 0)
(-0.0064384 -1.68667e-05 0)
(-0.00641619 -2.77926e-05 0)
(-0.00638181 -3.81785e-05 0)
(-0.00633536 -4.78463e-05 0)
(-0.00627723 -5.67102e-05 0)
(-0.00620819 -6.47155e-05 0)
(-0.00612879 -7.18545e-05 0)
(-0.00603935 -7.82201e-05 0)
(-0.00594038 -8.39487e-05 0)
(-0.00583262 -8.91452e-05 0)
(-0.00571656 -9.39001e-05 0)
(-0.00559257 -9.82647e-05 0)
(-0.00546133 -0.000102111 0)
(-0.00532374 -0.000105105 0)
(-0.00518044 -0.000106964 0)
(-0.00503181 -0.000107764 0)
(-0.00487836 -0.00010796 0)
(-0.00472066 -0.000108135 0)
(-0.00455893 -0.000108742 0)
(-0.0043929 -0.000109974 0)
(-0.0042223 -0.000111753 0)
(-0.00404725 -0.000113816 0)
(-0.00386812 -0.000115922 0)
(-0.00368516 -0.000118009 0)
(-0.00349849 -0.000120168 0)
(-0.00330823 -0.000122473 0)
(-0.00311461 -0.00012489 0)
(-0.00291795 -0.000127311 0)
(-0.00271875 -0.000129566 0)
(-0.00251774 -0.000131382 0)
(-0.00231596 -0.000132393 0)
(-0.00211458 -0.000132275 0)
(-0.00191474 -0.000130913 0)
(-0.00171755 -0.000128506 0)
(-0.0015242 -0.0001255 0)
(-0.00133597 -0.000122315 0)
(-0.00115413 -0.000119028 0)
(-0.000979922 -0.000115327 0)
(-0.000814596 -0.00011067 0)
(-0.000659597 -0.000104537 0)
(-0.000516659 -9.67693e-05 0)
(-0.000387716 -8.7612e-05 0)
(-0.000274653 -7.73596e-05 0)
(-0.000178988 -6.61675e-05 0)
(-0.000101782 -5.39665e-05 0)
(-4.39348e-05 -4.04806e-05 0)
(-6.28073e-06 -2.59343e-05 0)
(1.06324e-05 -1.11381e-05 0)
(1.08397e-05 1.24636e-06 0)
(4.21955e-06 4.3188e-06 0)
(-1.23022e-05 -3.17033e-05 0)
(-1.2661e-05 -6.79e-05 0)
(-1.44399e-05 -9.19135e-05 0)
(-1.89431e-05 -9.59437e-05 0)
(-3.96304e-05 -8.33537e-05 0)
(-8.69593e-05 -5.50477e-05 0)
(-0.00016235 -1.80557e-05 0)
(-0.000270453 2.85352e-05 0)
(-0.00041047 8.09303e-05 0)
(-0.000581565 0.000137856 0)
(-0.000783867 0.00019788 0)
(-0.00101399 0.000258412 0)
(-0.00127082 0.000318 0)
(-0.00155168 0.000373747 0)
(-0.00185363 0.000424806 0)
(-0.00217478 0.000468717 0)
(-0.00251109 0.000504346 0)
(-0.00285852 0.000530349 0)
(-0.00321509 0.000546475 0)
(-0.00357772 0.000553137 0)
(-0.00394319 0.000551577 0)
(-0.00430935 0.000542717 0)
(-0.00467353 0.000528358 0)
(-0.00503339 0.000510453 0)
(-0.00538757 0.000490622 0)
(-0.00573457 0.000470489 0)
(-0.00607296 0.000451368 0)
(-0.0064019 0.000433748 0)
(-0.00672065 0.00041748 0)
(-0.0070285 0.000402262 0)
(-0.00732488 0.000387448 0)
(-0.00760934 0.000372133 0)
(-0.00788163 0.000355772 0)
(-0.00814128 0.000338256 0)
(-0.00838769 0.000319752 0)
(-0.0086206 0.000300631 0)
(-0.00883967 0.000281208 0)
(-0.00904433 0.000261791 0)
(-0.00923424 0.000242702 0)
(-0.00940913 0.000223877 0)
(-0.00956868 0.000204919 0)
(-0.00971274 0.000185546 0)
(-0.00984101 0.000165495 0)
(-0.00995289 0.000144332 0)
(-0.0100482 0.000121757 0)
(-0.0101268 9.77624e-05 0)
(-0.0101885 7.24949e-05 0)
(-0.010233 4.63009e-05 0)
(-0.0102602 1.97305e-05 0)
(-0.0102702 -6.7974e-06 0)
(-0.0102629 -3.31119e-05 0)
(-0.0102384 -5.89973e-05 0)
(-0.0101969 -8.41001e-05 0)
(-0.0101386 -0.00010814 0)
(-0.0100634 -0.000130981 0)
(-0.00997182 -0.000152534 0)
(-0.00986427 -0.00017277 0)
(-0.00974093 -0.000191765 0)
(-0.00960197 -0.000209631 0)
(-0.00944795 -0.000226451 0)
(-0.0092796 -0.000242312 0)
(-0.0090975 -0.000257248 0)
(-0.00890221 -0.000271072 0)
(-0.00869435 -0.0002834 0)
(-0.00847439 -0.000293973 0)
(-0.00824262 -0.000302943 0)
(-0.00799938 -0.000310852 0)
(-0.00774529 -0.000318367 0)
(-0.00748096 -0.000326028 0)
(-0.00720691 -0.00033408 0)
(-0.00692361 -0.000342426 0)
(-0.0066317 -0.000350763 0)
(-0.00633194 -0.000358807 0)
(-0.00602493 -0.000366451 0)
(-0.00571121 -0.000373718 0)
(-0.00539139 -0.000380588 0)
(-0.00506636 -0.000386923 0)
(-0.00473719 -0.000392513 0)
(-0.00440514 -0.000397066 0)
(-0.0040716 -0.000400139 0)
(-0.00373809 -0.000401165 0)
(-0.00340612 -0.000399631 0)
(-0.00307718 -0.000395279 0)
(-0.00275294 -0.000388218 0)
(-0.00243537 -0.000378837 0)
(-0.00212678 -0.000367507 0)
(-0.00182975 -0.000354268 0)
(-0.00154673 -0.000338737 0)
(-0.00127998 -0.000320242 0)
(-0.00103182 -0.000298164 0)
(-0.000804632 -0.000272288 0)
(-0.000600977 -0.000242838 0)
(-0.000423519 -0.000210272 0)
(-0.000274454 -0.000175007 0)
(-0.000155392 -0.000137285 0)
(-6.75261e-05 -9.75815e-05 0)
(-1.11674e-05 -5.74783e-05 0)
(1.44097e-05 -1.98084e-05 0)
(1.55576e-05 8.62525e-06 0)
(6.89563e-06 1.31657e-05 0)
(-2.7514e-05 -9.49667e-06 0)
(-5.93687e-05 -3.94581e-05 0)
(-0.000103292 -6.60534e-05 0)
(-0.000157008 -5.66401e-05 0)
(-0.000234871 -1.58545e-05 0)
(-0.000348258 4.38992e-05 0)
(-0.000501775 0.000118357 0)
(-0.000693501 0.000200102 0)
(-0.000925044 0.000287667 0)
(-0.00119273 0.000377451 0)
(-0.00149318 0.000467762 0)
(-0.00182466 0.00055602 0)
(-0.00218238 0.00064024 0)
(-0.00256306 0.000717721 0)
(-0.002964 0.000786888 0)
(-0.00338147 0.000846076 0)
(-0.00381309 0.0008945 0)
(-0.00425588 0.00093086 0)
(-0.00470641 0.000954427 0)
(-0.00516269 0.000966003 0)
(-0.00562254 0.000966427 0)
(-0.00608391 0.00095741 0)
(-0.00654463 0.000941138 0)
(-0.00700273 0.000919285 0)
(-0.00745613 0.000893636 0)
(-0.00790258 0.000866106 0)
(-0.00834012 0.00083787 0)
(-0.00876716 0.000809555 0)
(-0.00918213 0.000781509 0)
(-0.00958352 0.000753625 0)
(-0.00997038 0.00072534 0)
(-0.0103419 0.000695958 0)
(-0.0106974 0.000665069 0)
(-0.0110363 0.000632653 0)
(-0.0113581 0.000598777 0)
(-0.0116625 0.000563674 0)
(-0.0119488 0.000527809 0)
(-0.0122164 0.000491555 0)
(-0.0124646 0.000455071 0)
(-0.0126931 0.000418347 0)
(-0.0129012 0.000381139 0)
(-0.0130887 0.000343147 0)
(-0.013255 0.000304181 0)
(-0.0134001 0.000264001 0)
(-0.0135237 0.000222309 0)
(-0.013626 0.00017903 0)
(-0.0137068 0.000134402 0)
(-0.013766 8.88333e-05 0)
(-0.0138036 4.27584e-05 0)
(-0.0138196 -3.42876e-06 0)
(-0.013814 -4.93813e-05 0)
(-0.0137869 -9.47682e-05 0)
(-0.0137381 -0.000139273 0)
(-0.0136676 -0.000182615 0)
(-0.0135756 -0.000224581 0)
(-0.0134623 -0.000265054 0)
(-0.013328 -0.000304 0)
(-0.0131726 -0.000341407 0)
(-0.0129961 -0.000377265 0)
(-0.0127994 -0.000411623 0)
(-0.012583 -0.000444564 0)
(-0.0123474 -0.000476036 0)
(-0.012093 -0.000505782 0)
(-0.0118205 -0.000533496 0)
(-0.0115304 -0.000559058 0)
(-0.0112229 -0.000582636 0)
(-0.0108984 -0.000604635 0)
(-0.0105576 -0.000625568 0)
(-0.0102015 -0.000645878 0)
(-0.00983111 -0.00066577 0)
(-0.00944712 -0.000685148 0)
(-0.00905068 -0.000703754 0)
(-0.008643 -0.00072135 0)
(-0.00822507 -0.000737755 0)
(-0.00779777 -0.000752785 0)
(-0.00736215 -0.000766221 0)
(-0.0069197 -0.00077781 0)
(-0.00647222 -0.000787243 0)
(-0.00602152 -0.000794113 0)
(-0.00556937 -0.000797874 0)
(-0.00511767 -0.000797849 0)
(-0.0046684 -0.000793404 0)
(-0.0042236 -0.000784153 0)
(-0.00378553 -0.000770002 0)
(-0.0033568 -0.000751045 0)
(-0.00294042 -0.00072738 0)
(-0.00253966 -0.000698869 0)
(-0.00215777 -0.000665077 0)
(-0.00179779 -0.000625454 0)
(-0.00146265 -0.000579499 0)
(-0.00115537 -0.000527034 0)
(-0.000879096 -0.000468343 0)
(-0.000636954 -0.000403922 0)
(-0.000431486 -0.000334414 0)
(-0.000264565 -0.000260717 0)
(-0.000137666 -0.000184467 0)
(-5.07836e-05 -0.000108927 0)
(-3.09192e-06 -3.95107e-05 0)
(1.14303e-05 1.23258e-05 0)
(8.11802e-06 2.29187e-05 0)
(-3.98737e-05 3.64063e-05 0)
(-9.89064e-05 2.85415e-05 0)
(-0.000185174 5.12901e-06 0)
(-0.000283057 3.50732e-05 0)
(-0.000411955 0.000110177 0)
(-0.000584535 0.000211457 0)
(-0.000801767 0.000328186 0)
(-0.00106713 0.000453117 0)
(-0.00137571 0.000580824 0)
(-0.00172535 0.000707989 0)
(-0.00211293 0.000831117 0)
(-0.00253294 0.000948863 0)
(-0.00298223 0.00105834 0)
(-0.00345627 0.00115772 0)
(-0.00395044 0.00124485 0)
(-0.00446224 0.00131911 0)
(-0.00498795 0.00137861 0)
(-0.00552471 0.00142414 0)
(-0.0060701 0.00145487 0)
(-0.0066213 0.00147136 0)
(-0.00717592 0.00147459 0)
(-0.00773181 0.00146618 0)
(-0.00828695 0.00144801 0)
(-0.00883927 0.00142215 0)
(-0.00938627 0.00139061 0)
(-0.00992554 0.00135506 0)
(-0.010455 0.00131668 0)
(-0.0109723 0.00127632 0)
(-0.0114753 0.00123452 0)
(-0.0119624 0.00119135 0)
(-0.0124324 0.00114651 0)
(-0.012884 0.00109976 0)
(-0.0133161 0.00105092 0)
(-0.0137282 0.000999925 0)
(-0.0141196 0.000946862 0)
(-0.0144897 0.000891955 0)
(-0.0148377 0.000835596 0)
(-0.0151629 0.000778203 0)
(-0.0154647 0.000719963 0)
(-0.0157424 0.000660846 0)
(-0.0159955 0.000600766 0)
(-0.0162234 0.000539616 0)
(-0.0164258 0.000477205 0)
(-0.0166023 0.000413314 0)
(-0.0167531 0.000347857 0)
(-0.0168782 0.000280888 0)
(-0.0169773 0.000212584 0)
(-0.0170504 0.000143298 0)
(-0.0170976 7.34717e-05 0)
(-0.0171189 3.44537e-06 0)
(-0.0171143 -6.64584e-05 0)
(-0.0170835 -0.000135792 0)
(-0.0170266 -0.000204137 0)
(-0.0169438 -0.000271274 0)
(-0.0168347 -0.000337056 0)
(-0.0166998 -0.000401274 0)
(-0.0165392 -0.000463751 0)
(-0.0163528 -0.000524422 0)
(-0.0161407 -0.000583253 0)
(-0.0159035 -0.000640202 0)
(-0.015642 -0.000695241 0)
(-0.0153565 -0.000748294 0)
(-0.0150473 -0.000799123 0)
(-0.0147152 -0.000847425 0)
(-0.0143608 -0.000893086 0)
(-0.0139843 -0.00093627 0)
(-0.0135864 -0.00097729 0)
(-0.013168 -0.00101643 0)
(-0.0127301 -0.0010539 0)
(-0.0122738 -0.00108976 0)
(-0.0118004 -0.00112397 0)
(-0.0113112 -0.00115631 0)
(-0.0108077 -0.00118648 0)
(-0.0102913 -0.00121415 0)
(-0.00976318 -0.00123899 0)
(-0.00922484 -0.00126066 0)
(-0.00867824 -0.00127878 0)
(-0.00812558 -0.00129289 0)
(-0.00756907 -0.00130241 0)
(-0.00701092 -0.00130663 0)
(-0.0064534 -0.00130481 0)
(-0.00589893 -0.00129622 0)
(-0.00535007 -0.00128034 0)
(-0.0048096 -0.00125685 0)
(-0.00428064 -0.00122556 0)
(-0.00376669 -0.0011863 0)
(-0.00327148 -0.00113872 0)
(-0.00279875 -0.00108231 0)
(-0.00235202 -0.00101661 0)
(-0.00193478 -0.000941235 0)
(-0.00155062 -0.000856156 0)
(-0.00120314 -0.000761742 0)
(-0.000895723 -0.000658628 0)
(-0.000631153 -0.000547765 0)
(-0.000411571 -0.000430812 0)
(-0.000238723 -0.000310581 0)
(-0.000112774 -0.000191863 0)
(-3.36664e-05 -8.2236e-05 0)
(2.26797e-06 2.88269e-06 0)
(8.4508e-06 2.89036e-05 0)
(-4.85241e-05 0.00010229 0)
(-0.000131227 0.000133157 0)
(-0.000253012 0.000115559 0)
(-0.000395063 0.00017259 0)
(-0.000571265 0.000287005 0)
(-0.000797034 0.00043603 0)
(-0.00107492 0.000601522 0)
(-0.00140304 0.000774221 0)
(-0.00178163 0.000947433 0)
(-0.0022059 0.00111573 0)
(-0.00267026 0.00127618 0)
(-0.00317156 0.00142628 0)
(-0.0037046 0.00156336 0)
(-0.00426458 0.00168684 0)
(-0.00484719 0.00179401 0)
(-0.00544834 0.00188422 0)
(-0.0060645 0.00195692 0)
(-0.00669211 0.00201174 0)
(-0.00732868 0.00204935 0)
(-0.0079712 0.00207049 0)
(-0.00861716 0.00207617 0)
(-0.00926403 0.00206798 0)
(-0.00990935 0.00204765 0)
(-0.0105507 0.00201714 0)
(-0.0111855 0.00197853 0)
(-0.0118114 0.00193343 0)
(-0.0124257 0.00188315 0)
(-0.0130261 0.0018288 0)
(-0.0136103 0.00177106 0)
(-0.0141763 0.00171012 0)
(-0.0147227 0.00164603 0)
(-0.0152478 0.00157887 0)
(-0.0157505 0.00150875 0)
(-0.01623 0.00143567 0)
(-0.0166854 0.00135973 0)
(-0.017116 0.00128129 0)
(-0.0175209 0.00120071 0)
(-0.0178992 0.00111831 0)
(-0.0182502 0.00103428 0)
(-0.0185735 0.000948704 0)
(-0.0188681 0.000861619 0)
(-0.0191336 0.000773089 0)
(-0.0193696 0.000683063 0)
(-0.0195758 0.000591321 0)
(-0.0197521 0.000497812 0)
(-0.0198985 0.000402779 0)
(-0.0200149 0.000306494 0)
(-0.0201011 0.000209209 0)
(-0.0201572 0.000111265 0)
(-0.0201833 1.3036e-05 0)
(-0.0201791 -8.50969e-05 0)
(-0.0201446 -0.000182681 0)
(-0.0200797 -0.000279295 0)
(-0.0199846 -0.000374693 0)
(-0.0198592 -0.000468707 0)
(-0.0197036 -0.000561088 0)
(-0.0195181 -0.000651564 0)
(-0.0193025 -0.00073996 0)
(-0.019057 -0.000826196 0)
(-0.0187822 -0.000910205 0)
(-0.0184789 -0.000991876 0)
(-0.0181473 -0.001071 0)
(-0.0177878 -0.0011473 0)
(-0.0174011 -0.0012205 0)
(-0.016988 -0.00129054 0)
(-0.0165491 -0.0013575 0)
(-0.0160849 -0.00142148 0)
(-0.0155965 -0.00148254 0)
(-0.015085 -0.00154071 0)
(-0.0145519 -0.001596 0)
(-0.0139985 -0.00164828 0)
(-0.0134264 -0.00169728 0)
(-0.0128372 -0.00174257 0)
(-0.0122327 -0.00178369 0)
(-0.0116144 -0.00182018 0)
(-0.0109841 -0.00185157 0)
(-0.0103442 -0.00187734 0)
(-0.00969711 -0.00189689 0)
(-0.00904545 -0.00190951 0)
(-0.00839167 -0.00191433 0)
(-0.00773843 -0.00191046 0)
(-0.00708859 -0.00189704 0)
(-0.0064452 -0.00187337 0)
(-0.00581148 -0.00183898 0)
(-0.00519097 -0.00179342 0)
(-0.00458749 -0.00173624 0)
(-0.00400501 -0.0016669 0)
(-0.00344767 -0.00158482 0)
(-0.00291944 -0.00148951 0)
(-0.00242422 -0.00138077 0)
(-0.00196605 -0.00125866 0)
(-0.00154885 -0.00112366 0)
(-0.00117621 -0.000976589 0)
(-0.000851228 -0.000818823 0)
(-0.000576455 -0.000652764 0)
(-0.000354142 -0.000482268 0)
(-0.000184898 -0.000313223 0)
(-7.00759e-05 -0.00015453 0)
(-9.21422e-06 -2.47247e-05 0)
(8.07923e-06 2.93532e-05 0)
(-5.35942e-05 0.00018368 0)
(-0.000154277 0.000267355 0)
(-0.000309327 0.000265403 0)
(-0.00048936 0.00035233 0)
(-0.000711701 0.000514158 0)
(-0.000988407 0.000714032 0)
(-0.00132122 0.000934578 0)
(-0.0017107 0.00115985 0)
(-0.00215299 0.00138192 0)
(-0.00264483 0.00159602 0)
(-0.00318141 0.00179737 0)
(-0.00375738 0.00198244 0)
(-0.00436766 0.00215084 0)
(-0.00500756 0.00229949 0)
(-0.00567245 0.00242864 0)
(-0.00635755 0.00253631 0)
(-0.00705896 0.00262327 0)
(-0.00777274 0.00268875 0)
(-0.00849556 0.00273376 0)
(-0.00922455 0.00275931 0)
(-0.00995664 0.00276687 0)
(-0.0106889 0.00275793 0)
(-0.0114189 0.00273431 0)
(-0.0121437 0.00269805 0)
(-0.0128605 0.00265098 0)
(-0.0135667 0.00259468 0)
(-0.0142597 0.00253072 0)
(-0.0149369 0.0024604 0)
(-0.0155957 0.00238448 0)
(-0.0162345 0.0023034 0)
(-0.0168512 0.00221758 0)
(-0.017444 0.00212739 0)
(-0.0180116 0.00203304 0)
(-0.0185532 0.00193464 0)
(-0.0190677 0.00183246 0)
(-0.019554 0.00172698 0)
(-0.0200113 0.00161866 0)
(-0.0204385 0.00150766 0)
(-0.0208352 0.00139414 0)
(-0.0212005 0.00127841 0)
(-0.0215336 0.00116066 0)
(-0.0218339 0.001041 0)
(-0.0221011 0.000919406 0)
(-0.022335 0.00079585 0)
(-0.0225352 0.00067042 0)
(-0.0227016 0.000543397 0)
(-0.0228341 0.000415051 0)
(-0.0229325 0.00028563 0)
(-0.0229969 0.000155465 0)
(-0.0230274 2.49481e-05 0)
(-0.0230237 -0.000105492 0)
(-0.0229854 -0.000235374 0)
(-0.022913 -0.000364316 0)
(-0.0228065 -0.00049211 0)
(-0.0226658 -0.000618506 0)
(-0.022491 -0.000743096 0)
(-0.0222822 -0.000865524 0)
(-0.0220396 -0.000985644 0)
(-0.0217633 -0.00110337 0)
(-0.0214539 -0.00121849 0)
(-0.0211121 -0.00133074 0)
(-0.0207382 -0.00143983 0)
(-0.0203327 -0.00154549 0)
(-0.0198963 -0.00164749 0)
(-0.01943 -0.00174568 0)
(-0.0189345 -0.00183998 0)
(-0.0184103 -0.00193032 0)
(-0.0178586 -0.00201658 0)
(-0.0172809 -0.00209864 0)
(-0.0166786 -0.00217637 0)
(-0.0160532 -0.00224959 0)
(-0.0154064 -0.00231786 0)
(-0.0147401 -0.00238062 0)
(-0.0140562 -0.00243727 0)
(-0.0133565 -0.00248726 0)
(-0.0126433 -0.00252996 0)
(-0.0119191 -0.00256469 0)
(-0.0111867 -0.00259067 0)
(-0.0104487 -0.00260703 0)
(-0.0097081 -0.00261277 0)
(-0.00896766 -0.00260686 0)
(-0.00823071 -0.00258829 0)
(-0.00750075 -0.0025562 0)
(-0.00678139 -0.00250986 0)
(-0.0060764 -0.0024486 0)
(-0.00538984 -0.00237168 0)
(-0.00472598 -0.0022784 0)
(-0.00408922 -0.00216808 0)
(-0.00348391 -0.00204027 0)
(-0.00291437 -0.00189487 0)
(-0.00238495 -0.00173209 0)
(-0.00189981 -0.0015525 0)
(-0.00146284 -0.00135719 0)
(-0.00107756 -0.00114798 0)
(-0.000747137 -0.000927905 0)
(-0.00047434 -0.00070156 0)
(-0.000260485 -0.00047532 0)
(-0.00010876 -0.000258656 0)
(-2.18971e-05 -7.19688e-05 0)
(7.11849e-06 2.36951e-05 0)
(-5.58052e-05 0.000275288 0)
(-0.000169004 0.000425614 0)
(-0.00035104 0.000447922 0)
(-0.000568529 0.000574954 0)
(-0.000833393 0.000786473 0)
(-0.00115872 0.00104515 0)
(-0.00154462 0.0013228 0)
(-0.00199105 0.00160511 0)
(-0.00249394 0.00188097 0)
(-0.00304945 0.00214334 0)
(-0.00365313 0.00238846 0)
(-0.00429879 0.00261281 0)
(-0.00498147 0.00281428 0)
(-0.00569606 0.00299113 0)
(-0.00643728 0.00314343 0)
(-0.00720062 0.00327037 0)
(-0.00798137 0.00337198 0)
(-0.00877578 0.00344891 0)
(-0.00957957 0.00350191 0)
(-0.0103893 0.003532 0)
(-0.0112018 0.0035409 0)
(-0.0120141 0.0035304 0)
(-0.0128228 0.00350242 0)
(-0.013625 0.00345891 0)
(-0.014418 0.00340171 0)
(-0.0151989 0.00333261 0)
(-0.0159645 0.00325329 0)
(-0.0167125 0.00316503 0)
(-0.0174405 0.00306872 0)
(-0.0181463 0.00296526 0)
(-0.0188276 0.00285544 0)
(-0.0194827 0.00273969 0)
(-0.0201104 0.00261829 0)
(-0.0207093 0.00249167 0)
(-0.0212782 0.00236034 0)
(-0.0218158 0.00222477 0)
(-0.0223214 0.00208532 0)
(-0.0227941 0.00194229 0)
(-0.0232329 0.00179601 0)
(-0.0236371 0.00164684 0)
(-0.0240058 0.00149505 0)
(-0.0243384 0.00134076 0)
(-0.0246347 0.00118408 0)
(-0.0248943 0.00102512 0)
(-0.0251167 0.000864147 0)
(-0.0253017 0.000701507 0)
(-0.0254493 0.000537395 0)
(-0.0255592 0.000372008 0)
(-0.0256315 0.00020578 0)
(-0.0256661 3.92244e-05 0)
(-0.0256628 -0.000127237 0)
(-0.0256214 -0.000293219 0)
(-0.0255421 -0.000458355 0)
(-0.0254252 -0.000622335 0)
(-0.0252705 -0.000784791 0)
(-0.0250778 -0.000945251 0)
(-0.0248477 -0.00110334 0)
(-0.0245804 -0.0012589 0)
(-0.0242759 -0.00141176 0)
(-0.0239349 -0.00156158 0)
(-0.0235579 -0.00170794 0)
(-0.0231455 -0.00185052 0)
(-0.022698 -0.00198907 0)
(-0.0222164 -0.00212328 0)
(-0.0217017 -0.0022529 0)
(-0.0211548 -0.0023777 0)
(-0.0205763 -0.00249742 0)
(-0.0199672 -0.00261182 0)
(-0.0193295 -0.00272062 0)
(-0.0186646 -0.00282358 0)
(-0.0179741 -0.00292034 0)
(-0.0172597 -0.0030103 0)
(-0.0165235 -0.00309273 0)
(-0.0157677 -0.00316692 0)
(-0.0149944 -0.00323224 0)
(-0.0142059 -0.00328792 0)
(-0.0134051 -0.00333306 0)
(-0.0125948 -0.00336664 0)
(-0.0117782 -0.00338759 0)
(-0.0109581 -0.00339479 0)
(-0.0101377 -0.00338707 0)
(-0.00932077 -0.00336326 0)
(-0.00851101 -0.00332227 0)
(-0.00771238 -0.00326313 0)
(-0.00692888 -0.00318494 0)
(-0.00616476 -0.00308677 0)
(-0.00542451 -0.00296776 0)
(-0.00471282 -0.00282717 0)
(-0.00403447 -0.00266455 0)
(-0.00339409 -0.0024799 0)
(-0.00279627 -0.00227356 0)
(-0.00224544 -0.00204625 0)
(-0.00174585 -0.00179925 0)
(-0.00130156 -0.00153473 0)
(-0.000916406 -0.00125617 0)
(-0.000593764 -0.000968469 0)
(-0.000335899 -0.00067818 0)
(-0.00014782 -0.000394492 0)
(-3.52084e-05 -0.000138903 0)
(5.7126e-06 1.16179e-05 0)
(-5.37593e-05 0.000371285 0)
(-0.00017625 0.000601855 0)
(-0.000380108 0.000660379 0)
(-0.000631196 0.000834883 0)
(-0.000937514 0.00110497 0)
(-0.00130883 0.00142501 0)
(-0.00174608 0.00176525 0)
(-0.00224644 0.00210776 0)
(-0.00280729 0.00243999 0)
(-0.00342328 0.00275447 0)
(-0.0040894 0.00304563 0)
(-0.00480068 0.00331144 0)
(-0.00555151 0.00354822 0)
(-0.00633575 0.00375625 0)
(-0.00714827 0.00393321 0)
(-0.0079846 0.00408061 0)
(-0.00883948 0.00419818 0)
(-0.00970826 0.00428694 0)
(-0.0105872 0.00434776 0)
(-0.0114724 0.00438231 0)
(-0.0123597 0.00439227 0)
(-0.0132459 0.00437944 0)
(-0.0141277 0.00434589 0)
(-0.015002 0.00429371 0)
(-0.0158656 0.00422492 0)
(-0.0167153 0.00414144 0)
(-0.0175483 0.00404491 0)
(-0.018362 0.00393674 0)
(-0.0191538 0.00381821 0)
(-0.0199213 0.00369046 0)
(-0.0206623 0.00355436 0)
(-0.0213751 0.00341056 0)
(-0.0220581 0.00325964 0)
(-0.0227098 0.00310227 0)
(-0.0233288 0.00293906 0)
(-0.023914 0.00277048 0)
(-0.0244645 0.00259696 0)
(-0.0249791 0.0024189 0)
(-0.0254569 0.00223682 0)
(-0.0258971 0.00205119 0)
(-0.0262988 0.00186222 0)
(-0.0266615 0.00167009 0)
(-0.0269848 0.0014751 0)
(-0.0272683 0.00127755 0)
(-0.0275112 0.00107776 0)
(-0.0277136 0.000876068 0)
(-0.0278754 0.000672675 0)
(-0.0279962 0.00046786 0)
(-0.0280759 0.000262153 0)
(-0.0281146 5.60993e-05 0)
(-0.0281118 -0.000149925 0)
(-0.0280677 -0.000355568 0)
(-0.0279824 -0.000560406 0)
(-0.0278561 -0.000764009 0)
(-0.0276885 -0.000965915 0)
(-0.0274798 -0.00116563 0)
(-0.0272303 -0.00136281 0)
(-0.0269405 -0.00155721 0)
(-0.0266104 -0.00174852 0)
(-0.0262404 -0.00193627 0)
(-0.0258314 -0.00211996 0)
(-0.0253838 -0.00229926 0)
(-0.0248982 -0.00247387 0)
(-0.0243755 -0.00264341 0)
(-0.023817 -0.00280744 0)
(-0.0232233 -0.00296555 0)
(-0.0225952 -0.00311741 0)
(-0.0219341 -0.00326263 0)
(-0.0212419 -0.00340082 0)
(-0.0205201 -0.00353155 0)
(-0.0197704 -0.00365424 0)
(-0.0189945 -0.00376814 0)
(-0.0181946 -0.00387236 0)
(-0.0173733 -0.0039661 0)
(-0.0165329 -0.00404856 0)
(-0.0156758 -0.00411882 0)
(-0.0148049 -0.00417573 0)
(-0.0139233 -0.00421804 0)
(-0.0130343 -0.00424448 0)
(-0.0121411 -0.00425378 0)
(-0.0112471 -0.00424461 0)
(-0.0103561 -0.00421561 0)
(-0.00947229 -0.00416543 0)
(-0.00859987 -0.00409287 0)
(-0.00774303 -0.00399685 0)
(-0.00690619 -0.00387631 0)
(-0.00609405 -0.00373024 0)
(-0.00531162 -0.00355785 0)
(-0.00456402 -0.00335868 0)
(-0.00385626 -0.00313277 0)
(-0.00319312 -0.00288053 0)
(-0.00257925 -0.0026028 0)
(-0.00201929 -0.00230101 0)
(-0.00151798 -0.00197753 0)
(-0.00107988 -0.00163606 0)
(-0.000709097 -0.00128153 0)
(-0.000408923 -0.000920308 0)
(-0.000186041 -0.000560719 0)
(-4.8641e-05 -0.000224989 0)
(4.02709e-06 -7.0541e-06 0)
(-4.96076e-05 0.000468155 0)
(-0.000175605 0.000790194 0)
(-0.00039798 0.00089955 0)
(-0.000679686 0.00113072 0)
(-0.00102481 0.00146637 0)
(-0.00144105 0.00185263 0)
(-0.00192629 0.00225938 0)
(-0.002479 0.00266519 0)
(-0.00309447 0.00305665 0)
(-0.00376814 0.00342534 0)
(-0.00449412 0.00376571 0)
(-0.00526692 0.00407433 0)
(-0.00608094 0.00434882 0)
(-0.00693078 0.00458856 0)
(-0.00781065 0.0047928 0)
(-0.0087144 0.00496179 0)
(-0.009638 0.00509612 0)
(-0.0105767 0.00519707 0)
(-0.0115254 0.00526607 0)
(-0.0124799 0.00530488 0)
(-0.0134366 0.00531519 0)
(-0.0143918 0.00529915 0)
(-0.0153415 0.00525907 0)
(-0.0162823 0.00519711 0)
(-0.0172111 0.0051153 0)
(-0.0181249 0.00501572 0)
(-0.0190203 0.00490026 0)
(-0.0198947 0.00477054 0)
(-0.0207455 0.00462803 0)
(-0.0215701 0.00447402 0)
(-0.0223664 0.00430957 0)
(-0.0231325 0.00413559 0)
(-0.0238665 0.00395293 0)
(-0.0245671 0.00376244 0)
(-0.0252325 0.00356478 0)
(-0.0258618 0.00336053 0)
(-0.0264537 0.00315026 0)
(-0.0270072 0.00293452 0)
(-0.0275211 0.0027139 0)
(-0.0279947 0.00248892 0)
(-0.0284272 0.00225982 0)
(-0.0288179 0.00202694 0)
(-0.0291663 0.00179075 0)
(-0.0294719 0.00155165 0)
(-0.029734 0.00130996 0)
(-0.0299527 0.00106602 0)
(-0.0301278 0.000820135 0)
(-0.0302589 0.000572721 0)
(-0.0303456 0.000324377 0)
(-0.0303882 7.5606e-05 0)
(-0.0303864 -0.000173285 0)
(-0.03034 -0.000421896 0)
(-0.0302494 -0.000669651 0)
(-0.0301147 -0.000916003 0)
(-0.0299356 -0.00116049 0)
(-0.0297123 -0.00140266 0)
(-0.0294453 -0.00164208 0)
(-0.0291352 -0.00187841 0)
(-0.0287817 -0.00211119 0)
(-0.0283854 -0.00233982 0)
(-0.0279471 -0.00256381 0)
(-0.0274676 -0.0027828 0)
(-0.0269473 -0.00299641 0)
(-0.0263873 -0.00320406 0)
(-0.0257886 -0.00340514 0)
(-0.0251522 -0.00359918 0)
(-0.0244791 -0.00378574 0)
(-0.0237706 -0.00396431 0)
(-0.0230286 -0.00413429 0)
(-0.0222549 -0.00429503 0)
(-0.021451 -0.00444579 0)
(-0.0206188 -0.00458568 0)
(-0.0197607 -0.0047137 0)
(-0.0188795 -0.00482884 0)
(-0.0179775 -0.00493012 0)
(-0.0170574 -0.0050164 0)
(-0.0161219 -0.00508633 0)
(-0.0151746 -0.00513843 0)
(-0.0142188 -0.00517124 0)
(-0.0132579 -0.00518329 0)
(-0.0122956 -0.00517308 0)
(-0.0113358 -0.00513907 0)
(-0.010383 -0.00507968 0)
(-0.00944153 -0.00499346 0)
(-0.00851597 -0.0048792 0)
(-0.0076108 -0.00473567 0)
(-0.00673093 -0.00456174 0)
(-0.00588163 -0.00435653 0)
(-0.00506844 -0.00411954 0)
(-0.00429666 -0.00385071 0)
(-0.00357127 -0.00355051 0)
(-0.00289722 -0.00321978 0)
(-0.00227955 -0.00286011 0)
(-0.00172374 -0.00247405 0)
(-0.0012351 -0.00206529 0)
(-0.000818478 -0.00163854 0)
(-0.00047828 -0.0011997 0)
(-0.000222612 -0.000755813 0)
(-6.17111e-05 -0.000329623 0)
(2.22838e-06 -3.241e-05 0)
(-4.35443e-05 0.000561936 0)
(-0.000170493 0.000987404 0)
(-0.00040643 0.00116085 0)
(-0.000715637 0.00146074 0)
(-0.00109785 0.00186727 0)
(-0.00155641 0.00232694 0)
(-0.00208791 0.00280309 0)
(-0.00269013 0.00327477 0)
(-0.00335835 0.00372835 0)
(-0.00408634 0.0041535 0)
(-0.00486866 0.00454494 0)
(-0.00570018 0.00489794 0)
(-0.00657447 0.0052122 0)
(-0.00748513 0.0054849 0)
(-0.00842707 0.00571725 0)
(-0.00939504 0.00590864 0)
(-0.0103831 0.00606057 0)
(-0.0113859 0.00617431 0)
(-0.0123993 0.00625159 0)
(-0.013419 0.0062942 0)
(-0.0144403 0.00630432 0)
(-0.0154589 0.00628448 0)
(-0.0164713 0.00623694 0)
(-0.0174742 0.00616387 0)
(-0.0184638 0.00606768 0)
(-0.0194367 0.00595067 0)
(-0.02039 0.00581482 0)
(-0.0213208 0.0056619 0)
(-0.0222263 0.00549364 0)
(-0.0231038 0.00531156 0)
(-0.0239514 0.00511692 0)
(-0.0247668 0.00491082 0)
(-0.0255482 0.00469435 0)
(-0.0262939 0.00446852 0)
(-0.0270025 0.00423407 0)
(-0.0276726 0.00399172 0)
(-0.028303 0.00374226 0)
(-0.0288926 0.00348638 0)
(-0.02944 0.00322467 0)
(-0.0299447 0.00295764 0)
(-0.0304059 0.0026857 0)
(-0.0308226 0.00240939 0)
(-0.0311943 0.00212933 0)
(-0.0315205 0.00184589 0)
(-0.0318007 0.00155936 0)
(-0.0320347 0.00127022 0)
(-0.0322224 0.000978951 0)
(-0.0323631 0.00068606 0)
(-0.0324565 0.000392098 0)
(-0.032503 9.75197e-05 0)
(-0.0325024 -0.000197309 0)
(-0.0324544 -0.000491853 0)
(-0.0323591 -0.000785422 0)
(-0.0322168 -0.00107745 0)
(-0.0320274 -0.0013675 0)
(-0.031791 -0.00165508 0)
(-0.0315082 -0.00193965 0)
(-0.0311796 -0.00222069 0)
(-0.0308048 -0.00249767 0)
(-0.0303844 -0.00276998 0)
(-0.0299196 -0.00303707 0)
(-0.029411 -0.00329848 0)
(-0.0288591 -0.00355368 0)
(-0.0282648 -0.00380194 0)
(-0.0276294 -0.00404254 0)