/*--------------------------------*- C++ -*----------------------------------*\
  =========                 |
  \\      /  F ield         | OpenFOAM: The Open Source CFD Toolbox
   \\    /   O peration     | Website:  https://openfoam.org
    \\  /    A nd           | Version:  11
     \\/     M anipulation  |
\*---------------------------------------------------------------------------*/
FoamFile
{
    format      ascii;
    class       volScalarField;
    location    "5.9";
    object      p;
}
// * * * * * * * * * * * * * * * * * * * * * * * * * * * * * * * * * * * * * //

dimensions      [0 2 -2 0 0 0 0];

internalField   nonuniform List<scalar> 
10100
(
-2.07504e-08
8.37207e-05
-0.000116211
-0.000621416
-0.00139621
-0.00240095
-0.00358779
-0.00490896
-0.00631978
-0.00778079
-0.00925666
-0.0107162
-0.0121325
-0.013482
-0.0147439
-0.0159003
-0.0169359
-0.0178373
-0.0185942
-0.0191981
-0.0196416
-0.0199191
-0.0200263
-0.0199595
-0.0197167
-0.0192967
-0.0186994
-0.0179258
-0.0169776
-0.0158575
-0.0145685
-0.0131146
-0.0115004
-0.00973101
-0.00781235
-0.00575051
-0.00355215
-0.00122449
0.00122485
0.00378797
0.00645683
0.00922274
0.0120765
0.015009
0.0180106
0.0210719
0.0241831
0.0273342
0.0305152
0.0337158
0.0369254
0.0401333
0.0433291
0.0465022
0.0496422
0.0527388
0.055781
0.0587585
0.0616612
0.0644789
0.0672019
0.0698201
0.072324
0.0747045
0.076953
0.0790613
0.0810217
0.0828271
0.0844711
0.0859474
0.0872507
0.0883762
0.0893202
0.0900797
0.0906529
0.0910389
0.0912378
0.0912507
0.0910797
0.0907287
0.090203
0.0895095
0.0886567
0.0876546
0.0865159
0.0852552
0.0838895
0.0824378
0.0809221
0.0793668
0.0777997
0.0762527
0.0747619
0.0733681
0.0721167
0.0710571
0.07024
0.0697152
0.0695249
0.0696227
-8.55621e-05
3.85507e-05
-0.000130433
-0.000569007
-0.00123443
-0.00209685
-0.0031196
-0.00426333
-0.00549126
-0.00676893
-0.0080649
-0.00935141
-0.0106031
-0.0117979
-0.0129167
-0.0139424
-0.01486
-0.0156571
-0.0163227
-0.0168481
-0.0172263
-0.0174516
-0.017519
-0.0174254
-0.0171681
-0.0167456
-0.0161573
-0.0154038
-0.0144866
-0.0134079
-0.0121706
-0.0107782
-0.00923462
-0.00754469
-0.00571365
-0.00374725
-0.00165182
0.000565696
0.00289825
0.00533855
0.00787891
0.0105112
0.0132267
0.0160165
0.018872
0.021784
0.0247432
0.0277402
0.0307653
0.0338087
0.0368606
0.0399107
0.0429491
0.0459659
0.0489513
0.0518951
0.054787
0.0576175
0.0603771
0.063056
0.065645
0.0681347
0.070516
0.0727804
0.0749201
0.0769274
0.078795
0.0805164
0.0820857
0.0834974
0.0847462
0.085828
0.0867397
0.0874788
0.0880438
0.0884342
0.0886505
0.0886941
0.0885675
0.0882745
0.087821
0.0872136
0.0864607
0.0855724
0.0845609
0.0834405
0.0822275
0.0809401
0.0795987
0.0782264
0.0768485
0.075494
0.0741947
0.0729858
0.0719049
0.0709907
0.0702805
0.0698092
0.0696219
0.0697203
0.00013631
0.000278026
0.000123526
-0.000280146
-0.000883368
-0.0016594
-0.00257675
-0.00360279
-0.00470525
-0.00585366
-0.00702068
-0.00818087
-0.00931074
-0.01039
-0.0114005
-0.012326
-0.0131528
-0.0138687
-0.014463
-0.0149272
-0.0152543
-0.0154382
-0.0154744
-0.0153593
-0.0150905
-0.0146661
-0.0140853
-0.0133483
-0.0124563
-0.0114112
-0.0102157
-0.00887302
-0.00738693
-0.00576165
-0.00400199
-0.00211345
-0.000102105
0.00202548
0.00426266
0.00660271
0.00903824
0.0115613
0.0141638
0.0168372
0.0195731
0.022363
0.025198
0.028069
0.0309669
0.0338822
0.036805
0.0397262
0.0426362
0.0455256
0.0483848
0.0512041
0.0539737
0.0566844
0.0593275
0.0618936
0.0643737
0.0667589
0.0690408
0.0712112
0.0732627
0.0751882
0.0769808
0.0786345
0.0801438
0.0815033
0.0827085
0.0837552
0.0846408
0.0853634
0.0859219
0.0863158
0.086546
0.0866138
0.0865222
0.0862751
0.085878
0.0853377
0.0846622
0.0838615
0.0829475
0.081934
0.0808366
0.0796723
0.0784603
0.0772217
0.07598
0.0747612
0.0735938
0.0725083
0.0715366
0.0707112
0.0700624
0.0696195
0.069433
0.0695303
0.000726464
0.000816934
0.000636361
0.000230782
-0.000351618
-0.00108569
-0.00194342
-0.0028965
-0.00391645
-0.00497648
-0.00605212
-0.00712019
-0.00816007
-0.00915249
-0.0100802
-0.0109286
-0.0116844
-0.0123361
-0.0128738
-0.0132893
-0.0135754
-0.0137263
-0.0137374
-0.0136052
-0.0133272
-0.0129014
-0.0123271
-0.0116043
-0.010734
-0.00971756
-0.00855746
-0.00725685
-0.00581932
-0.00424874
-0.00254959
-0.000727217
0.00121252
0.00326361
0.00541981
0.00767461
0.010021
0.0124512
0.0149575
0.0175319
0.0201662
0.0228522
0.0255815
0.0283455
0.0311353
0.0339415
0.036755
0.0395667
0.0423677
0.045149
0.0479012
0.0506148
0.0532807
0.0558903
0.0584348
0.0609054
0.0632934
0.0655904
0.0677883
0.0698795
0.0718569
0.0737136
0.0754432
0.0770401
0.0784991
0.0798151
0.0809835
0.0820007
0.0828646
0.0835733
0.084126
0.0845225
0.0847636
0.084851
0.0847874
0.084577
0.084225
0.0837379
0.0831235
0.0823914
0.0815533
0.0806224
0.0796132
0.0785418
0.0774257
0.0762845
0.0751397
0.0740149
0.0729353
0.0719277
0.0710201
0.0702407
0.0696161
0.0691731
0.0689594
0.0690062
0.00162755
0.00160365
0.00135656
0.000919825
0.000329931
-0.000389576
-0.0012147
-0.00212037
-0.00308225
-0.00407669
-0.00508137
-0.00607658
-0.00704324
-0.00796382
-0.0088228
-0.00960611
-0.0103014
-0.0108981
-0.0113869
-0.0117599
-0.0120103
-0.0121325
-0.012122
-0.0119752
-0.0116896
-0.0112632
-0.0106952
-0.00998594
-0.0091359
-0.00814635
-0.00701946
-0.00575814
-0.00436569
-0.00284583
-0.00120292
0.000557882
0.00243103
0.004411
0.006492
0.00866761
0.010931
0.0132749
0.0156919
0.0181743
0.0207142
0.0233038
0.0259349
0.0285995
0.0312888
0.0339938
0.0367057
0.0394161
0.0421162
0.0447972
0.0474501
0.0500658
0.0526358
0.0551517
0.0576051
0.0599874
0.0622902
0.0645057
0.0666262
0.0686443
0.0705532
0.0723465
0.0740183
0.075563
0.0769756
0.0782514
0.0793859
0.080376
0.0812196
0.0819155
0.0824626
0.0828609
0.0831112
0.0832154
0.0831762
0.0829975
0.0826845
0.0822432
0.0816813
0.081008
0.0802345
0.0793732
0.0784375
0.0774423
0.0764038
0.07534
0.0742703
0.0732159
0.0721992
0.0712437
0.0703736
0.0696137
0.0689873
0.0685187
0.0682449
0.0681891
0.00277642
0.00259586
0.0022509
0.0017581
0.00113698
0.000407281
-0.000408328
-0.00128937
-0.00221475
-0.00316384
-0.00411727
-0.00505719
-0.00596649
-0.00682973
-0.00763273
-0.00836257
-0.00900782
-0.00955855
-0.0100062
-0.0103431
-0.0105631
-0.0106609
-0.0106319
-0.010473
-0.0101815
-0.00975552
-0.00919423
-0.00849776
-0.00766663
-0.00670203
-0.00560598
-0.00438109
-0.00303031
-0.00155724
3.36893e-05
0.00173758
0.00354938
0.00546388
0.00747553
0.00957816
0.0117651
0.0140294
0.0163641
0.0187616
0.0212146
0.0237155
0.0262565
0.0288296
0.0314264
0.0340382
0.0366568
0.0392741
0.0418816
0.0444705
0.0470322
0.0495581
0.0520402
0.0544703
0.0568402
0.0591415
0.0613664
0.0635075
0.0655571
0.0675084
0.0693548
0.0710903
0.0727091
0.0742062
0.0755766
0.0768155
0.0779189
0.0788841
0.0797092
0.0803929
0.0809344
0.0813335
0.0815913
0.0817094
0.0816907
0.0815388
0.0812586
0.0808559
0.080338
0.0797138
0.0789937
0.0781892
0.0773129
0.0763781
0.0754
0.0743949
0.0733803
0.0723751
0.0713989
0.0704723
0.0696164
0.0688523
0.068201
0.0676837
0.0673219
0.0671258
0.0041183
0.00375525
0.00329021
0.00272074
0.00204734
0.00128725
0.000459592
-0.000417352
-0.00132592
-0.00224868
-0.00316874
-0.00407006
-0.00493764
-0.00575764
-0.00651729
-0.00720497
-0.00781024
-0.00832397
-0.00873818
-0.00904577
-0.00924085
-0.00931849
-0.0092746
-0.00910598
-0.00881018
-0.00838555
-0.00783122
-0.00714706
-0.00633359
-0.00539207
-0.00432433
-0.00313266
-0.00181995
-0.000389742
0.00115366
0.00280564
0.00456158
0.00641653
0.00836497
0.010401
0.0125184
0.0147103
0.0169701
0.0192905
0.0216643
0.0240846
0.0265437
0.0290337
0.0315463
0.0340737
0.0366078
0.0391407
0.0416642
0.0441696
0.0466488
0.0490936
0.0514961
0.0538486
0.056143
0.0583713
0.060526
0.0626
0.0645858
0.0664768
0.0682668
0.0699502
0.0715216
0.0729757
0.0743078
0.0755134
0.0765888
0.0775314
0.0783396
0.079012
0.0795476
0.0799466
0.0802098
0.080339
0.0803368
0.0802065
0.0799529
0.0795815
0.0790992
0.0785143
0.0778366
0.0770766
0.0762456
0.0753562
0.0744221
0.0734581
0.0724799
0.0715042
0.0705481
0.0696296
0.0687668
0.0679778
0.0672813
0.0666956
0.0662247
0.0658635
0.00560388
0.00504433
0.0044432
0.00378108
0.00303899
0.00223105
0.00137431
0.00048393
-0.000425126
-0.001338
-0.00224022
-0.00311782
-0.0039576
-0.00474717
-0.00547512
-0.00613111
-0.00670575
-0.0071907
-0.0075785
-0.00786294
-0.00803841
-0.00810024
-0.0080447
-0.00786882
-0.00757038
-0.00714793
-0.00660063
-0.00592832
-0.00513151
-0.00421135
-0.00316952
-0.00200812
-0.000730094
0.000660967
0.0021611
0.00376605
0.00547139
0.00727229
0.00916342
0.0111391
0.0131934
0.0153198
0.0175116
0.0197622
0.0220646
0.024412
0.0267969
0.0292116
0.0316484
0.0340996
0.0365575
0.0390145
0.0414621
0.0438923
0.0462973
0.0486692
0.0510004
0.0532831
0.0555098
0.0576727
0.0597647
0.0617786
0.0637073
0.0655443
0.067284
0.0689208
0.0704497
0.0718653
0.0731631
0.0743387
0.0753889
0.0763111
0.0771038
0.0777655
0.0782953
0.078693
0.0789598
0.0790972
0.0791076
0.0789943
0.0787615
0.0784146
0.07796
0.0774056
0.07676
0.0760329
0.0752349
0.0743773
0.0734726
0.0725341
0.0715759
0.0706124
0.0696588
0.0687306
0.0678431
0.0670118
0.0662534
0.0655836
0.0649882
0.0644466
0.00719082
0.0064276
0.00568053
0.00491404
0.00409007
0.00322053
0.00232054
0.00140216
0.000477951
-0.000439423
-0.00133744
-0.00220432
-0.00302855
-0.00379905
-0.00450586
-0.00513983
-0.00569238
-0.00615604
-0.00652417
-0.00679103
-0.00695162
-0.00700162
-0.00693758
-0.00675684
-0.00645745
-0.00603804
-0.00549781
-0.00483683
-0.00405565
-0.00315519
-0.00213694
-0.00100313
0.000243293
0.00159888
0.00305992
0.00462244
0.00628215
0.00803431
0.00987375
0.0117951
0.0137925
0.0158597
0.0179905
0.0201783
0.0224164
0.0246983
0.0270165
0.0293635
0.0317322
0.0341152
0.036505
0.0388938
0.0412736
0.0436366
0.0459753
0.0482821
0.0505496
0.0527703
0.0549367
0.0570416
0.0590779
0.0610384
0.0629163
0.0647055
0.0664006
0.0679964
0.0694875
0.0708689
0.0721362
0.0732852
0.0743128
0.0752168
0.0759953
0.0766469
0.0771705
0.0775662
0.0778348
0.0779778
0.0779975
0.0778967
0.0776794
0.0773508
0.0769168
0.0763844
0.0757617
0.0750574
0.074281
0.073443
0.0725548
0.0716282
0.0706756
0.0697096
0.0687434
0.0677902
0.0668633
0.0659755
0.0651418
0.064376
0.0636455
0.0629151
0.00884242
0.00787376
0.00697553
0.00609622
0.00518015
0.00423806
0.00328294
0.00232447
0.00137283
0.000438761
-0.000467202
-0.00133488
-0.00215428
-0.00291593
-0.00361108
-0.00423157
-0.00476989
-0.00521921
-0.00557381
-0.00582842
-0.00597851
-0.00602023
-0.00595052
-0.00576714
-0.00546831
-0.00505269
-0.00451971
-0.00386962
-0.00310294
-0.00222043
-0.0012236
-0.000114781
0.00110305
0.00242672
0.00385279
0.00537738
0.00699619
0.00870465
0.0104979
0.0123706
0.0143172
0.0163316
0.0184078
0.0205396
0.0227206
0.0249439
0.0272025
0.0294894
0.0317976
0.03412
0.0364492
0.0387774
0.041097
0.0434005
0.0456806
0.0479299
0.0501411
0.0523071
0.0544206
0.0564745
0.0584617
0.0603754
0.0622088
0.0639562
0.0656124
0.0671721
0.0686302
0.0699817
0.0712221
0.0723478
0.0733556
0.0742432
0.0750089
0.075651
0.0761685
0.0765613
0.0768302
0.0769767
0.0770024
0.0769101
0.0767035
0.0763875
0.0759674
0.0754496
0.0748414
0.0741506
0.0733859
0.0725568
0.0716735
0.0707468
0.0697872
0.0688059
0.067814
0.0668232
0.0658447
0.0648889
0.0639696
0.0630988
0.0622265
0.0613036
0.0105279
0.00935511
0.00830272
0.00730529
0.00629028
0.00526657
0.00424668
0.00323813
0.00224889
0.00128768
0.000363403
-0.00051507
-0.00133926
-0.00210116
-0.00279309
-0.00340781
-0.00393885
-0.00438022
-0.00472679
-0.004974
-0.00511768
-0.00515446
-0.00508177
-0.00489769
-0.00460061
-0.00418941
-0.00366384
-0.00302419
-0.0022708
-0.00140448
-0.000427007
0.000659208
0.0018515
0.00314692
0.00454202
0.0060329
0.00761544
0.00928525
0.0110376
0.0128672
0.0147688
0.0167366
0.0187647
0.0208471
0.0229774
0.025149
0.0273551
0.029589
0.0318441
0.0341133
0.0363891
0.0386642
0.040931
0.0431824
0.0454113
0.0476104
0.0497725
0.0518908
0.0539583
0.055968
0.0579128
0.0597858
0.0615808
0.0632921
0.0649149
0.0664438
0.0678735
0.0691991
0.0704164
0.0715219
0.0725125
0.0733859
0.07414
0.0747734
0.0752849
0.0756744
0.0759425
0.0760903
0.0761192
0.0760318
0.0758316
0.0755229
0.0751108
0.0746009
0.0739997
0.0733142
0.0725522
0.0717224
0.070834
0.0698964
0.0689191
0.0679113
0.0668829
0.0658439
0.0648037
0.0637708
0.0627579
0.0617756
0.0607575
0.0596415
0.0122213
0.0108468
0.00963961
0.00852107
0.00740164
0.00628986
0.00519765
0.00413067
0.00309508
0.00209798
0.00114676
0.000248822
-0.000588636
-0.00135871
-0.00205485
-0.00267079
-0.0032008
-0.00363991
-0.00398343
-0.00422743
-0.00436837
-0.00440333
-0.00433012
-0.00414698
-0.00385267
-0.00344654
-0.0029284
-0.00229839
-0.00155703
-0.000705413
0.000254677
0.00132095
0.00249081
0.00376141
0.00512937
0.0065908
0.00814164
0.00977764
0.0114942
0.0132863
0.0151486
0.0170757
0.019062
0.0211014
0.0231876
0.0253141
0.0274746
0.0296626
0.0318716
0.0340945
0.0363241
0.0385531
0.0407744
0.0429809
0.0451656
0.0473214
0.0494415
0.051519
0.0535473
0.0555192
0.0574277
0.0592661
0.0610286
0.0627097
0.0643043
0.0658073
0.0672132
0.0685171
0.069715
0.0708036
0.0717797
0.0726408
0.0733849
0.0740105
0.0745164
0.0749024
0.0751687
0.0753161
0.0753457
0.0752599
0.0750621
0.0747562
0.0743468
0.0738388
0.0732379
0.0725503
0.0717831
0.0709442
0.0700418
0.0690841
0.0680793
0.0670356
0.0659615
0.0648656
0.0637557
0.0626384
0.0615257
0.0604275
0.0592617
0.0579538
0.0139001
0.0123279
0.0109665
0.00972444
0.00849713
0.0072927
0.00612215
0.00498988
0.00390068
0.00286029
0.0018746
0.000949726
9.1808e-05
-0.000693306
-0.00140012
-0.00202339
-0.00255806
-0.00299983
-0.00334472
-0.00358933
-0.00373079
-0.00376657
-0.00369484
-0.00351419
-0.00322369
-0.00282295
-0.00231196
-0.00169087
-0.000960331
-0.00012175
0.000823022
0.00187193
0.00302252
0.00427182
0.00561637
0.00705241
0.00857606
0.0101831
0.011869
0.0136288
0.0154576
0.01735
0.0193005
0.0213031
0.0233515
0.0254395
0.027561
0.0297099
0.0318796
0.0340631
0.0362533
0.0384433
0.0406261
0.0427946
0.044942
0.0470614
0.049146
0.0511896
0.053185
0.0551253
0.0570036
0.0588135
0.0605493
0.0622056
0.0637775
0.0652593
0.0666458
0.0679321
0.0691145
0.0701894
0.0711536
0.0720047
0.0727405
0.0733594
0.0738603
0.0742428
0.0745065
0.074652
0.0746801
0.0745932
0.0743945
0.0740876
0.0736762
0.0731647
0.072558
0.0718617
0.0710825
0.0702271
0.0693028
0.0683168
0.0672763
0.0661886
0.0650611
0.0639011
0.0627148
0.0615074
0.0602903
0.0590731
0.0577591
0.0562619
0.0155449
0.0137796
0.0122652
0.0108987
0.00956124
0.00826044
0.00700709
0.00580417
0.00465546
0.00356548
0.00253883
0.00158062
0.000696033
-0.000110118
-0.000833298
-0.00146906
-0.00201326
-0.00246207
-0.00281223
-0.00306083
-0.00320564
-0.00324461
-0.00317602
-0.002999
-0.00271315
-0.0023181
-0.00181371
-0.00120057
-0.000479778
0.000347316
0.00127907
0.00231344
0.0034478
0.00467911
0.006004
0.00741883
0.00891973
0.0105025
0.0121627
0.0138955
0.0156963
0.0175598
0.0194804
0.0214522
0.0234689
0.0255249
0.0276142
0.0297306
0.0318676
0.0340182
0.0361758
0.0383337
0.0404848
0.0426221
0.0447389
0.0468284
0.0488844
0.0509004
0.0528693
0.0547841
0.0566381
0.0584253
0.0601401
0.0617772
0.0633312
0.0647967
0.0661682
0.0674411
0.0686117
0.0696763
0.0706315
0.0714748
0.0722041
0.0728178
0.0733146
0.0736936
0.0739542
0.0740965
0.0741215
0.0740313
0.0738289
0.0735174
0.0731
0.0725802
0.0719625
0.071252
0.0704545
0.0695761
0.068623
0.0676017
0.0665185
0.0653799
0.0641925
0.0629623
0.0616942
0.060392
0.0590672
0.0577292
0.0562674
0.0545841
0.0171392
0.0151852
0.0135198
0.0120289
0.0105794
0.00917949
0.00783987
0.00656221
0.00534914
0.00420435
0.00313149
0.00213455
0.00121788
0.000385537
-0.00035892
-0.00101185
-0.00156967
-0.00202916
-0.00238789
-0.00264363
-0.00279421
-0.00283804
-0.00277413
-0.00260198
-0.0023212
-0.00193154
-0.00143327
-0.000827367
-0.00011502
0.000702515
0.00162362
0.00264608
0.00376715
0.00498383
0.00629284
0.00769056
0.00917305
0.0107361
0.0123755
0.0140867
0.015865
0.0177052
0.0196015
0.0215483
0.0235397
0.0255701
0.0276335
0.0297238
0.0318345
0.033959
0.0360908
0.0382232
0.0403492
0.0424619
0.0445546
0.046621
0.0486548
0.0506495
0.0525979
0.0544932
0.0563289
0.0580993
0.0597988
0.0614219
0.062963
0.0644166
0.0657777
0.0670415
0.0682041
0.0692617
0.0702108
0.0710487
0.0717737
0.0723837
0.0728774
0.0732532
0.0735103
0.0736487
0.0736693
0.0735742
0.0733658
0.0730468
0.0726197
0.0720876
0.0714543
0.0707246
0.0699036
0.0689964
0.0680086
0.0669459
0.065814
0.0646188
0.0633659
0.0620604
0.060706
0.0593055
0.0578706
0.0564109
0.0548024
0.0529365
0.018668
0.0165299
0.014716
0.0131009
0.0115386
0.0100375
0.00860863
0.00725282
0.00597152
0.00476766
0.0036442
0.00260419
0.00165103
0.000787937
1.79993e-05
-0.000655858
-0.00123079
-0.00170441
-0.0020746
-0.00233966
-0.00249801
-0.00254844
-0.00249044
-0.00232379
-0.0020482
-0.0016637
-0.00117105
-0.000571456
0.000133972
0.000944001
0.0018568
0.00286995
0.00398069
0.00518612
0.006483
0.00786758
0.00933588
0.0108838
0.0125073
0.014202
0.0159631
0.0177853
0.0196631
0.0215909
0.0235631
0.0255741
0.0276179
0.0296883
0.0317791
0.0338841
0.0359968
0.0381103
0.0402177
0.0423122
0.0443875
0.0464373
0.0484554
0.0504349
0.0523689
0.0542507
0.0560742
0.0578336
0.0595232
0.0611373
0.0626704
0.064117
0.0654721
0.0667311
0.0678895
0.0689434
0.0698893
0.0707247
0.0714475
0.0720556
0.072547
0.07292
0.0731737
0.0733079
0.0733236
0.0732223
0.0730061
0.0726769
0.0722369
0.071689
0.0710365
0.0702834
0.0694342
0.0684934
0.0674658
0.0663565
0.0651708
0.0639141
0.062591
0.0612059
0.0597615
0.05826
0.0567132
0.0551314
0.0533775
0.0513325
0.0201185
0.0178005
0.0158402
0.0141018
0.0124264
0.0108227
0.00930246
0.00786561
0.00651289
0.00524661
0.00406891
0.00298197
0.00198857
0.00109128
0.000292408
-0.000405722
-0.00100083
-0.00149121
-0.00187529
-0.00215166
-0.00231934
-0.00237775
-0.00232658
-0.0021657
-0.00189516
-0.00151556
-0.00102794
-0.00043344
0.000266827
0.00107137
0.00197812
0.00298457
0.00408805
0.00528568
0.00657409
0.00794942
0.00940774
0.0109451
0.0125576
0.0142408
0.0159898
0.0177994
0.0196642
0.0215789
0.0235379
0.0255355
0.0275658
0.0296226
0.0317001
0.0337921
0.0358921
0.0379931
0.0400883
0.0421712
0.0442357
0.0462755
0.048284
0.0502546
0.0521804
0.0540549
0.0558722
0.0576263
0.0593113
0.0609215
0.0624515
0.063896
0.0652497
0.0665079
0.0676659
0.0687196
0.0696656
0.0705012
0.0712241
0.071832
0.0723224
0.0726935
0.0729442
0.0730744
0.0730847
0.0729763
0.0727506
0.0724092
0.0719539
0.0713872
0.0707122
0.0699323
0.0690511
0.0680724
0.0670007
0.0658405
0.0645968
0.0632743
0.0618771
0.0604087
0.0588713
0.0572665
0.0556067
0.0539026
0.0520048
0.049784
0.0214797
0.0189852
0.0168804
0.0150196
0.013231
0.011524
0.00991069
0.00839086
0.00696434
0.00563263
0.00439759
0.00326077
0.00222401
0.00128944
0.000458832
-0.00026619
-0.000884129
-0.0013935
-0.00179324
-0.00208256
-0.00226101
-0.00232835
-0.00228443
-0.00212937
-0.0018638
-0.00148872
-0.00100516
-0.000414247
0.000282653
0.00108368
0.00198664
0.00298913
0.00408852
0.00528176
0.00656528
0.00793524
0.00938784
0.0109193
0.0125255
0.014202
0.0159439
0.0177461
0.0196036
0.021511
0.0234627
0.0254528
0.0274755
0.029525
0.0315956
0.033681
0.0357747
0.0378696
0.0399592
0.0420371
0.0440973
0.0461334
0.0481387
0.0501065
0.0520304
0.0539039
0.055721
0.0574754
0.0591613
0.0607729
0.0623049
0.0637521
0.065109
0.0663705
0.067532
0.0685891
0.0695385
0.0703772
0.0711026
0.071712
0.0722029
0.0725733
0.0728219
0.0729486
0.0729535
0.0728374
0.0726011
0.0722459
0.0717734
0.0711857
0.0704856
0.0696759
0.0687594
0.0677394
0.0666199
0.0654052
0.0640999
0.0627079
0.0612331
0.0596785
0.0580455
0.0563356
0.0545619
0.0527355
0.0506951
0.0483013
0.0227413
0.0200734
0.0178261
0.0158433
0.0139417
0.0121308
0.0104235
0.00881896
0.00731672
0.00591754
0.00462263
0.0034333
0.00235079
0.00137654
0.000511746
-0.000242499
-0.000885177
-0.00141526
-0.00183219
-0.00213584
-0.00232609
-0.00240284
-0.00236626
-0.00221705
-0.00195628
-0.001585
-0.00110419
-0.000515261
0.000179991
0.000979503
0.00188115
0.00288261
0.00398107
0.00517322
0.00645545
0.00782401
0.00927523
0.0108052
0.0124097
0.0140842
0.015824
0.0176243
0.01948
0.0213857
0.0233357
0.0253241
0.0273453
0.0293939
0.0314639
0.033549
0.0356425
0.0377378
0.0398283
0.0419079
0.0439702
0.0460089
0.0480173
0.0499889
0.0519172
0.0537959
0.0556187
0.0573793
0.0590715
0.0606898
0.0622291
0.0636839
0.0650485
0.0663177
0.0674866
0.0685509
0.069507
0.0703518
0.0710822
0.0716954
0.0721886
0.0725597
0.0728076
0.0729315
0.0729312
0.072807
0.0725594
0.0721895
0.0716984
0.0710882
0.0703609
0.0695187
0.0685642
0.0675001
0.0663299
0.0650577
0.0636876
0.0622233
0.060668
0.0590244
0.0572938
0.0554773
0.0535888
0.0516403
0.0494583
0.0468939
0.0238935
0.0210555
0.0186671
0.0165632
0.0145485
0.0126335
0.0108313
0.00914093
0.00756131
0.00609291
0.00473636
0.00349252
0.00236227
0.00134633
0.000445397
-0.00033987
-0.00100874
-0.0015609
-0.00199638
-0.00231536
-0.00251789
-0.00260418
-0.00257502
-0.0024316
-0.00217506
-0.00180638
-0.00132688
-0.000738422
-4.30762e-05
0.000757173
0.00166026
0.00266366
0.00376426
0.00495867
0.00624334
0.00761462
0.00906873
0.0106016
0.0122088
0.0138861
0.015629
0.0174327
0.019292
0.0212015
0.0231553
0.0251478
0.0271737
0.0292275
0.0313031
0.033394
0.0354937
0.0375958
0.0396939
0.0417816
0.0438525
0.0459001
0.047918
0.0498998
0.051839
0.0537291
0.0555636
0.0573359
0.0590402
0.0606709
0.0622227
0.0636901
0.0650671
0.0663482
0.0675287
0.0686041
0.0695706
0.0704246
0.0711628
0.071782
0.0722796
0.0726534
0.072902
0.0730241
0.0730192
0.072887
0.072628
0.0722427
0.0717323
0.0710982
0.070342
0.0694655
0.0684706
0.06736
0.0661367
0.0648045
0.0633671
0.0618279
0.0601897
0.058455
0.0566249
0.0547005
0.0526966
0.0506258
0.0483031
0.0455699
0.0249278
0.021922
0.019394
0.0171697
0.0150422
0.0130228
0.0111251
0.00934791
0.00768976
0.00615073
0.00473109
0.00343122
0.00225156
0.00119231
0.000253796
-0.000563704
-0.00126004
-0.00183546
-0.00229037
-0.00262509
-0.00284003
-0.00293599
-0.00291426
-0.00277614
-0.00252272
-0.00215528
-0.00167568
-0.00108612
-0.000388611
0.000414945
0.00132228
0.00233053
0.00343641
0.00463659
0.00592763
0.00730574
0.00876688
0.0103068
0.0119214
0.0136064
0.0153575
0.0171699
0.0190381
0.0209566
0.02292
0.0249226
0.0269593
0.0290242
0.0311113
0.0332142
0.0353266
0.037442
0.0395541
0.0416563
0.043742
0.045805
0.0478389
0.0498374
0.0517939
0.0537015
0.0555536
0.0573437
0.0590659
0.0607146
0.0622844
0.0637693
0.0651634
0.0664611
0.0676575
0.0687481
0.0697286
0.0705951
0.0713441
0.0719722
0.0724767
0.0728552
0.073106
0.0732277
0.073219
0.0730795
0.0728091
0.0724084
0.0718782
0.0712193
0.0704329
0.0695204
0.0684834
0.0673244
0.0660461
0.064652
0.0631453
0.061529
0.0598058
0.0579781
0.0560469
0.0540135
0.0518934
0.0497002
0.047237
0.0443363
0.0258361
0.0226641
0.0199981
0.0176539
0.0154138
0.0132899
0.0112963
0.00943141
0.00769378
0.0060831
0.0045992
0.00324204
0.00201163
0.000907963
-6.91494e-05
-0.000919885
-0.00164472
-0.00224418
-0.00271882
-0.00306935
-0.00329678
-0.0034024
-0.00338763
-0.00325376
-0.00300216
-0.00263466
-0.00215352
-0.00156092
-0.000858781
-4.92152e-05
0.000865142
0.00188119
0.00299569
0.0042054
0.00550676
0.00689569
0.00836799
0.00991949
0.0115462
0.013244
0.0150085
0.0168345
0.0187169
0.02065
0.0226286
0.0246472
0.0267005
0.0287824
0.0308871
0.0330083
0.0351397
0.0372749
0.0394073
0.0415302
0.0436372
0.045722
0.0477785
0.0498001
0.05178
0.0537112
0.055587
0.0574009
0.059147
0.0608195
0.0624126
0.0639203
0.0653364
0.0666555
0.0678724
0.0689824
0.0699808
0.0708634
0.0716265
0.0722665
0.0727805
0.0731661
0.0734211
0.0735437
0.0735325
0.0733866
0.0731056
0.0726898
0.0721395
0.0714552
0.0706377
0.069688
0.0686077
0.0673989
0.0660641
0.0646063
0.0630286
0.0613335
0.0595236
0.0576012
0.0555677
0.053424
0.051187
0.0488707
0.0462671
0.0431994
0.0266111
0.0232741
0.0204706
0.0180073
0.0156548
0.0134261
0.0113362
0.00938315
0.00756528
0.00588209
0.00433297
0.00291755
0.00163555
0.000486668
-0.000529832
-0.00141465
-0.00216854
-0.00279222
-0.0032866
-0.00365297
-0.00389285
-0.00400767
-0.00399882
-0.00386789
-0.00361685
-0.00324797
-0.00276348
-0.00216546
-0.00145607
-0.000637838
0.000286334
0.00131338
0.00244012
0.00366322
0.00497877
0.00638249
0.00787018
0.00943787
0.0110816
0.0127972
0.0145801
0.0164251
0.0183268
0.0202802
0.0222798
0.0243203
0.0263959
0.0285008
0.0306292
0.0327749
0.0349316
0.0370929
0.0392519
0.0414019
0.0435366
0.0456498
0.0477352
0.0497862
0.0517957
0.0537567
0.0556624
0.0575062
0.0592822
0.0609843
0.0626063
0.064142
0.0655854
0.0669308
0.0681729
0.0693068
0.0703272
0.0712298
0.0720104
0.0726656
0.0731922
0.0735875
0.0738489
0.0739744
0.0739622
0.0738112
0.0735207
0.0730903
0.0725201
0.0718102
0.070961
0.0699734
0.0688489
0.0675892
0.0661967
0.0646739
0.0630236
0.0612482
0.0593501
0.0573318
0.0551946
0.0529397
0.0505847
0.0481446
0.0454002
0.0421654
0.0272459
0.0237445
0.0208039
0.0182217
0.0157568
0.013423
0.0112365
0.00919494
0.00729623
0.00553975
0.00392472
0.00245041
0.00111632
-7.84539e-05
-0.00113497
-0.00205427
-0.00283725
-0.00348503
-0.0039991
-0.00438123
-0.00463306
-0.00475603
-0.00475182
-0.00462261
-0.00437083
-0.00399882
-0.00350868
-0.0029027
-0.00218349
-0.00135393
-0.000416899
0.000624644
0.00176739
0.00300764
0.00434122
0.00576383
0.00727143
0.00886014
0.0105259
0.0122643
0.0140706
0.0159396
0.0178664
0.0198457
0.0218722
0.0239402
0.0260439
0.0281778
0.030336
0.0325126
0.034701
0.0368946
0.0390864
0.0412699
0.0434387
0.0455868
0.0477076
0.0497942
0.0518396
0.0538366
0.0557784
0.0576585
0.0594704
0.0612078
0.0628643
0.0644336
0.0659095
0.0672865
0.0685589
0.0697212
0.0707681
0.0716947
0.0724968
0.0731707
0.0737131
0.0741211
0.0743916
0.0745222
0.074511
0.0743565
0.0740576
0.0736136
0.073024
0.0722886
0.0714077
0.0703819
0.0692125
0.0679013
0.0664501
0.0648612
0.0631371
0.06128
0.0592925
0.0571769
0.0549348
0.0525675
0.0500934
0.0475285
0.0446425
0.0412399
0.0277336
0.024068
0.0209904
0.018289
0.0157116
0.0132727
0.0109891
0.00885853
0.00687847
0.00504816
0.00336677
0.00183322
0.000446518
-0.000794573
-0.00189132
-0.002845
-0.00365687
-0.00432861
-0.00486221
-0.00525952
-0.0055222
-0.00565204
-0.00565126
-0.00552252
-0.00526832
-0.00489091
-0.00439261
-0.00377617
-0.00304459
-0.00220076
-0.00124747
-0.000187785
0.000974628
0.00223571
0.00359126
0.00503713
0.00656937
0.00818395
0.00987656
0.0116426
0.0134774
0.0153761
0.0173335
0.0193445
0.0214035
0.0235048
0.0256426
0.0278116
0.030006
0.0322197
0.034446
0.0366781
0.0389092
0.0411326
0.0433422
0.0455316
0.0476941
0.0498227
0.0519101
0.0539495
0.0559338
0.0578563
0.0597103
0.0614889
0.0631857
0.0647942
0.0663084
0.0677223
0.0690301
0.0702257
0.0713036
0.0722587
0.0730864
0.0737831
0.074345
0.0747688
0.0750514
0.0751897
0.0751818
0.0750257
0.0747201
0.0742637
0.0736556
0.0728953
0.0719828
0.0709188
0.0697044
0.068341
0.0668304
0.0651745
0.0633756
0.0614357
0.0593576
0.0571437
0.0547955
0.0523144
0.04972
0.0470291
0.0440002
0.0404286
0.0280668
0.0242371
0.0210221
0.0182014
0.0155113
0.0129668
0.0105857
0.00836561
0.00630385
0.00439946
0.00265135
0.00105819
-0.000381436
-0.00166886
-0.00280564
-0.00379337
-0.00463393
-0.0053294
-0.00588186
-0.00629321
-0.00656544
-0.0067009
-0.0067023
-0.00657236
-0.0063135
-0.0059282
-0.00541931
-0.00478995
-0.00404316
-0.00318176
-0.00220864
-0.00112725
5.83588e-05
0.00134407
0.00272581
0.00419956
0.00576118
0.00740634
0.00913054
0.0109293
0.0127979
0.0147317
0.0167256
0.018774
0.0208712
0.0230116
0.0251896
0.0274
0.0296369
0.031894
0.0341644
0.0364414
0.0387181
0.0409882
0.0432452
0.0454824
0.0476929
0.0498698
0.0520057
0.0540939
0.0561271
0.0580984
0.0600004
0.0618262
0.0635693
0.0652231
0.0667814
0.0682378
0.0695862
0.0708203
0.0719341
0.0729223
0.0737804
0.0745042
0.0750896
0.075533
0.0758308
0.0759799
0.0759778
0.0758225
0.075512
0.0750447
0.0744194
0.0736352
0.0726919
0.0715901
0.0703307
0.0689149
0.0673444
0.0656207
0.0637461
0.0617226
0.0595527
0.0572394
0.0547839
0.0521878
0.0494716
0.0466533
0.0434798
0.0397373
0.0282385
0.0242441
0.0208915
0.0179509
0.0151477
0.0124972
0.0100181
0.00770807
0.00556435
0.00358562
0.00177051
0.000117496
-0.00137496
-0.00270842
-0.00388486
-0.0049064
-0.00577528
-0.00649371
-0.00706385
-0.00748793
-0.00776848
-0.00790828
-0.00791017
-0.0077768
-0.00751083
-0.00711526
-0.00659337
-0.00594835
-0.00518311
-0.00430063
-0.00330422
-0.00219771
-0.000985246
0.000329193
0.00174163
0.00324786
0.00484344
0.0065238
0.00828444
0.010121
0.0120291
0.0140037
0.0160395
0.0181308
0.0202721
0.0224577
0.0246823
0.0269404
0.029226
0.0315326
0.0338535
0.0361818
0.038511
0.0408344
0.0431453
0.0454367
0.0477018
0.0499335
0.0521246
0.0542681
0.0563567
0.0583829
0.0603392
0.0622185
0.0640142
0.0657195
0.0673278
0.0688326
0.0702271
0.0715049
0.0726598
0.0736865
0.07458
0.0753356
0.0759489
0.0764158
0.0767324
0.0768956
0.0769025
0.0767506
0.0764376
0.0759615
0.0753205
0.0745137
0.0735407
0.0724017
0.0710978
0.0696298
0.0679991
0.0662072
0.0642562
0.0621482
0.0598858
0.0574719
0.0549079
0.0521952
0.0493556
0.046408
0.043088
0.0391722
0.0282414
0.0240816
0.0205906
0.0175295
0.0146123
0.0118554
0.00927803
0.00687779
0.00465177
0.00259841
0.000716205
-0.000996508
-0.00254142
-0.00392059
-0.00513639
-0.00619129
-0.00708766
-0.00782782
-0.0084143
-0.00884986
-0.00913741
-0.00927985
-0.00928
-0.00914078
-0.00886534
-0.00845715
-0.00791955
-0.00725566
-0.00646854
-0.00556159
-0.00453855
-0.00340337
-0.00216003
-0.000812454
0.000635195
0.00217837
0.00381238
0.00553263
0.00733482
0.00921466
0.0111676
0.0131884
0.0152717
0.0174117
0.019603
0.0218401
0.0241175
0.0264296
0.0287701
0.0311326
0.0335104
0.0358969
0.0382853
0.0406687
0.04304
0.0453923
0.0477186
0.0500118
0.0522649
0.0544704
0.0566208
0.0587084
0.0607254
0.0626648
0.0645195
0.0662826
0.0679472
0.0695062
0.0709526
0.0722799
0.0734816
0.0745523
0.0754864
0.076279
0.0769249
0.0774197
0.0777593
0.0779403
0.0779596
0.0778142
0.0775015
0.0770188
0.0763643
0.0755366
0.0745352
0.0733602
0.0720125
0.0704927
0.0688018
0.0669414
0.0649135
0.0627204
0.0603647
0.0578492
0.0551753
0.0523444
0.0493795
0.0463004
0.0428315
0.0387394
0.0280683
0.0237417
0.0201114