/*--------------------------------*- C++ -*----------------------------------*\
  =========                 |
  \\      /  F ield         | OpenFOAM: The Open Source CFD Toolbox
   \\    /   O peration     | Website:  https://openfoam.org
    \\  /    A nd           | Version:  11
     \\/     M anipulation  |
\*---------------------------------------------------------------------------*/
FoamFile
{
    format      ascii;
    class       surfaceScalarField;
    location    "8.6";
    object      phi;
}
// * * * * * * * * * * * * * * * * * * * * * * * * * * * * * * * * * * * * * //

dimensions      [0 3 -1 0 0 0 0];

internalField   nonuniform List<scalar> 
19980
(
7.02615e-07
-7.03906e-07
2.44835e-06
-1.74577e-06
4.36033e-06
-1.91197e-06
5.86253e-06
-1.50221e-06
6.61773e-06
-7.55159e-07
6.44478e-06
1.72953e-07
5.25431e-06
1.19047e-06
3.01437e-06
2.23991e-06
-2.706e-07
3.28505e-06
-4.57301e-06
4.3024e-06
-9.84987e-06
5.27691e-06
-1.60485e-05
6.19862e-06
-2.31092e-05
7.06069e-06
-3.09683e-05
7.85907e-06
-3.95594e-05
8.59107e-06
-4.88141e-05
9.25476e-06
-5.86637e-05
9.84955e-06
-6.90394e-05
1.03755e-05
-7.98726e-05
1.08331e-05
-9.10955e-05
1.12229e-05
-0.000102641
1.15459e-05
-0.000114445
1.18036e-05
-0.000126443
1.19976e-05
-0.000138572
1.21296e-05
-0.000150773
1.22011e-05
-0.000162987
1.22139e-05
-0.000175158
1.21705e-05
-0.000187231
1.20728e-05
-0.000199153
1.19225e-05
-0.000210875
1.17218e-05
-0.000222348
1.1473e-05
-0.000233526
1.11782e-05
-0.000244365
1.08391e-05
-0.000254824
1.04582e-05
-0.000264861
1.00377e-05
-0.000274441
9.5796e-06
-0.000283527
9.08582e-06
-0.000292085
8.55875e-06
-0.000300086
8.00075e-06
-0.0003075
7.41396e-06
-0.000314301
6.80045e-06
-0.000320463
6.16242e-06
-0.000325965
5.50231e-06
-0.000330788
4.82242e-06
-0.000334913
4.12491e-06
-0.000338325
3.41206e-06
-0.000341011
2.68625e-06
-0.000342961
1.9499e-06
-0.000344166
1.20545e-06
-0.000344622
4.55193e-07
-0.000344323
-2.98433e-07
-0.000343271
-1.05274e-06
-0.000341465
-1.80507e-06
-0.000338913
-2.55284e-06
-0.000335619
-3.29352e-06
-0.000331594
-4.02468e-06
-0.000326851
-4.74369e-06
-0.000321403
-5.44769e-06
-0.000315269
-6.1338e-06
-0.00030847
-6.79926e-06
-0.000301029
-7.44135e-06
-0.000292971
-8.05744e-06
-0.000284326
-8.6449e-06
-0.000275125
-9.20088e-06
-0.000265403
-9.72237e-06
-0.000255197
-1.02064e-05
-0.000244546
-1.06503e-05
-0.000233495
-1.10513e-05
-0.000222088
-1.14069e-05
-0.000210373
-1.17147e-05
-0.000198401
-1.19723e-05
-0.000186224
-1.21772e-05
-0.000173897
-1.23269e-05
-0.000161478
-1.2419e-05
-0.000149027
-1.24514e-05
-0.000136605
-1.24221e-05
-0.000124275
-1.23292e-05
-0.000112104
-1.21715e-05
-0.000100156
-1.19476e-05
-8.85001e-05
-1.16562e-05
-7.72036e-05
-1.12965e-05
-6.63357e-05
-1.08678e-05
-5.5966e-05
-1.03697e-05
-4.6164e-05
-9.80206e-06
-3.69986e-05
-9.1654e-06
-2.85377e-05
-8.46091e-06
-2.08472e-05
-7.69053e-06
-1.39901e-05
-6.85712e-06
-8.02523e-06
-5.96483e-06
-3.00559e-06
-5.01956e-06
1.02405e-06
-4.02961e-06
4.03065e-06
-3.00662e-06
5.99807e-06
-1.96739e-06
6.93494e-06
-9.36783e-07
6.88751e-06
4.74957e-08
5.96035e-06
9.27141e-07
4.34868e-06
1.6116e-06
2.3932e-06
1.95551e-06
6.73095e-07
1.72019e-06
6.73106e-07
1.68396e-06
-2.38787e-06
4.68218e-06
-4.74391e-06
7.58564e-06
-4.81544e-06
9.3501e-06
-3.26661e-06
9.2633e-06
-6.68394e-07
6.86967e-06
2.5667e-06
1.90575e-06
6.15452e-06
-5.75612e-06
9.90172e-06
-1.61465e-05
1.36755e-05
-2.92285e-05
1.73844e-05
-4.4917e-05
2.09653e-05
-6.30927e-05
2.43743e-05
-8.36126e-05
2.75806e-05
-0.000106317
3.05631e-05
-0.000131033
3.33078e-05
-0.000157584
3.58051e-05
-0.000185784
3.80497e-05
-0.000215448
4.00394e-05
-0.000246388
4.17737e-05
-0.000278419
4.32542e-05
-0.000311357
4.44836e-05
-0.00034502
4.54664e-05
-0.00037923
4.62071e-05
-0.000413811
4.67115e-05
-0.000448596
4.69858e-05
-0.000483419
4.70367e-05
-0.000518119
4.68711e-05
-0.000552543
4.64964e-05
-0.000586541
4.59204e-05
-0.00061997
4.51507e-05
-0.000652692
4.41949e-05
-0.000684575
4.30612e-05
-0.000715493
4.17575e-05
-0.000745326
4.0292e-05
-0.000773962
3.86728e-05
-0.000801291
3.69082e-05
-0.000827212
3.50066e-05
-0.00085163
3.29765e-05
-0.000874455
3.08263e-05
-0.000895605
2.85644e-05
-0.000915004
2.61994e-05
-0.000932582
2.37399e-05
-0.000948274
2.11947e-05
-0.000962025
1.85728e-05
-0.000973783
1.58829e-05
-0.000983505
1.3134e-05
-0.000991154
1.03354e-05
-0.0009967
7.49611e-06
-0.00100012
4.62548e-06
-0.0010014
1.73297e-06
-0.00100052
-1.17183e-06
-0.000997499
-4.079e-06
-0.000992325
-6.97847e-06
-0.000985018
-9.86028e-06
-0.000975597
-1.27145e-05
-0.000964091
-1.55309e-05
-0.000950535
-1.82994e-05
-0.000934973
-2.10093e-05
-0.000917457
-2.365e-05
-0.000898046
-2.62107e-05
-0.000876806
-2.86809e-05
-0.000853814
-3.10501e-05
-0.000829151
-3.33076e-05
-0.000802909
-3.54427e-05
-0.000775187
-3.74446e-05
-0.000746091
-3.93024e-05
-0.000715736
-4.10056e-05
-0.000684243
-4.2544e-05
-0.000651742
-4.39079e-05
-0.000618369
-4.50876e-05
-0.000584268
-4.60737e-05
-0.000549588
-4.68571e-05
-0.000514486
-4.7429e-05
-0.000479124
-4.77809e-05
-0.000443671
-4.79048e-05
-0.000408299
-4.77936e-05
-0.000373188
-4.74411e-05
-0.000338518
-4.68416e-05
-0.000304474
-4.59906e-05
-0.000271246
-4.48846e-05
-0.000239022
-4.35206e-05
-0.000207992
-4.18973e-05
-0.000178347
-4.00144e-05
-0.000150276
-3.78735e-05
-0.000123963
-3.54784e-05
-9.95883e-05
-3.28354e-05
-7.73247e-05
-2.99542e-05
-5.73332e-05
-2.68486e-05
-3.97602e-05
-2.35378e-05
-2.47316e-05
-2.00482e-05
-1.23459e-05
-1.64154e-05
-2.664e-06
-1.26885e-05
4.30419e-06
-8.93554e-06
8.61887e-06
-5.25148e-06
1.04375e-05
-1.77119e-06
1.00521e-05
1.31239e-06
7.94018e-06
3.72357e-06
4.82382e-06
5.07197e-06
1.71934e-06
4.82467e-06
2.39244e-06
1.87199e-06
-4.25986e-06
4.73529e-06
-7.60704e-06
6.8926e-06
-6.9727e-06
7.1051e-06
-3.47907e-06
4.47647e-06
1.96032e-06
-1.60434e-06
8.64744e-06
-1.15192e-05
1.60693e-05
-2.54725e-05
2.38551e-05
-4.35351e-05
3.1738e-05
-6.56765e-05
3.95259e-05
-9.17915e-05
4.70804e-05
-0.000121719
5.43014e-05
-0.000155256
6.11175e-05
-0.00019217
6.74773e-05
-0.000232207
7.33451e-05
-0.000275098
7.86964e-05
-0.000320564
8.35158e-05
-0.00036832
8.77947e-05
-0.000418076
9.153e-05
-0.000469544
9.47225e-05
-0.000522437
9.73764e-05
-0.000576469
9.94988e-05
-0.000631361
0.000101099
-0.000686838
0.000102188
-0.000742631
0.000102779
-0.000798478
0.000102884
-0.000854126
0.000102518
-0.000909327
0.000101698
-0.000963844
0.000100437
-0.00101745
9.87539e-05
-0.00106992
9.66644e-05
-0.00112104
9.41859e-05
-0.00117062
9.13354e-05
-0.00121846
8.81307e-05
-0.00126437
8.45896e-05
-0.0013082
8.07302e-05
-0.00134976
7.65705e-05
-0.00138891
7.21289e-05
-0.00142551
6.74241e-05
-0.00145942
6.24747e-05
-0.00149052
5.72994e-05
-0.0015187
5.19171e-05
-0.00154385
4.6347e-05
-0.00156589
4.06087e-05
-0.00158473
3.47216e-05
-0.0016003
2.87056e-05
-0.00161254
2.25807e-05
-0.00162141
1.63672e-05
-0.00162687
1.00855e-05
-0.0016289
3.75644e-06
-0.00162747
-2.59867e-06
-0.00162259
-8.95844e-06
-0.00161427
-1.53011e-05
-0.00160252
-2.16045e-05
-0.00158739
-2.78468e-05
-0.00156892
-3.40056e-05
-0.00154716
-4.00581e-05
-0.00152219
-4.59815e-05
-0.00149408
-5.17526e-05
-0.00146295
-5.73481e-05
-0.00142888
-6.27448e-05
-0.00139201
-6.79195e-05
-0.00135247
-7.2849e-05
-0.0013104
-7.75098e-05
-0.00126597
-8.18787e-05
-0.00121934
-8.59327e-05
-0.0011707
-8.96491e-05
-0.00112023
-9.30057e-05
-0.00106816
-9.59811e-05
-0.00101469
-9.85545e-05
-0.000960062
-0.000100706
-0.000904504
-0.000102415
-0.00084827
-0.000103664
-0.000791617
-0.000104434
-0.000734811
-0.00010471
-0.000678128
-0.000104477
-0.000621848
-0.000103721
-0.000566258
-0.000102431
-0.00051165
-0.000100599
-0.000458318
-9.82162e-05
-0.00040656
-9.52792e-05
-0.000356671
-9.17861e-05
-0.000308947
-8.77387e-05
-0.000263677
-8.31429e-05
-0.000221146
-7.80094e-05
-0.000181627
-7.23552e-05
-0.000145376
-6.62047e-05
-0.000112633
-5.95914e-05
-8.36097e-05
-5.25612e-05
-5.84829e-05
-4.51749e-05
-3.73839e-05
-3.75143e-05
-2.03842e-05
-2.96882e-05
-7.47662e-06
-2.1843e-05
1.44855e-06
-1.41766e-05
6.63511e-06
-6.9578e-06
8.50035e-06
-5.5282e-07
7.68268e-06
4.54128e-06
5.09232e-06
7.66232e-06
1.96068e-06
7.9563e-06
4.35314e-06
1.48613e-06
-5.7461e-06
3.24161e-06
-9.36246e-06
3.46499e-06
-7.1961e-06
8.49314e-07
-8.63405e-07
-5.56948e-06
8.37921e-06
-1.647e-05
1.95482e-05
-3.22942e-05
3.18935e-05
-5.32911e-05
4.48522e-05
-7.95573e-05
5.80041e-05
-0.000111068
7.10367e-05
-0.000147705
8.37174e-05
-0.000189277
9.58734e-05
-0.000235538
0.000107378
-0.000286197
0.000118137
-0.000340937
0.000128085
-0.000399413
0.000137173
-0.000461268
0.00014537
-0.000526131
0.000152658
-0.000593628
0.000159027
-0.00066338
0.000164474
-0.000735008
0.000169005
-0.000808138
0.000172629
-0.000882398
0.000175359
-0.000957423
0.000177213
-0.00103285
0.000178211
-0.00110834
0.000178374
-0.00118355
0.000177726
-0.00125815
0.000176293
-0.00133181
0.000174101
-0.00140424
0.000171179
-0.00147513
0.000167553
-0.00154419
0.000163254
-0.00161117
0.000158311
-0.00167579
0.000152754
-0.00173782
0.000146615
-0.00179701
0.000139923
-0.00185315
0.000132711
-0.00190603
0.00012501
-0.00195546
0.000116852
-0.00200126
0.00010827
-0.00204325
9.92953e-05
-0.0020813
8.99621e-05
-0.00211525
8.03034e-05
-0.002145
7.03529e-05
-0.00217042
6.01446e-05
-0.00219143
4.9713e-05
-0.00220794
3.9093e-05
-0.00221989
2.83198e-05
-0.00222724
1.74293e-05
-0.00222994
6.45749e-06
-0.00222798
-4.55865e-06
-0.00222135
-1.55818e-05
-0.00221008
-2.65744e-05
-0.00219419
-3.74982e-05
-0.00217372
-4.83147e-05
-0.00214874
-5.89852e-05
-0.00211933
-6.94702e-05
-0.00208558
-7.97301e-05
-0.00204761
-8.97248e-05
-0.00200554
-9.94141e-05
-0.00195953
-0.000108758
-0.00190973
-0.000117716
-0.00185633
-0.000126248
-0.00179953
-0.000134314
-0.00173953
-0.000141874
-0.00167658
-0.000148889
-0.0016109
-0.00015532
-0.00154278
-0.000161128
-0.00147249
-0.000166277
-0.00140031
-0.000170732
-0.00132656
-0.000174457
-0.00125155
-0.000177421
-0.00117562
-0.00017959
-0.00109912
-0.000180936
-0.0010224
-0.000181431
-0.000945827
-0.000181052
-0.000869772
-0.000179776
-0.000794618
-0.000177585
-0.000720751
-0.000174466
-0.000648561
-0.000170406
-0.000578439
-0.000165401
-0.000510775
-0.000159451
-0.000445953
-0.000152561
-0.000384351
-0.000144744
-0.000326337
-0.000136024
-0.000272261
-0.000126432
-0.00022245
-0.000116015
-0.000177206
-0.000104836
-0.00013679
-9.29766e-05
-0.000101419
-8.05462e-05
-7.12465e-05
-6.76869e-05
-4.63499e-05
-5.45848e-05
-2.6709e-05
-4.14839e-05
-1.21812e-05
-2.87045e-05
-2.47075e-06
-1.66682e-05
2.90679e-06
-5.93035e-06
4.66666e-06
2.78141e-06
3.80031e-06
8.52866e-06
1.63399e-06
1.01226e-05
5.98716e-06
7.8206e-07
-6.52812e-06
7.4186e-07
-9.32228e-06
-1.83326e-06
-4.621e-06
-8.21756e-06
5.52095e-06
-1.93656e-05
1.9527e-05
-3.59617e-05
3.61444e-05
-5.8461e-05
5.43928e-05
-8.71261e-05
7.35173e-05
-0.00012206
9.2938e-05
-0.000163235
0.000112212
-0.000210519
0.000131001
-0.000263695
0.00014905
-0.00032248
0.000166163
-0.00038654
0.000182197
-0.0004555
0.000197045
-0.000528957
0.000210629
-0.000606484
0.000222898
-0.000687641
0.000233815
-0.000771977
0.000243363
-0.000859036
0.000251533
-0.000948361
0.00025833
-0.0010395
0.000263763
-0.00113199
0.000267851
-0.00122539
0.000270617
-0.00131927
0.000272088
-0.00141319
0.000272296
-0.00150674
0.000271276
-0.00159951
0.000269064
-0.00169111
0.000265699
-0.00178115
0.000261224
-0.00186928
0.000255679
-0.00195513
0.000249109
-0.00203838
0.000241559
-0.0021187
0.000233073
-0.00219578
0.000223698
-0.00226934
0.000213482
-0.0023391
0.000202472
-0.00240481
0.000190716
-0.00246622
0.000178263
-0.00252311
0.000165162
-0.00257528
0.000151463
-0.00262254
0.000137217
-0.00266471
0.000122475
-0.00270164
0.000107287
-0.0027332
9.17063e-05
-0.00275928
7.57856e-05
-0.00277976
5.95781e-05
-0.00279458
4.31377e-05
-0.00280367
2.65193e-05
-0.00280699
9.77832e-06
-0.00280452
-7.02916e-06
-0.00279625
-2.38461e-05
-0.00278221
-4.06149e-05
-0.00276243
-5.72775e-05
-0.00273697
-7.37749e-05
-0.00270591
-9.00479e-05
-0.00266935
-0.000106036
-0.0026274
-0.00012168
-0.0025802
-0.000136918
-0.00252793
-0.000151688
-0.00247076
-0.000165931
-0.00240889
-0.000179585
-0.00234255
-0.000192588
-0.00227198
-0.00020488
-0.00219746
-0.000216401
-0.00211925
-0.000227091
-0.00203768
-0.000236892
-0.00195306
-0.000245746
-0.00186574
-0.000253598
-0.00177608
-0.000260395
-0.00168445
-0.000266083
-0.00159126
-0.000270614
-0.00149691
-0.000273942
-0.00140182
-0.000276022
-0.00130644
-0.000276815
-0.0012112
-0.000276286
-0.00111658
-0.000274402
-0.00102303
-0.000271138
-0.000931018
-0.000266474
-0.000841027
-0.000260396
-0.000753529
-0.0002529
-0.000668993
-0.000243987
-0.000587884
-0.00023367
-0.000510655
-0.000221973
-0.000437745
-0.000208934
-0.000369569
-0.000194608
-0.000306514
-0.00017907
-0.000248933
-0.000162417
-0.000197129
-0.00014478
-0.000151351
-0.000126325
-0.000111772
-0.000107265
-7.84796e-05
-8.78776e-05
-5.14496e-05
-6.85139e-05
-3.05265e-05
-4.96276e-05
-1.53948e-05
-3.17999e-05
-5.5484e-06
-1.57767e-05
-2.55409e-07
-2.51158e-06
1.4816e-06
6.79168e-06
9.787e-07
1.06256e-05
6.96588e-06
-1.02578e-07
-6.42556e-06
-2.38406e-06
-7.04052e-06
-8.35858e-06
1.35351e-06
-1.91886e-05
1.63511e-05
-3.57598e-05
3.60984e-05
-5.87159e-05
5.91005e-05
-8.84881e-05
8.4165e-05
-0.000125323
0.000110353
-0.000169312
0.000136927
-0.000220413
0.000163312
-0.000278472
0.000189061
-0.000343248
0.000213825
-0.000414424
0.000237339
-0.000491625
0.000259398
-0.000574431
0.00027985
-0.000662383
0.000298582
-0.000755
0.000315514
-0.000851778
0.000330593
-0.000952201
0.000343786
-0.00105575
0.000355077
-0.00116188
0.000364467
-0.00127009
0.000371967
-0.00137983
0.000377597
-0.0014906
0.000381387
-0.00160189
0.000383372
-0.00171319
0.000383594
-0.00182401
0.000382099
-0.00193388
0.000378938
-0.00204235
0.000374162
-0.00214895
0.000367829
-0.00225327
0.000359996
-0.00235488
0.000350725
-0.0024534
0.000340077
-0.00254844
0.000328115
-0.00263965
0.000314904
-0.00272668
0.000300509
-0.0028092
0.000284998
-0.00288693
0.000268439
-0.00295956
0.000250899
-0.00302685
0.000232448
-0.00308854
0.000213155
-0.00314442
0.000193093
-0.00319428
0.000172333
-0.00323794
0.000150947
-0.00327524
0.000129009
-0.00330605
0.000106593
-0.00333024
8.37748e-05
-0.00334773
6.06301e-05
-0.00335845
3.72362e-05
-0.00336234
1.36713e-05
-0.00335939
-9.98538e-06
-0.00334958
-3.36538e-05
-0.00333294
-5.72528e-05
-0.00330952
-8.07005e-05
-0.00327938
-0.000103914
-0.00324262
-0.00012681
-0.00319935
-0.000149304
-0.00314972
-0.00017131
-0.00309389
-0.000192745
-0.00303206
-0.000213521
-0.00296444
-0.000233554
-0.00289127
-0.000252757
-0.00281281
-0.000271045
-0.00272935
-0.000288334
-0.00264122
-0.000304539
-0.00254873
-0.000319576
-0.00245226
-0.000333366
-0.00235218
-0.000345827
-0.00224889
-0.000356884
-0.00214282
-0.000366461
-0.00203442
-0.000374486
-0.00192414
-0.000380892
-0.00181247
-0.000385614
-0.0016999
-0.000388593
-0.00158694
-0.000389775
-0.00147412
-0.000389111
-0.00136196
-0.000386561
-0.001251
-0.00038209
-0.00114181
-0.000375673
-0.00103491
-0.000367294
-0.000930861
-0.000356948
-0.000830205
-0.000344642
-0.000733476
-0.000330399
-0.000641191
-0.000314257
-0.000553851
-0.000296274
-0.00047193
-0.00027653
-0.000395865
-0.000255135
-0.000326053
-0.000232229
-0.000262836
-0.000207997
-0.000206491
-0.000182669
-0.000157216
-0.000156541
-0.000115111
-0.000129982
-8.01639e-05
-0.000103461
-5.22249e-05
-7.75666e-05
-3.09869e-05
-5.30379e-05
-1.59588e-05
-3.08048e-05
-6.4382e-06
-1.20322e-05
-1.4807e-06
1.83421e-06
1.38307e-07
9.00662e-06
7.10417e-06
-1.0816e-06
-5.3441e-06
-5.87684e-06
-2.24526e-06
-1.56457e-05
1.11224e-05
-3.13888e-05
3.20942e-05
-5.388e-05
5.85896e-05
-8.36851e-05
8.89057e-05
-0.000121182
0.000121662
-0.000166578
0.000155749
-0.000219933
0.000190282
-0.000281177
0.000224556
-0.00035013
0.000258013
-0.000426518
0.000290214
-0.000509992
0.000320813
-0.000600139
0.000349545
-0.000696495
0.000376206
-0.000798557
0.000400643
-0.000905788
0.000422746
-0.00101763
0.000442437
-0.00113352
0.000459669
-0.00125285
0.000474415
-0.00137506
0.000486671
-0.00149954
0.000496444
-0.0016257
0.00050376
-0.00175296
0.000508653
-0.00188076
0.000511166
-0.00200851
0.000511351
-0.00213568
0.000509267
-0.00226172
0.000504977
-0.00238611
0.000498551
-0.00250834
0.000490061
-0.00262793
0.000479582
-0.0027444
0.000467195
-0.0028573
0.000452979
-0.0029662
0.000437019
-0.0030707
0.000419399
-0.0031704
0.000400207
-0.00326493
0.00037953
-0.00335395
0.000357459
-0.00343713
0.000334085
-0.00351419
0.000309499
-0.00358482
0.000283794
-0.0036488
0.000257066
-0.00370587
0.00022941
-0.00375585
0.000200922
-0.00379854
0.0001717
-0.00383379
0.000141844
-0.00386147
0.000111453
-0.00388147
8.06302e-05
-0.00389371
4.94772e-05
-0.00389814
1.80986e-05
-0.00389472
-1.34002e-05
-0.00388346
-4.49125e-05
-0.00386438
-7.63305e-05
-0.00383754
-0.000107545
-0.00380301
-0.000138446
-0.0037609
-0.000168922
-0.00371134
-0.000198862
-0.0036545
-0.000228152
-0.00359056
-0.000256679
-0.00351975
-0.000284329
-0.00344232
-0.00031099
-0.00335853
-0.000336546
-0.00326869
-0.000360887
-0.00317312
-0.000383898
-0.00307219
-0.000405469
-0.00296628
-0.000425491
-0.00285579
-0.000443856
-0.00274116
-0.00046046
-0.00262284
-0.000475201
-0.00250132
-0.000487981
-0.0023771
-0.000498706
-0.00225071
-0.000507287
-0.00212268
-0.000513642
-0.00199358
-0.000517693
-0.00186398
-0.000519371
-0.00173448
-0.000518613
-0.00160567
-0.000515368
-0.00147817
-0.000509593
-0.00135258
-0.000501259
-0.00122953
-0.000490347
-0.00110962
-0.000476854
-0.00099347
-0.000460796
-0.000881665
-0.000442205
-0.000774786
-0.000421136
-0.000673388
-0.000397672
-0.000577995
-0.000371923
-0.000489092
-0.000344037
-0.000407117
-0.000314204
-0.000332449
-0.000282665
-0.000265395
-0.000249723
-0.00020618
-0.000215756
-0.000154929
-0.000181233
-0.000111651
-0.000146739
-7.62234e-05
-0.000112994
-4.83705e-05
-8.08909e-05
-2.7646e-05
-5.15293e-05
-1.34129e-05
-2.62653e-05
-4.82392e-06
-6.7548e-06
-8.00213e-07
4.98294e-06
6.30394e-06
-2.10239e-06
-3.2417e-06
-9.56252e-06
5.21484e-06
-2.3369e-05
2.49291e-05
-4.43303e-05
5.30555e-05
-7.30799e-05
8.73392e-05
-0.00011008
0.000125906
-0.00015563
0.000167212
-0.000209879
0.000209998
-0.000272838
0.000253241
-0.000344397
0.000296115
-0.00042434
0.000337956
-0.000512357
0.000378231
-0.000608062
0.000416519
-0.000711004
0.000452487
-0.000820678
0.00048588
-0.000936535
0.000516501
-0.00105799
0.000544205
-0.00118445
0.000568891
-0.00131527
0.000590492
-0.00144982
0.000608968
-0.00158746
0.000624308
-0.00172754
0.000636519
-0.0018694
0.000645625
-0.00201241
0.000651666
-0.00215594
0.000654694
-0.00229936
0.000654772
-0.00244207
0.000651969
-0.00258345
0.000646366
-0.00272295
0.000638046
-0.00285999
0.000627102
-0.00299404
0.000613626
-0.00312456
0.00059772
-0.00325107
0.000579484
-0.00337307
0.000559024
-0.00349012
0.000536449
-0.00360178
0.000511867
-0.00370764
0.000485393
-0.00380732
0.000457139
-0.00390046
0.000427221
-0.00398672
0.000395758
-0.00406579
0.000362867
-0.0041374
0.00032867
-0.00420128
0.000293288
-0.0042572
0.000256845
-0.00430497
0.000219467
-0.0043444
0.00018128
-0.00437536
0.000142412
-0.00439772
0.000102993
-0.0044114
6.31553e-05
-0.00441634
2.30313e-05
-0.00441249
-1.72441e-05
-0.00439987
-5.75345e-05
-0.0043785
-9.77022e-05
-0.00434843
-0.000137608
-0.00430977
-0.000177111
-0.00426262
-0.000216069
-0.00420715
-0.00025434
-0.00414352
-0.00029178
-0.00407195
-0.000328244
-0.00399269
-0.000363589
-0.00390601
-0.000397668
-0.00381222
-0.000430339
-0.00371165
-0.000461457
-0.00360467
-0.000490879
-0.00349167
-0.000518466
-0.00337308
-0.000544079
-0.00324936
-0.000567581
-0.00312098
-0.00058884
-0.00298845
-0.000607729
-0.00285231
-0.000624123
-0.00271311
-0.000637905
-0.00257143
-0.000648963
-0.00242788
-0.000657193
-0.00228308
-0.000662499
-0.00213765
-0.000664795
-0.00199226
-0.000664006
-0.00184756
-0.000660067
-0.00170423
-0.000652928
-0.00156293
-0.000642555
-0.00142435
-0.000628927
-0.00128916
-0.000612047
-0.00115802
-0.000591936
-0.00103158
-0.000568641
-0.000910477
-0.000542238
-0.000795315
-0.000512834
-0.000686663
-0.000480574
-0.000585052
-0.000445648
-0.000490959
-0.000408298
-0.000404799
-0.000368825
-0.000326916
-0.000327606
-0.000257567
-0.000285105
-0.000196909
-0.000241891
-0.000144989
-0.000198659
-0.000101725
-0.000156259
-6.68931e-05
-0.000115723
-4.0116e-05
-7.83064e-05
-2.08492e-05
-4.55321e-05
-8.37217e-06
-1.92318e-05
-1.7834e-06
-1.60583e-06
4.52057e-06
-3.13323e-06
-1.08446e-07
-1.33281e-05
1.54096e-05
-3.13044e-05
4.29052e-05
-5.76663e-05
7.94174e-05
-9.28895e-05
0.000122562
-0.000137314
0.00017033
-0.000191143
0.000221041
-0.000254451
0.000273305
-0.000327186
0.000325976
-0.000409187
0.000378117
-0.000500191
0.000428961
-0.000599849
0.000477888
-0.000707731
0.000524401
-0.000823347
0.000568103
-0.00094615
0.000608683
-0.00107555
0.0006459
-0.00121092
0.000679575
-0.00135161
0.000709577
-0.00149693
0.00073582
-0.00164622
0.000758251
-0.00179876
0.000776849
-0.00195386
0.000791618
-0.00211081
0.000802583
-0.00226894
0.000809788
-0.00242754
0.000813294
-0.00258594
0.000813172
-0.00274347
0.000809507
-0.0028995
0.000802394
-0.00305339
0.000791935
-0.00320453
0.000778238
-0.00335232
0.00076142
-0.0034962
0.0007416
-0.00363562
0.000718905
-0.00377006
0.000693462
-0.00389902
0.000665405
-0.00402202
0.000634869
-0.00413862
0.000601992
-0.00424839
0.000566915
-0.00435095
0.00052978
-0.00444593
0.000490733
-0.00453298
0.000449922
-0.00461181
0.000407494
-0.00468212
0.000363602
-0.00474367
0.000318398
-0.00479624
0.000272037
-0.00483964
0.000224677
-0.0048737
0.000176476
-0.00489831
0.000127595
-0.00491335
7.8198e-05
-0.00491877
2.84487e-05
-0.00491452
-2.14856e-05
-0.00490062
-7.14361e-05
-0.00487709
-0.000121232
-0.004844
-0.000170702
-0.00480144
-0.00021967
-0.00474955
-0.000267963
-0.00468848
-0.000315403
-0.00461845
-0.000361814
-0.00453968
-0.000407015
-0.00445243
-0.000450831
-0.00435702
-0.00049308
-0.00425377
-0.000533587
-0.00414306
-0.000572174
-0.00402527
-0.000608666
-0.00390085
-0.000642889
-0.00377025
-0.000674674
-0.00363398
-0.000703853
-0.00349256
-0.000730265
-0.00334653
-0.000753752
-0.00319649
-0.000774163
-0.00304304
-0.000791355
-0.00288681
-0.000805191
-0.00272846
-0.000815546
-0.00256866
-0.000822303
-0.00240809
-0.000825359
-0.00224748
-0.000824623
-0.00208752
-0.000820019
-0.00192896
-0.000811489
-0.00177252
-0.000798994
-0.00161894
-0.000782513
-0.00146893
-0.000762052
-0.00132322
-0.000737644
-0.00118252
-0.000709349
-0.00104749
-0.000677265
-0.000918796
-0.000641528
-0.000797052
-0.000602318
-0.00068283
-0.00055987
-0.000576649
-0.000514479
-0.000478964
-0.00046651
-0.000390157
-0.000416413
-0.000310525
-0.000364737
-0.000240269
-0.000312147
-0.000179481
-0.000259447
-0.000128135
-0.000207604
-8.60776e-05
-0.00015778
-5.30166e-05
-0.000111367
-2.85191e-05
-7.00295e-05
-1.20101e-05
-3.57409e-05
-2.77902e-06
-1.08369e-05
1.74161e-06
-4.1553e-06
4.04696e-06
-1.7101e-05
2.83553e-05
-3.93011e-05
6.51053e-05
-7.11547e-05
0.000111271
-0.000112971
0.000164379
-0.000164957
0.000222317
-0.000227208
0.000283292
-0.000299708
0.000345805
-0.000382333
0.000408602
-0.000474861
0.000470644
-0.000576973
0.000531073
-0.000688272
0.000589187
-0.000808284
0.000644413
-0.000936474
0.000696293
-0.00107225
0.000744461
-0.00121499
0.000788634
-0.00136401
0.000828594
-0.00151861
0.000864183
-0.00167809
0.000895294
-0.00184169
0.000921859
-0.00200869
0.000943847
-0.00217833
0.000961258
-0.00234986
0.000974117
-0.00252255
0.000982474
-0.00269565
0.000986395
-0.00286844
0.000985964
-0.00304021
0.000981279
-0.00321027
0.00097245
-0.00337793
0.000959597
-0.00354255
0.00094285
-0.00370347
0.000922345
-0.0038601
0.000898226
-0.00401183
0.000870642
-0.00415812
0.000839748
-0.00429842
0.000805701
-0.00443221
0.000768665
-0.00455902
0.000728805
-0.0046784
0.000686292
-0.00478992
0.000641296
-0.00489318
0.000593993
-0.00498782
0.00054456
-0.0050735
0.000493178
-0.00514993
0.000440029
-0.00521683
0.000385298
-0.00527396
0.000329171
-0.00532112
0.00027184
-0.00535814
0.000213495
-0.00538488
0.000154331
-0.00540123
9.45461e-05
-0.00540712
3.43382e-05
-0.00540251
-2.60908e-05
-0.00538741
-8.6537e-05
-0.00536185
-0.000146794
-0.0053259
-0.000206655
-0.00527966
-0.000265909
-0.00522327
-0.000324345
-0.00515693
-0.00038175
-0.00508083
-0.00043791
-0.00499524
-0.00049261
-0.00490043
-0.000545636
-0.00479674
-0.000596773
-0.00468452
-0.000645806
-0.00456417
-0.000692524
-0.00443612
-0.000736715
-0.00430084
-0.000778172
-0.00415882
-0.00081669
-0.00401061
-0.00085207
-0.00385675
-0.000884118
-0.00369786
-0.000912645
-0.00353455
-0.000937472
-0.00336748
-0.000958427
-0.00319732
-0.000975347
-0.00302478
-0.000988085
-0.00285058
-0.000996501
-0.00267547
-0.00100047
-0.00250019
-0.000999899
-0.00232553
-0.000994686
-0.00215225
-0.000984769
-0.00198114
-0.000970104
-0.00181298
-0.000950672
-0.00164855
-0.000926482
-0.00148861
-0.000897578
-0.00133393
-0.000864037
-0.00118521
-0.000825979
-0.00104317
-0.000783568
-0.000908466
-0.000737025
-0.000781709
-0.000686627
-0.000663463
-0.000632725
-0.000554227
-0.000575746
-0.000454427
-0.000516213
-0.000364406
-0.000454758
-0.000284415
-0.000392138
-0.000214606
-0.000329257
-0.000155019
-0.000267191
-0.000105581
-0.000207218
-6.61009e-05
-0.000150848
-3.62687e-05
-9.98618e-05
-1.56634e-05
-5.63461e-05
-3.76797e-06
-2.27323e-05
-2.02631e-06
-5.15794e-06
9.20489e-06
-2.08353e-05
4.40326e-05
-4.72595e-05
9.15297e-05
-8.46303e-05
0.000148642
-0.000133089
0.000212838
-0.000192703
0.00028193
-0.00026345
0.000354039
-0.000345216
0.000427571
-0.000437797
0.000501183
-0.000540898
0.000573745
-0.00065414
0.000644316
-0.00077707
0.000712117
-0.000909165
0.000776508
-0.00104984
0.00083697
-0.00119847
0.000893087
-0.00135436
0.000944529
-0.00151682
0.000991046
-0.00168508
0.00103245
-0.0018584
0.00106861
-0.002036
0.00109945
-0.00221708
0.00112493
-0.00240085
0.00114503
-0.00258653
0.00115979
-0.00277331
0.00116926
-0.00296043
0.00117351
-0.00314711
0.00117264
-0.0033326
0.00116677
-0.00351616
0.00115601
-0.00369706
0.0011405
-0.00387461
0.0011204
-0.00404813
0.00109587
-0.00421697
0.00106707
-0.00438051
0.00103417
-0.00453813
0.00099737
-0.00468927
0.00095684
-0.00483338
0.000912777
-0.00496995
0.000865376
-0.00509849
0.000814836
-0.00521856
0.000761361
-0.00532973
0.000705158
-0.0054316
0.000646436
-0.00552383
0.000585408
-0.00560609
0.00052229
-0.0056781
0.000457302
-0.00573959
0.000390664
-0.00579035
0.000322601
-0.0058302
0.000253341
-0.00585898
0.000183114
-0.00587659
0.000112153
-0.00588294
4.06945e-05
-0.00587801
-3.10237e-05
-0.00586179
-0.00010276
-0.00583431
-0.000174271
-0.00579566
-0.00024531
-0.00574594
-0.000315629
-0.0056853
-0.000384979
-0.00561395
-0.000453107
-0.0055321
-0.00051976
-0.00544002
-0.000584686
-0.00533802
-0.000647631
-0.00522646
-0.000708341
-0.0051057
-0.000766564
-0.00497617
-0.000822049
-0.00483834
-0.000874548
-0.00469269
-0.000923817
-0.00453977
-0.000969615
-0.00438013
-0.00101171
-0.00421439
-0.00104986
-0.00404316
-0.00108387
-0.00386713
-0.00111351
-0.00368698
-0.00113858
-0.00350343
-0.00115889
-0.00331723
-0.00117428
-0.00312916
-0.00118458
-0.00293999
-0.00118964
-0.00275053
-0.00118936
-0.0025616
-0.00118362
-0.00237402
-0.00117235
-0.00218863
-0.0011555
-0.00200625
-0.00113305
-0.00182771
-0.00110502
-0.00165383
-0.00107146
-0.00148539
-0.00103247
-0.00132318
-0.000988189
-0.00116794
-0.000938811
-0.00102037
-0.000884593
-0.000881138
-0.00082586
-0.000750848
-0.000763015
-0.000630045
-0.000696548
-0.000519205
-0.000627053
-0.000418724
-0.000555239
-0.000328912
-0.00048195
-0.000249986
-0.000408183
-0.000182064
-0.000335113
-0.000125163
-0.000264119
-7.92006e-05
-0.00019681
-4.39962e-05
-0.000135066
-1.92855e-05
-8.10567e-05
-4.73926e-06
-3.72785e-05
-6.76555e-06
-6.13539e-06
1.53402e-05
-2.45041e-05
6.24012e-05
-5.51173e-05
0.000122143
-9.79843e-05
0.000191509
-0.000153082
0.000267936
-0.000220336
0.000349183
-0.000299601
0.000433305
-0.000390662
0.000518632
-0.000493224
0.000603744
-0.000606913
0.000687434
-0.000731285
0.000768688
-0.000865825
0.000846657
-0.00100995
0.000920638
-0.00116304
0.000990057
-0.0013244
0.00105445
-0.00149332
0.00111344
-0.00166902
0.00116675
-0.00185074
0.00121417
-0.00203765
0.00125553
-0.00222895
0.00129075
-0.0024238
0.00131978
-0.00262137
0.0013426
-0.00282082
0.00135924
-0.00302131
0.00136976
-0.00322204
0.00137424
-0.00342218
0.00137279
-0.00362094
0.00136553
-0.00381755
0.00135261
-0.00401123
0.00133419
-0.00420126
0.00131043
-0.00438692
0.00128153
-0.00456752
0.00124766
-0.00474239
0.00120905
-0.00491091
0.00116589
-0.00507246
0.00111839
-0.00522647
0.00106679
-0.0053724
0.00101131
-0.00550974
0.000952173
-0.005638
0.000889624
-0.00575674
0.000823901
-0.00586555
0.000755247
-0.00596406
0.000683911
-0.00605191
0.000610144
-0.00612881
0.0005342
-0.00619448
0.000456337
-0.0062487
0.000376818
-0.00629127
0.000295907
-0.00632202
0.000213872
-0.00634085
0.000130985
-0.00634768
4.75194e-05
-0.00634246
-3.62458e-05
-0.00632519
-0.00012003
-0.00629591
-0.00020355
-0.0062547
-0.00028652
-0.00620168
-0.00036865
-0.00613701
-0.000449649
-0.00606089
-0.000529227
-0.00597356
-0.000607087
-0.00587531
-0.000682937
-0.00576646
-0.000756482
-0.00564737
-0.000827426
-0.00551846
-0.000895478
-0.00538016
-0.000960347
-0.00523296
-0.00102174
-0.00507739
-0.00107939
-0.00491401
-0.001133
-0.00474341
-0.0011823
-0.00456624
-0.00122704
-0.00438315
-0.00126695
-0.00419486
-0.0013018
-0.0040021
-0.00133135
-0.00380561
-0.00135538
-0.00360621
-0.00137369
-0.00340468
-0.0013861
-0.00320187
-0.00139245
-0.00299863
-0.0013926
-0.00279581
-0.00138644
-0.00259428
-0.00137387
-0.00239493
-0.00135485
-0.00219862
-0.00132936
-0.00200622
-0.00129741
-0.00181861
-0.00125908
-0.00163661
-0.00121447
-0.00146105
-0.00116375
-0.00129272
-0.00110714
-0.00113237
-0.00104494
-0.000980712
-0.000977521
-0.000838395
-0.000905332
-0.000706018
-0.000828925
-0.000584111
-0.00074896
-0.000473129
-0.000666221
-0.000373446
-0.000581632
-0.000285354
-0.000496275
-0.000209054
-0.000411413
-0.000144661
-0.000328511
-9.22049e-05
-0.000249267