/*--------------------------------*- C++ -*----------------------------------*\
  =========                 |
  \\      /  F ield         | OpenFOAM: The Open Source CFD Toolbox
   \\    /   O peration     | Website:  https://openfoam.org
    \\  /    A nd           | Version:  11
     \\/     M anipulation  |
\*---------------------------------------------------------------------------*/
FoamFile
{
    format      ascii;
    class       volVectorField;
    location    "8.6";
    object      U;
}
// * * * * * * * * * * * * * * * * * * * * * * * * * * * * * * * * * * * * * //

dimensions      [0 1 -1 0 0 0 0];

internalField   nonuniform List<vector> 
10100
(
(2.76344e-06 -3.25533e-06 0)
(1.5016e-05 -8.14066e-06 0)
(3.41925e-05 -9.16021e-06 0)
(5.24335e-05 -7.85188e-06 0)
(6.42949e-05 -5.26421e-06 0)
(6.75196e-05 -2.08822e-06 0)
(6.08548e-05 1.3285e-06 0)
(4.37554e-05 4.78495e-06 0)
(1.611e-05 8.16362e-06 0)
(-2.18943e-05 1.13974e-05 0)
(-6.98889e-05 1.4456e-05 0)
(-0.000127389 1.73194e-05 0)
(-0.000193824 1.99728e-05 0)
(-0.000268573 2.24124e-05 0)
(-0.000350978 2.46356e-05 0)
(-0.000440366 2.66405e-05 0)
(-0.00053605 2.84267e-05 0)
(-0.000637338 2.99994e-05 0)
(-0.000743544 3.13642e-05 0)
(-0.000853984 3.2521e-05 0)
(-0.000967985 3.34761e-05 0)
(-0.00108489 3.42373e-05 0)
(-0.00120405 3.48076e-05 0)
(-0.00132483 3.51941e-05 0)
(-0.00144663 3.54037e-05 0)
(-0.00156884 3.54399e-05 0)
(-0.0016909 3.53103e-05 0)
(-0.00181224 3.50237e-05 0)
(-0.00193234 3.45851e-05 0)
(-0.00205068 3.39995e-05 0)
(-0.00216677 3.32739e-05 0)
(-0.00228014 3.24146e-05 0)
(-0.00239033 3.14279e-05 0)
(-0.00249692 3.03217e-05 0)
(-0.00259949 2.91019e-05 0)
(-0.00269767 2.77725e-05 0)
(-0.00279108 2.63386e-05 0)
(-0.00287938 2.48091e-05 0)
(-0.00296225 2.31923e-05 0)
(-0.00303939 2.14934e-05 0)
(-0.00311052 1.97164e-05 0)
(-0.00317539 1.78676e-05 0)
(-0.00323377 1.59556e-05 0)
(-0.00328544 1.39878e-05 0)
(-0.00333022 1.19696e-05 0)
(-0.00336793 9.90633e-06 0)
(-0.00339845 7.80465e-06 0)
(-0.00342166 5.67239e-06 0)
(-0.00343745 3.51724e-06 0)
(-0.00344577 1.34531e-06 0)
(-0.00344655 -8.37206e-07 0)
(-0.0034398 -3.02273e-06 0)
(-0.0034255 -5.20307e-06 0)
(-0.0034037 -7.37007e-06 0)
(-0.00337445 -9.5164e-06 0)
(-0.00333783 -1.16358e-05 0)
(-0.00329395 -1.37215e-05 0)
(-0.00324295 -1.57653e-05 0)
(-0.003185 -1.77585e-05 0)
(-0.00312028 -1.96924e-05 0)
(-0.00304902 -2.15588e-05 0)
(-0.00297146 -2.33505e-05 0)
(-0.00288787 -2.50607e-05 0)
(-0.00279856 -2.66812e-05 0)
(-0.00270386 -2.82028e-05 0)
(-0.00260412 -2.96164e-05 0)
(-0.00249974 -3.09132e-05 0)
(-0.00239112 -3.20849e-05 0)
(-0.00227872 -3.31244e-05 0)
(-0.00216299 -3.40251e-05 0)
(-0.00204443 -3.47803e-05 0)
(-0.00192355 -3.53824e-05 0)
(-0.0018009 -3.58236e-05 0)
(-0.00167703 -3.60962e-05 0)
(-0.00155253 -3.61926e-05 0)
(-0.00142801 -3.61061e-05 0)
(-0.0013041 -3.58314e-05 0)
(-0.00118144 -3.53638e-05 0)
(-0.00106068 -3.4699e-05 0)
(-0.000942501 -3.3833e-05 0)
(-0.000827574 -3.27621e-05 0)
(-0.000716588 -3.14825e-05 0)
(-0.000610237 -2.99911e-05 0)
(-0.000509216 -2.82851e-05 0)
(-0.000414219 -2.63633e-05 0)
(-0.000325932 -2.42264e-05 0)
(-0.000245026 -2.18769e-05 0)
(-0.000172149 -1.93191e-05 0)
(-0.000107915 -1.65605e-05 0)
(-5.28868e-05 -1.36134e-05 0)
(-7.56144e-06 -1.04966e-05 0)
(2.76621e-05 -7.23812e-06 0)
(5.25229e-05 -3.88212e-06 0)
(6.69608e-05 -5.01142e-07 0)
(7.12183e-05 2.78241e-06 0)
(6.60004e-05 5.75781e-06 0)
(5.26977e-05 8.06147e-06 0)
(3.38525e-05 9.04834e-06 0)
(1.45313e-05 7.62466e-06 0)
(2.80805e-06 2.80875e-06 0)
(7.31668e-06 -1.48193e-05 0)
(3.07883e-05 -3.17944e-05 0)
(6.26821e-05 -3.38966e-05 0)
(8.83542e-05 -2.59117e-05 0)
(9.8166e-05 -1.1694e-05 0)
(8.65981e-05 6.0748e-06 0)
(5.02802e-05 2.56842e-05 0)
(-1.26574e-05 4.60215e-05 0)
(-0.00010292 6.63654e-05 0)
(-0.000220423 8.62409e-05 0)
(-0.000364516 0.000105329 0)
(-0.000534149 0.000123421 0)
(-0.000727992 0.000140373 0)
(-0.000944513 0.000156095 0)
(-0.00118204 0.000170524 0)
(-0.00143882 0.000183621 0)
(-0.00171302 0.00019537 0)
(-0.0020028 0.000205765 0)
(-0.00230627 0.000214813 0)
(-0.00262159 0.000222529 0)
(-0.00294688 0.000228925 0)
(-0.00328032 0.000234032 0)
(-0.00362012 0.000237881 0)
(-0.0039645 0.000240501 0)
(-0.00431174 0.000241924 0)
(-0.00466018 0.000242189 0)
(-0.00500819 0.000241337 0)
(-0.00535418 0.000239406 0)
(-0.00569665 0.000236435 0)
(-0.00603413 0.000232464 0)
(-0.00636522 0.000227537 0)
(-0.00668856 0.000221694 0)
(-0.00700287 0.000214976 0)
(-0.00730692 0.000207427 0)
(-0.00759954 0.000199088 0)
(-0.00787962 0.000190002 0)
(-0.00814611 0.000180212 0)
(-0.00839803 0.000169761 0)
(-0.00863446 0.000158694 0)
(-0.00885454 0.000147054 0)
(-0.00905746 0.000134884 0)
(-0.00924251 0.000122228 0)
(-0.00940901 0.000109133 0)
(-0.00955636 9.56436e-05 0)
(-0.00968402 8.18049e-05 0)
(-0.00979152 6.76623e-05 0)
(-0.00987846 5.32632e-05 0)
(-0.0099445 3.86549e-05 0)
(-0.00998938 2.3885e-05 0)
(-0.0100129 9.0011e-06 0)
(-0.0100149 -5.94822e-06 0)
(-0.00999543 -2.09112e-05 0)
(-0.00995441 -3.58353e-05 0)
(-0.00989196 -5.0669e-05 0)
(-0.00980826 -6.53618e-05 0)
(-0.00970354 -7.98632e-05 0)
(-0.00957814 -9.41212e-05 0)
(-0.00943243 -0.000108081 0)
(-0.00926691 -0.000121686 0)
(-0.00908212 -0.000134881 0)
(-0.00887868 -0.000147612 0)
(-0.00865733 -0.000159826 0)
(-0.00841883 -0.000171468 0)
(-0.00816407 -0.000182483 0)
(-0.007894 -0.000192814 0)
(-0.00760964 -0.000202403 0)
(-0.00731209 -0.000211195 0)
(-0.00700254 -0.000219138 0)
(-0.00668224 -0.00022618 0)
(-0.00635253 -0.000232273 0)
(-0.0060148 -0.000237369 0)
(-0.00567051 -0.000241419 0)
(-0.00532121 -0.000244376 0)
(-0.00496849 -0.000246193 0)
(-0.00461399 -0.000246828 0)
(-0.00425943 -0.000246242 0)
(-0.00390658 -0.000244401 0)
(-0.00355721 -0.000241276 0)
(-0.00321319 -0.000236841 0)
(-0.00287637 -0.000231074 0)
(-0.00254864 -0.000223959 0)
(-0.00223191 -0.000215483 0)
(-0.00192807 -0.00020564 0)
(-0.00163904 -0.000194432 0)
(-0.00136667 -0.000181872 0)
(-0.0011128 -0.000167985 0)
(-0.000879206 -0.000152812 0)
(-0.000667559 -0.000136416 0)
(-0.000479409 -0.000118885 0)
(-0.000316135 -0.000100344 0)
(-0.000178877 -8.09642e-05 0)
(-6.84603e-05 -6.09893e-05 0)
(1.47218e-05 -4.07649e-05 0)
(7.08678e-05 -2.07937e-05 0)
(0.000100997 -1.82e-06 0)
(0.000107267 1.50401e-05 0)
(9.33297e-05 2.81061e-05 0)
(6.4897e-05 3.48427e-05 0)
(3.15782e-05 3.15733e-05 0)
(7.6168e-06 1.45203e-05 0)
(8.70507e-06 -3.36032e-05 0)
(3.31036e-05 -6.31642e-05 0)
(6.11914e-05 -6.20838e-05 0)
(7.59436e-05 -3.90392e-05 0)
(6.57366e-05 -1.40381e-06 0)
(2.33776e-05 4.53424e-05 0)
(-5.58978e-05 9.72752e-05 0)
(-0.000174907 0.000151664 0)
(-0.000334939 0.000206589 0)
(-0.000536127 0.000260699 0)
(-0.000777737 0.00031305 0)
(-0.00105839 0.000362971 0)
(-0.00137625 0.000409992 0)
(-0.0017291 0.000453784 0)
(-0.0021145 0.000494126 0)
(-0.00252982 0.000530862 0)
(-0.0029723 0.000563907 0)
(-0.00343912 0.00059322 0)
(-0.00392739 0.000618785 0)
(-0.00443422 0.000640617 0)
(-0.00495674 0.00065876 0)
(-0.00549206 0.000673265 0)
(-0.00603737 0.000684202 0)
(-0.00658989 0.000691654 0)
(-0.0071469 0.000695706 0)
(-0.00770574 0.000696456 0)
(-0.00826383 0.000694008 0)
(-0.00881867 0.000688469 0)
(-0.00936784 0.000679946 0)
(-0.009909 0.000668555 0)
(-0.0104399 0.000654413 0)
(-0.0109584 0.000637634 0)
(-0.0114624 0.000618336 0)
(-0.0119499 0.00059664 0)
(-0.0124192 0.000572669 0)
(-0.0128683 0.000546543 0)
(-0.0132956 0.000518386 0)
(-0.0136995 0.000488323 0)
(-0.0140786 0.00045648 0)
(-0.0144315 0.000422982 0)
(-0.0147568 0.000387956 0)
(-0.0150535 0.000351531 0)
(-0.0153204 0.000313835 0)
(-0.0155565 0.000275001 0)
(-0.0157611 0.000235159 0)
(-0.0159333 0.000194445 0)
(-0.0160725 0.000152993 0)
(-0.0161782 0.000110941 0)
(-0.0162499 6.84249e-05 0)
(-0.0162874 2.55858e-05 0)
(-0.0162904 -1.74333e-05 0)
(-0.0162589 -6.04866e-05 0)
(-0.0161928 -0.000103425 0)
(-0.0160924 -0.000146101 0)
(-0.0159579 -0.000188366 0)
(-0.0157898 -0.000230069 0)
(-0.0155884 -0.000271059 0)
(-0.0153546 -0.000311179 0)
(-0.015089 -0.000350272 0)
(-0.0147925 -0.000388178 0)
(-0.0144663 -0.000424742 0)
(-0.0141113 -0.000459806 0)
(-0.0137289 -0.000493213 0)
(-0.0133204 -0.000524805 0)
(-0.0128875 -0.000554423 0)
(-0.0124318 -0.000581907 0)
(-0.0119549 -0.000607103 0)
(-0.0114589 -0.000629861 0)
(-0.0109457 -0.000650033 0)
(-0.0104175 -0.000667479 0)
(-0.00987638 -0.00068206 0)
(-0.00932482 -0.000693642 0)
(-0.00876524 -0.000702095 0)
(-0.00820015 -0.000707297 0)
(-0.00763218 -0.000709132 0)
(-0.00706405 -0.000707497 0)
(-0.00649853 -0.0007023 0)
(-0.00593847 -0.00069346 0)
(-0.00538675 -0.000680912 0)
(-0.00484632 -0.000664603 0)
(-0.00432014 -0.000644497 0)
(-0.00381117 -0.000620576 0)
(-0.00332238 -0.000592843 0)
(-0.00285671 -0.000561327 0)
(-0.00241702 -0.00052609 0)
(-0.00200611 -0.000487236 0)
(-0.00162665 -0.000444915 0)
(-0.00128113 -0.000399344 0)
(-0.000971818 -0.000350817 0)
(-0.000700688 -0.000299736 0)
(-0.000469311 -0.000246644 0)
(-0.000278738 -0.000192278 0)
(-0.000129344 -0.00013765 0)
(-2.06097e-05 -8.41521e-05 0)
(4.91526e-05 -3.37276e-05 0)
(8.31558e-05 1.0906e-05 0)
(8.64749e-05 4.59606e-05 0)
(6.65217e-05 6.62459e-05 0)
(3.49707e-05 6.49204e-05 0)
(9.05889e-06 3.38454e-05 0)
(7.63309e-06 -5.12163e-05 0)
(2.56195e-05 -8.84253e-05 0)
(3.8788e-05 -7.67589e-05 0)
(2.98572e-05 -2.99763e-05 0)
(-1.32559e-05 4.10311e-05 0)
(-9.8501e-05 0.000127813 0)
(-0.000231284 0.000224066 0)
(-0.000414968 0.000325134 0)
(-0.000651203 0.000427616 0)
(-0.000940269 0.000529021 0)
(-0.00128139 0.000627535 0)
(-0.00167298 0.000721827 0)
(-0.00211281 0.000810935 0)
(-0.00259816 0.000894161 0)
(-0.00312598 0.000971017 0)
(-0.00369293 0.00104117 0)
(-0.00429549 0.00110438 0)
(-0.00493 0.00116054 0)
(-0.00559274 0.00120959 0)
(-0.00627992 0.00125152 0)
(-0.00698775 0.00128639 0)
(-0.00771247 0.00131429 0)
(-0.00845033 0.00133532 0)
(-0.00919765 0.00134962 0)
(-0.00995082 0.00135737 0)
(-0.0107063 0.00135872 0)
(-0.0114606 0.00135387 0)
(-0.0122104 0.00134301 0)
(-0.0129525 0.00132636 0)
(-0.0136837 0.00130413 0)
(-0.014401 0.00127654 0)
(-0.0151015 0.0012438 0)
(-0.0157823 0.00120616 0)
(-0.016441 0.00116384 0)
(-0.0170748 0.00111708 0)
(-0.0176815 0.00106611 0)
(-0.0182587 0.00101118 0)
(-0.0188043 0.000952517 0)
(-0.0193163 0.000890378 0)
(-0.0197928 0.000825007 0)
(-0.0202322 0.00075665 0)
(-0.0206327 0.000685561 0)
(-0.0209931 0.000611991 0)
(-0.0213119 0.000536196 0)
(-0.021588 0.000458437 0)
(-0.0218203 0.000378976 0)
(-0.0220081 0.000298078 0)
(-0.0221506 0.00021601 0)
(-0.0222472 0.000133044 0)
(-0.0222974 4.94553e-05 0)
(-0.0223012 -3.44761e-05 0)
(-0.0222582 -0.000118465 0)
(-0.0221687 -0.000202225 0)
(-0.0220328 -0.000285465 0)
(-0.0218508 -0.000367894 0)
(-0.0216234 -0.000449216 0)
(-0.0213512 -0.000529132 0)
(-0.0210352 -0.000607337 0)
(-0.0206763 -0.000683526 0)
(-0.0202757 -0.000757393 0)
(-0.019835 -0.000828631 0)
(-0.0193555 -0.000896934 0)
(-0.018839 -0.000961994 0)
(-0.0182875 -0.0010235 0)
(-0.0177029 -0.00108116 0)
(-0.0170876 -0.00113465 0)
(-0.0164438 -0.00118369 0)
(-0.0157742 -0.00122799 0)
(-0.0150814 -0.00126725 0)
(-0.0143683 -0.0013012 0)
(-0.0136379 -0.00132959 0)
(-0.0128932 -0.00135215 0)
(-0.0121377 -0.00136864 0)
(-0.0113747 -0.00137883 0)
(-0.0106077 -0.00138251 0)
(-0.00984033 -0.00137948 0)
(-0.00907624 -0.00136958 0)
(-0.00831924 -0.00135266 0)
(-0.00757317 -0.0013286 0)
(-0.00684192 -0.00129731 0)
(-0.00612939 -0.00125875 0)
(-0.0054395 -0.0012129 0)
(-0.00477612 -0.00115979 0)
(-0.00414308 -0.00109951 0)
(-0.00354412 -0.00103221 0)
(-0.00298282 -0.000958136 0)
(-0.00246261 -0.000877613 0)
(-0.00198663 -0.000791103 0)
(-0.00155774 -0.000699225 0)
(-0.00117835 -0.000602797 0)
(-0.000850341 -0.000502907 0)
(-0.00057492 -0.000400994 0)
(-0.000352428 -0.000298972 0)
(-0.000182119 -0.000199395 0)
(-6.18764e-05 -0.000105684 0)
(1.21151e-05 -2.24279e-05 0)
(4.56736e-05 4.42567e-05 0)
(4.70305e-05 8.63606e-05 0)
(2.85652e-05 9.36439e-05 0)
(8.13475e-06 5.28049e-05 0)
(5.32069e-06 -6.31514e-05 0)
(1.21493e-05 -9.83643e-05 0)
(2.38656e-06 -6.68037e-05 0)
(-3.95359e-05 1.30264e-05 0)
(-0.000125156 0.000126836 0)
(-0.000262484 0.000263394 0)
(-0.000457082 0.000414011 0)
(-0.000712461 0.00057208 0)
(-0.00103037 0.000732604 0)
(-0.00141112 0.000891825 0)
(-0.00185385 0.0010469 0)
(-0.00235677 0.00119572 0)
(-0.00291735 0.00133668 0)
(-0.00353246 0.00146864 0)
(-0.00419852 0.00159072 0)
(-0.00491164 0.00170233 0)
(-0.00566764 0.00180307 0)
(-0.00646217 0.00189266 0)
(-0.00729076 0.00197099 0)
(-0.00814887 0.002038 0)
(-0.00903193 0.00209375 0)
(-0.00993535 0.00213833 0)
(-0.0108546 0.00217191 0)
(-0.0117852 0.00219469 0)
(-0.0127227 0.0022069 0)
(-0.0136627 0.00220881 0)
(-0.0146011 0.00220071 0)
(-0.0155337 0.0021829 0)
(-0.0164565 0.00215572 0)
(-0.0173656 0.0021195 0)
(-0.0182574 0.00207458 0)
(-0.0191282 0.00202133 0)
(-0.0199745 0.00196011 0)
(-0.0207931 0.0018913 0)
(-0.0215808 0.00181527 0)
(-0.0223348 0.00173241 0)
(-0.023052 0.00164309 0)
(-0.02373 0.00154773 0)
(-0.0243661 0.00144671 0)
(-0.0249582 0.00134043 0)
(-0.025504 0.0012293 0)
(-0.0260015 0.00111372 0)
(-0.0264491 0.000994113 0)
(-0.026845 0.000870892 0)
(-0.0271878 0.000744482 0)
(-0.0274762 0.000615308 0)
(-0.0277092 0.000483803 0)
(-0.0278859 0.000350404 0)
(-0.0280056 0.000215555 0)
(-0.0280677 7.97039e-05 0)
(-0.028072 -5.66916e-05 0)
(-0.0280183 -0.00019317 0)
(-0.0279067 -0.000329264 0)
(-0.0277375 -0.000464502 0)
(-0.0275111 -0.000598408 0)
(-0.0272283 -0.0007305 0)
(-0.0268898 -0.000860289 0)
(-0.0264969 -0.000987284 0)
(-0.0260509 -0.00111099 0)
(-0.0255531 -0.00123091 0)
(-0.0250054 -0.00134656 0)
(-0.0244096 -0.00145742 0)
(-0.023768 -0.001563 0)
(-0.0230828 -0.00166281 0)
(-0.0223567 -0.00175636 0)
(-0.0215923 -0.00184316 0)
(-0.0207927 -0.00192273 0)
(-0.0199609 -0.00199461 0)
(-0.0191003 -0.00205834 0)
(-0.0182145 -0.00211348 0)
(-0.0173071 -0.0021596 0)
(-0.016382 -0.0021963 0)
(-0.0154432 -0.00222319 0)
(-0.0144949 -0.00223992 0)
(-0.0135415 -0.00224616 0)
(-0.0125873 -0.00224159 0)
(-0.0116368 -0.00222598 0)
(-0.0106948 -0.00219909 0)
(-0.0097658 -0.00216075 0)
(-0.00885463 -0.00211084 0)
(-0.00796601 -0.0020493 0)
(-0.00710467 -0.00197615 0)
(-0.00627531 -0.00189145 0)
(-0.00548251 -0.00179541 0)
(-0.00473076 -0.0016883 0)
(-0.00402432 -0.00157055 0)
(-0.00336725 -0.00144274 0)
(-0.00276325 -0.00130568 0)
(-0.00221564 -0.00116038 0)
(-0.0017272 -0.00100822 0)
(-0.00130009 -0.000850947 0)
(-0.00093565 -0.000690847 0)
(-0.000634251 -0.000530883 0)
(-0.00039506 -0.000374908 0)
(-0.000215791 -0.000227932 0)
(-9.24116e-05 -9.64678e-05 0)
(-1.88707e-05 1.105e-05 0)
(1.32693e-05 8.38627e-05 0)
(1.60493e-05 0.000108392 0)
(5.94213e-06 6.64558e-05 0)
(2.37679e-06 -6.68745e-05 0)
(-4.84452e-06 -8.75966e-05 0)
(-4.29504e-05 -2.52319e-05 0)
(-0.000124481 9.77203e-05 0)
(-0.000259589 0.000263983 0)
(-0.000455896 0.000459735 0)
(-0.000718705 0.000674055 0)
(-0.00105133 0.000898448 0)
(-0.0014554 0.00112631 0)
(-0.0019311 0.00135255 0)
(-0.0024774 0.00157324 0)
(-0.00309227 0.00178538 0)
(-0.00377289 0.00198667 0)
(-0.00451577 0.0021754 0)
(-0.0053169 0.00235026 0)
(-0.00617186 0.00251034 0)
(-0.00707593 0.00265497 0)
(-0.00802418 0.00278373 0)
(-0.00901148 0.00289635 0)
(-0.0100326 0.00299275 0)
(-0.0110823 0.00307293 0)
(-0.0121554 0.00313702 0)
(-0.0132464 0.0031852 0)
(-0.0143503 0.00321774 0)
(-0.0154618 0.00323495 0)
(-0.016576 0.00323721 0)
(-0.0176878 0.0032249 0)
(-0.0187924 0.00319847 0)
(-0.0198852 0.00315836 0)
(-0.0209617 0.00310508 0)
(-0.0220173 0.0030391 0)
(-0.023048 0.00296095 0)
(-0.0240496 0.00287115 0)
(-0.0250184 0.00277025 0)
(-0.0259505 0.00265878 0)
(-0.0268425 0.00253732 0)
(-0.027691 0.00240642 0)
(-0.028493 0.00226666 0)
(-0.0292455 0.00211862 0)
(-0.0299457 0.00196288 0)
(-0.0305912 0.00180003 0)
(-0.0311795 0.00163068 0)
(-0.0317087 0.00145543 0)
(-0.0321767 0.00127489 0)
(-0.0325819 0.00108969 0)
(-0.0329228 0.00090044 0)
(-0.033198 0.000707789 0)
(-0.0334067 0.000512375 0)
(-0.0335479 0.00031485 0)
(-0.033621 0.000115874 0)
(-0.0336258 -8.38854e-05 0)
(-0.0335619 -0.000283751 0)
(-0.0334296 -0.000483039 0)
(-0.0332292 -0.000681058 0)
(-0.0329611 -0.000877107 0)
(-0.0326264 -0.00107048 0)
(-0.0322259 -0.00126047 0)
(-0.031761 -0.00144635 0)
(-0.0312333 -0.0016274 0)
(-0.0306445 -0.0018029 0)
(-0.0299966 -0.00197211 0)
(-0.029292 -0.00213433 0)
(-0.0285332 -0.00228881 0)
(-0.0277229 -0.00243485 0)
(-0.0268641 -0.00257172 0)
(-0.0259601 -0.00269873 0)
(-0.0250144 -0.00281517 0)
(-0.0240307 -0.00292038 0)
(-0.0230128 -0.0030137 0)
(-0.021965 -0.00309449 0)
(-0.0208915 -0.00316214 0)
(-0.0197969 -0.00321607 0)
(-0.018686 -0.00325573 0)
(-0.0175635 -0.0032806 0)
(-0.0164346 -0.00329023 0)
(-0.0153043 -0.00328419 0)
(-0.014178 -0.00326213 0)
(-0.0130611 -0.00322374 0)
(-0.011959 -0.0031688 0)
(-0.0108772 -0.00309717 0)
(-0.00982108 -0.00300877 0)
(-0.00879623 -0.00290366 0)
(-0.00780799 -0.00278201 0)
(-0.00686165 -0.00264412 0)
(-0.00596232 -0.00249046 0)
(-0.00511488 -0.0023217 0)
(-0.0043239 -0.00213874 0)
(-0.00359359 -0.00194277 0)
(-0.00292767 -0.00173532 0)
(-0.00232927 -0.00151839 0)
(-0.00180079 -0.0012945 0)
(-0.00134378 -0.00106686 0)
(-0.000958714 -0.000839578 0)
(-0.00064484 -0.000617854 0)
(-0.000399935 -0.000408308 0)
(-0.000220076 -0.000219341 0)
(-9.93791e-05 -6.15937e-05 0)
(-2.96802e-05 5.16146e-05 0)
(-7.78836e-08 0.000103677 0)
(3.12079e-06 7.23706e-05 0)
(-8.39048e-07 -6.11376e-05 0)
(-2.37648e-05 -5.27202e-05 0)
(-9.36759e-05 5.2711e-05 0)
(-0.000219255 0.000229646 0)
(-0.000408774 0.000458277 0)
(-0.000669078 0.000722519 0)
(-0.00100487 0.00100944 0)
(-0.00141901 0.00130876 0)
(-0.00191279 0.00161235 0)
(-0.0024861 0.00191379 0)
(-0.00313765 0.00220803 0)
(-0.00386514 0.00249116 0)
(-0.00466541 0.00276012 0)
(-0.00553461 0.00301256 0)
(-0.00646833 0.00324672 0)
(-0.00746171 0.00346127 0)
(-0.00850954 0.00365528 0)
(-0.00960633 0.00382808 0)
(-0.0107464 0.0039793 0)
(-0.011924 0.00410873 0)
(-0.0131332 0.00421634 0)
(-0.014368 0.00430225 0)
(-0.0156227 0.00436667 0)
(-0.0168913 0.00440992 0)
(-0.018168 0.00443241 0)
(-0.0194472 0.0044346 0)
(-0.0207231 0.00441701 0)
(-0.0219905 0.00438021 0)
(-0.0232439 0.0043248 0)
(-0.0244783 0.00425143 0)
(-0.0256886 0.00416076 0)
(-0.02687 0.00405349 0)
(-0.0280179 0.00393032 0)
(-0.029128 0.00379199 0)
(-0.030196 0.00363923 0)
(-0.0312179 0.00347281 0)
(-0.0321899 0.0032935 0)
(-0.0331085 0.00310207 0)
(-0.0339704 0.00289931 0)
(-0.0347723 0.00268603 0)
(-0.0355114 0.00246304 0)
(-0.036185 0.00223116 0)
(-0.0367908 0.00199121 0)
(-0.0373266 0.00174403 0)
(-0.0377903 0.00149048 0)
(-0.0381804 0.00123141 0)
(-0.0384953 0.000967701 0)
(-0.0387339 0.000700224 0)
(-0.0388953 0.000429876 0)
(-0.0389788 0.000157559 0)
(-0.0389839 -0.00011581 0)
(-0.0389105 -0.000389307 0)
(-0.0387587 -0.000661994 0)
(-0.0385289 -0.000932924 0)
(-0.0382218 -0.00120114 0)
(-0.0378383 -0.00146568 0)
(-0.0373795 -0.00172556 0)
(-0.0368471 -0.00197981 0)
(-0.0362427 -0.00222745 0)
(-0.0355684 -0.00246747 0)
(-0.0348266 -0.00269891 0)
(-0.0340197 -0.00292075 0)
(-0.0331508 -0.00313203 0)
(-0.0322229 -0.00333176 0)
(-0.0312395 -0.00351898 0)
(-0.0302043 -0.00369272 0)
(-0.0291212 -0.00385206 0)
(-0.0279945 -0.00399608 0)
(-0.0268286 -0.00412389 0)
(-0.0256282 -0.00423463 0)
(-0.0243982 -0.00432748 0)
(-0.0231438 -0.00440167 0)
(-0.0218703 -0.00445645 0)
(-0.0205832 -0.00449116 0)
(-0.0192883 -0.00450517 0)
(-0.0179913 -0.00449794 0)
(-0.0166983 -0.004469 0)
(-0.0154152 -0.00441796 0)
(-0.0141482 -0.00434456 0)
(-0.0129035 -0.00424862 0)
(-0.0116872 -0.0041301 0)
(-0.0105054 -0.00398911 0)
(-0.00936413 -0.00382591 0)
(-0.00826929 -0.00364097 0)
(-0.00722656 -0.00343497 0)
(-0.00624135 -0.00320887 0)
(-0.00531872 -0.00296394 0)
(-0.00446331 -0.00270183 0)
(-0.00367923 -0.00242465 0)
(-0.00296995 -0.00213505 0)
(-0.00233816 -0.0018364 0)
(-0.00178566 -0.0015329 0)
(-0.00131315 -0.00122981 0)
(-0.000920109 -0.000933674 0)
(-0.000604595 -0.000652689 0)
(-0.000363057 -0.000397037 0)
(-0.000190104 -0.000179379 0)
(-7.82202e-05 -1.5311e-05 0)
(-1.82054e-05 7.59969e-05 0)
(2.24559e-08 6.9245e-05 0)
(-4.13273e-06 -4.5301e-05 0)
(-4.36037e-05 8.27541e-06 0)
(-0.000147343 0.000170127 0)
(-0.000319801 0.000412573 0)
(-0.000567021 0.000713801 0)
(-0.000894799 0.00105584 0)
(-0.001307 0.001424 0)
(-0.0018058 0.00180638 0)
(-0.00239197 0.00219342 0)
(-0.00306498 0.00257744 0)
(-0.00382315 0.00295231 0)
(-0.00466382 0.00331316 0)
(-0.00558348 0.00365617 0)
(-0.00657792 0.00397835 0)
(-0.00764231 0.0042774 0)
(-0.00877137 0.00455158 0)
(-0.00995944 0.00479962 0)
(-0.0112005 0.00502063 0)
(-0.0124885 0.00521403 0)
(-0.013817 0.00537953 0)
(-0.0151795 0.00551701 0)
(-0.0165697 0.00562658 0)
(-0.017981 0.00570847 0)
(-0.019407 0.00576306 0)
(-0.0208413 0.00579083 0)
(-0.0222776 0.00579235 0)
(-0.0237097 0.00576826 0)
(-0.0251316 0.00571927 0)
(-0.0265375 0.00564615 0)
(-0.0279215 0.00554972 0)
(-0.0292783 0.00543082 0)
(-0.0306024 0.00529034 0)
(-0.0318888 0.0051292 0)
(-0.0331325 0.00494833 0)
(-0.0343289 0.00474869 0)
(-0.0354735 0.00453127 0)
(-0.0365621 0.00429706 0)
(-0.0375907 0.00404708 0)
(-0.0385557 0.00378234 0)
(-0.0394535 0.0035039 0)
(-0.0402809 0.00321281 0)
(-0.0410349 0.00291014 0)
(-0.0417129 0.00259696 0)
(-0.0423125 0.00227438 0)
(-0.0428314 0.00194351 0)
(-0.0432678 0.00160545 0)
(-0.0436201 0.00126136 0)
(-0.043887 0.000912378 0)
(-0.0440674 0.000559672 0)
(-0.0441606 0.000204422 0)
(-0.044166 -0.00015218 0)
(-0.0440837 -0.000508926 0)
(-0.0439136 -0.000864594 0)
(-0.0436562 -0.00121795 0)
(-0.0433123 -0.00156775 0)
(-0.042883 -0.00191273 0)
(-0.0423694 -0.00225163 0)
(-0.0417734 -0.00258317 0)
(-0.0410969 -0.00290608 0)
(-0.0403421 -0.00321906 0)
(-0.0395117 -0.00352083 0)
(-0.0386085 -0.00381012 0)
(-0.0376358 -0.00408564 0)
(-0.0365971 -0.00434613 0)
(-0.0354962 -0.00459033 0)
(-0.0343372 -0.00481702 0)
(-0.0331244 -0.00502498 0)
(-0.0318627 -0.00521303 0)
(-0.0305568 -0.00538004 0)
(-0.0292121 -0.00552489 0)
(-0.027834 -0.00564654 0)
(-0.0264282 -0.00574399 0)
(-0.0250005 -0.0058163 0)
(-0.0235572 -0.00586261 0)
(-0.0221044 -0.00588215 0)
(-0.0206487 -0.00587423 0)
(-0.0191966 -0.00583828 0)
(-0.0177547 -0.00577382 0)
(-0.0163299 -0.00568053 0)
(-0.0149288 -0.00555824 0)
(-0.0135583 -0.00540692 0)
(-0.012225 -0.00522675 0)
(-0.0109355 -0.00501813 0)
(-0.00969623 -0.00478172 0)
(-0.00851344 -0.00451844 0)
(-0.007393 -0.00422958 0)
(-0.00634042 -0.0039168 0)
(-0.00536078 -0.00358228 0)
(-0.00445857 -0.0032287 0)
(-0.0036376 -0.00285948 0)
(-0.00290091 -0.00247881 0)
(-0.00225062 -0.00209189 0)
(-0.00168777 -0.00170513 0)
(-0.00121222 -0.00132641 0)
(-0.000822479 -0.000965362 0)
(-0.0005156 -0.000633823 0)
(-0.00028693 -0.000346244 0)
(-0.000129881 -0.000120151 0)
(-3.73089e-05 2.32307e-05 0)
(-3.15804e-06 5.64164e-05 0)
(-7.40047e-06 -1.91477e-05 0)
(-6.37334e-05 9.64356e-05 0)
(-0.000202325 0.000328813 0)
(-0.000423276 0.000648852 0)
(-0.000730235 0.00103326 0)
(-0.00112776 0.00146252 0)
(-0.00161868 0.00192044 0)
(-0.00220435 0.00239374 0)
(-0.00288483 0.00287154 0)
(-0.00365905 0.00334498 0)
(-0.00452485 0.0038069 0)
(-0.00547913 0.00425152 0)
(-0.00651798 0.00467424 0)
(-0.00763678 0.00507142 0)
(-0.00883029 0.00544021 0)
(-0.0100928 0.00577844 0)
(-0.0114183 0.00608448 0)
(-0.0128002 0.00635719 0)
(-0.014232 0.00659578 0)
(-0.0157068 0.00679982 0)
(-0.0172176 0.00696912 0)
(-0.0187576 0.00710376 0)
(-0.0203196 0.00720399 0)
(-0.0218967 0.00727022 0)
(-0.023482 0.00730301 0)
(-0.0250687 0.00730304 0)
(-0.02665 0.00727108 0)
(-0.0282194 0.007208 0)
(-0.0297706 0.00711473 0)
(-0.0312972 0.00699227 0)
(-0.0327933 0.00684167 0)
(-0.0342531 0.00666401 0)
(-0.0356709 0.00646044 0)
(-0.0370415 0.00623211 0)
(-0.0383597 0.00598024 0)
(-0.0396206 0.00570605 0)
(-0.0408197 0.00541077 0)
(-0.0419526 0.00509568 0)
(-0.0430152 0.00476206 0)
(-0.0440038 0.00441123 0)
(-0.0449147 0.00404451 0)
(-0.0457449 0.00366324 0)
(-0.0464912 0.00326878 0)
(-0.0471511 0.00286252 0)
(-0.0477222 0.00244583 0)
(-0.0482025 0.00202014 0)
(-0.0485902 0.00158688 0)
(-0.0488838 0.00114749 0)
(-0.0490822 0.00070344 0)
(-0.0491847 0.000256214 0)
(-0.0491906 -0.000192689 0)
(-0.0490998 -0.000641749 0)
(-0.0489125 -0.00108943 0)
(-0.0486292 -0.00153418 0)
(-0.0482507 -0.00197444 0)
(-0.047778 -0.00240862 0)
(-0.0472128 -0.00283513 0)
(-0.0465568 -0.00325239 0)
(-0.0458121 -0.00365877 0)
(-0.0449813 -0.00405267 0)
(-0.0440673 -0.00443249 0)
(-0.0430731 -0.00479661 0)
(-0.0420023 -0.00514345 0)
(-0.0408587 -0.00547141 0)
(-0.0396466 -0.00577894 0)
(-0.0383703 -0.0060645 0)
(-0.0370347 -0.00632658 0)
(-0.0356449 -0.00656371 0)
(-0.0342062 -0.00677447 0)
(-0.0327244 -0.0069575 0)
(-0.0312054 -0.00711148 0)
(-0.0296554 -0.00723519 0)
(-0.0280808 -0.00732749 0)
(-0.0264884 -0.0073873 0)
(-0.0248848 -0.00741369 0)
(-0.0232771 -0.00740582 0)
(-0.0216724 -0.007363 0)
(-0.0200781 -0.00728469 0)
(-0.0185012 -0.0071705 0)
(-0.0169493 -0.00702026 0)
(-0.0154295 -0.00683398 0)
(-0.0139492 -0.00661194 0)
(-0.0125154 -0.00635467 0)
(-0.0111351 -0.00606303 0)
(-0.00981486 -0.00573824 0)
(-0.00856119 -0.00538192 0)
(-0.00737999 -0.00499619 0)
(-0.00627676 -0.00458372 0)
(-0.00525638 -0.00414785 0)
(-0.00432307 -0.00369273 0)
(-0.00348025 -0.0032234 0)
(-0.00273043 -0.00274605 0)
(-0.00207512 -0.00226821 0)
(-0.00151467 -0.00179896 0)
(-0.0010482 -0.00134932 0)
(-0.000673545 -0.000932565 0)
(-0.000386969 -0.000564696 0)
(-0.000183004 -0.000264825 0)
(-5.67497e-05 -5.57372e-05 0)
(-6.31603e-06 3.36327e-05 0)
(-1.05894e-05 1.73089e-05 0)
(-8.37646e-05 0.000212129 0)
(-0.000257559 0.000529626 0)
(-0.000527743 0.000939789 0)
(-0.00089551 0.00141825 0)
(-0.0013641 0.00194432 0)
(-0.00193518 0.00250058 0)
(-0.00260912 0.00307252 0)
(-0.00338518 0.00364813 0)
(-0.00426162 0.00421747 0)
(-0.00523572 0.0047724 0)
(-0.00630387 0.00530632 0)
(-0.00746169 0.00581384 0)
(-0.00870411 0.00629069 0)
(-0.0100255 0.00673347 0)
(-0.0114197 0.00713958 0)
(-0.0128801 0.00750702 0)
(-0.0144 0.00783436 0)
(-0.0159723 0.00812061 0)
(-0.0175895 0.00836519 0)
(-0.0192444 0.00856784 0)
(-0.0209295 0.00872857 0)
(-0.0226372 0.00884764 0)
(-0.0243601 0.00892551 0)
(-0.0260909 0.00896283 0)
(-0.0278221 0.00896036 0)
(-0.0295467 0.00891903 0)
(-0.0312576 0.00883985 0)
(-0.0329478 0.00872393 0)
(-0.0346108 0.00857246 0)
(-0.0362401 0.0083867 0)
(-0.0378293 0.00816797 0)
(-0.0393726 0.00791763 0)
(-0.0408641 0.0076371 0)
(-0.0422983 0.00732783 0)
(-0.04367 0.00699131 0)
(-0.0449742 0.00662905 0)
(-0.0462062 0.0062426 0)
(-0.0473617 0.00583352 0)
(-0.0484365 0.00540342 0)
(-0.0494269 0.00495391 0)
(-0.0503293 0.00448663 0)
(-0.0511406 0.00400324 0)
(-0.0518579 0.00350543 0)
(-0.0524786 0.00299491 0)
(-0.0530005 0.00247339 0)
(-0.0534218 0.00194264 0)
(-0.0537409 0.00140442 0)
(-0.0539566 0.000860526 0)
(-0.0540679 0.000312771 0)
(-0.0540744 -0.000237009 0)
(-0.0539758 -0.000786957 0)
(-0.0537723 -0.0013352 0)
(-0.0534645 -0.00187983 0)
(-0.0530533 -0.00241895 0)
(-0.0525398 -0.00295062 0)
(-0.0519256 -0.0034729 0)
(-0.0512128 -0.00398385 0)
(-0.0504037 -0.0044815 0)
(-0.0495009 -0.0049639 0)
(-0.0485076 -0.00542908 0)
(-0.0474271 -0.00587509 0)
(-0.0462632 -0.00629999 0)
(-0.0450201 -0.00670186 0)
(-0.0437023 -0.00707879 0)
(-0.0423145 -0.00742893 0)
(-0.0408619 -0.00775043 0)
(-0.0393501 -0.00804153 0)
(-0.0377849 -0.00830051 0)
(-0.0361723 -0.0085257 0)
(-0.0345187 -0.00871555 0)
(-0.0328308 -0.00886857 0)
(-0.0311156 -0.00898337 0)
(-0.0293801 -0.0090587 0)
(-0.0276316 -0.00909343 0)
(-0.0258778 -0.00908658 0)
(-0.0241261 -0.00903733 0)
(-0.0223844 -0.00894505 0)
(-0.0206605 -0.00880932 0)
(-0.0189623 -0.00862996 0)
(-0.0172974 -0.00840704 0)
(-0.0156737 -0.00814092 0)
(-0.0140987 -0.0078323 0)
(-0.0125799 -0.00748227 0)
(-0.0111244 -0.00709232 0)
(-0.00973912 -0.00666446 0)
(-0.00843032 -0.00620125 0)
(-0.00720398 -0.00570591 0)
(-0.00606542 -0.00518241 0)
(-0.00501927 -0.00463562 0)
(-0.00406942 -0.00407145 0)
(-0.00321885 -0.00349702 0)
(-0.0024696 -0.00292089 0)
(-0.00182265 -0.00235331 0)
(-0.00127786 -0.0018065 0)
(-0.000833942 -0.00129503 0)
(-0.000488237 -0.000836171 0)
(-0.000236498 -0.000450302 0)
(-7.61368e-05 -0.000161348 0)
(-9.39754e-06 8.87967e-07 0)
(-1.36704e-05 6.39133e-05 0)
(-0.000103477 0.000355304 0)
(-0.000312351 0.000772783 0)
(-0.000631893 0.00128591 0)
(-0.00106086 0.00186958 0)
(-0.0016011 0.00250222 0)
(-0.00225306 0.00316545 0)
(-0.00301604 0.00384373 0)
(-0.0038884 0.00452405 0)
(-0.00486766 0.00519553 0)
(-0.00595042 0.00584916 0)
(-0.0071325 0.0064775 0)
(-0.00840901 0.00707449 0)
(-0.0097744 0.00763523 0)
(-0.0112225 0.00815579 0)
(-0.0127469 0.00863312 0)
(-0.0143404 0.00906487 0)
(-0.0159959 0.00944932 0)
(-0.0177058 0.00978527 0)
(-0.0194623 0.010072 0)
(-0.0212577 0.0103091 0)
(-0.0230839 0.0104966 0)
(-0.0249331 0.0106347 0)
(-0.0267974 0.0107239 0)
(-0.0286689 0.010765 0)
(-0.0305398 0.0107589 0)
(-0.0324025 0.0107065 0)
(-0.0342495 0.0106091 0)
(-0.0360736 0.010468 0)
(-0.0378676 0.0102845 0)
(-0.0396246 0.0100602 0)
(-0.041338 0.00979653 0)
(-0.0430014 0.00949519 0)
(-0.0446087 0.00915783 0)
(-0.0461539 0.00878616 0)
(-0.0476314 0.00838197 0)
(-0.0490361 0.00794704 0)
(-0.0503628 0.00748322 0)
(-0.051607 0.00699238 0)
(-0.0527642 0.00647642 0)
(-0.0538303 0.00593729 0)
(-0.0548017 0.00537693 0)
(-0.0556749 0.00479734 0)
(-0.0564469 0.00420052 0)
(-0.057115 0.00358852 0)
(-0.0576767 0.0029634 0)
(-0.0581302 0.00232726 0)
(-0.0584737 0.00168221 0)
(-0.0587058 0.0010304 0)
(-0.0588258 0.000374004 0)
(-0.058833 -0.000284793 0)
(-0.0587271 -0.000943766 0)
(-0.0585085 -0.00160067 0)
(-0.0581776 -0.00225325 0)
(-0.0577354 -0.00289921 0)
(-0.0571832 -0.00353626 0)
(-0.0565227 -0.00416207 0)
(-0.0557561 -0.00477431 0)
(-0.0548857 -0.00537067 0)
(-0.0539146 -0.00594879 0)
(-0.0528458 -0.00650633 0)
(-0.0516832 -0.00704099 0)
(-0.0504307 -0.00755044 0)
(-0.0490927 -0.00803239 0)
(-0.047674 -0.00848459 0)
(-0.0461798 -0.00890483 0)
(-0.0446155 -0.00929093 0)
(-0.0429871 -0.00964078 0)
(-0.0413006 -0.00995235 0)
(-0.0395626 -0.0102237 0)
(-0.0377799 -0.0104529 0)
(-0.0359596 -0.0106383 0)
(-0.034109 -0.0107783 0)