/*--------------------------------*- C++ -*----------------------------------*\
  =========                 |
  \\      /  F ield         | OpenFOAM: The Open Source CFD Toolbox
   \\    /   O peration     | Website:  https://openfoam.org
    \\  /    A nd           | Version:  11
     \\/     M anipulation  |
\*---------------------------------------------------------------------------*/
FoamFile
{
    format      ascii;
    class       volScalarField;
    location    "6.6";
    object      p;
}
// * * * * * * * * * * * * * * * * * * * * * * * * * * * * * * * * * * * * * //

dimensions      [0 2 -2 0 0 0 0];

internalField   nonuniform List<scalar> 
10100
(
4.58316e-08
8.73962e-05
-0.000129037
-0.000691149
-0.00155122
-0.00265534
-0.00394897
-0.00537964
-0.00690018
-0.00846891
-0.010049
-0.0116082
-0.0131186
-0.0145562
-0.0159006
-0.017134
-0.0182412
-0.0192094
-0.0200274
-0.0206864
-0.021179
-0.0214999
-0.0216448
-0.021611
-0.0213968
-0.0210015
-0.0204253
-0.0196692
-0.0187352
-0.0176258
-0.0163445
-0.0148952
-0.0132824
-0.0115111
-0.00958709
-0.00751687
-0.00530731
-0.00296571
-0.000499773
0.00208244
0.00477253
0.00756187
0.0104414
0.0134018
0.0164333
0.0195264
0.0226709
0.0258566
0.0290729
0.0323096
0.0355559
0.0388014
0.0420355
0.0452472
0.0484255
0.0515593
0.0546377
0.0576497
0.0605849
0.063433
0.0661841
0.0688285
0.0713563
0.0737582
0.076025
0.0781484
0.0801203
0.0819335
0.0835813
0.0850577
0.0863572
0.0874753
0.088408
0.0891522
0.089706
0.0900687
0.0902406
0.0902229
0.0900181
0.0896303
0.0890653
0.0883304
0.0874345
0.0863887
0.0852055
0.0838997
0.0824877
0.0809888
0.0794251
0.0778223
0.0762093
0.0746188
0.0730877
0.0716576
0.0703756
0.0692924
0.06846
0.0679281
0.0677388
0.0678438
-8.90563e-05
-3.19663e-06
-0.000213467
-0.000715484
-0.00146071
-0.00241126
-0.0035267
-0.00476575
-0.00608918
-0.0074613
-0.00884962
-0.0102249
-0.0115615
-0.012837
-0.0140317
-0.0151285
-0.0161127
-0.0169715
-0.0176942
-0.0182717
-0.0186969
-0.0189641
-0.019069
-0.0190081
-0.0187794
-0.0183818
-0.0178151
-0.0170802
-0.0161785
-0.0151123
-0.0138844
-0.0124983
-0.0109581
-0.00926838
-0.00743452
-0.00546245
-0.00335858
-0.00112978
0.00121667
0.00367312
0.00623175
0.00888442
0.0116225
0.0144373
0.0173195
0.0202599
0.023249
0.0262769
0.0293337
0.0324095
0.0354945
0.0385784
0.0416512
0.0447026
0.047722
0.0506988
0.0536228
0.0564837
0.0592715
0.0619767
0.0645901
0.0671023
0.0695041
0.0717867
0.0739417
0.0759612
0.0778378
0.0795649
0.0811365
0.0825469
0.0837912
0.0848653
0.0857659
0.0864903
0.0870368
0.0874051
0.087596
0.0876109
0.0874526
0.0871253
0.0866348
0.0859888
0.0851962
0.0842675
0.0832151
0.0820532
0.0807977
0.0794668
0.0780816
0.076666
0.0752466
0.073853
0.0725176
0.0712763
0.070168
0.0692329
0.0685089
0.0680306
0.0678435
0.0679484
0.000124446
0.000202731
-8.14764e-06
-0.000479861
-0.00116006
-0.00201718
-0.00301863
-0.00412991
-0.0053178
-0.00655096
-0.00780086
-0.00904116
-0.0102482
-0.0114013
-0.012482
-0.013474
-0.0143631
-0.0151369
-0.0157851
-0.0162986
-0.0166704
-0.016895
-0.0169678
-0.0168853
-0.016645
-0.0162455
-0.0156866
-0.0149687
-0.0140932
-0.013062
-0.0118774
-0.0105426
-0.00906141
-0.0074381
-0.0056777
-0.00378568
-0.00176808
0.000368568
0.00261737
0.00497105
0.00742215
0.00996298
0.0125854
0.0152809
0.0180409
0.0208566
0.0237185
0.0266174
0.0295438
0.0324881
0.035441
0.038393
0.0413342
0.0442546
0.0471444
0.0499934
0.0527916
0.0555294
0.0581974
0.0607866
0.0632881
0.0656931
0.0679928
0.0701787
0.0722432
0.0741787
0.0759784
0.077636
0.0791461
0.0805033
0.0817032
0.082742
0.0836167
0.0843248
0.0848652
0.0852378
0.0854435
0.0854841
0.0853622
0.0850823
0.0846503
0.0840736
0.0833611
0.0825229
0.0815709
0.0805187
0.0793815
0.0781767
0.076924
0.0756455
0.0743657
0.0731111
0.0719106
0.0707955
0.0697989
0.0689545
0.0682928
0.0678432
0.0676565
0.0677604
0.000681591
0.000699802
0.000457061
-1.58417e-05
-0.000671229
-0.00148027
-0.0024148
-0.00344504
-0.00454229
-0.00567919
-0.00683011
-0.00797145
-0.00908174
-0.0101418
-0.0111346
-0.0120448
-0.012859
-0.0135656
-0.0141543
-0.0146167
-0.0149458
-0.0151359
-0.0151826
-0.0150824
-0.0148328
-0.0144321
-0.0138798
-0.0131765
-0.0123232
-0.0113215
-0.0101735
-0.00888225
-0.00745101
-0.00588396
-0.00418584
-0.00236183
-0.000417587
0.00164062
0.00380626
0.00607252
0.00843215
0.0108777
0.0134015
0.0159955
0.0186514
0.0213607
0.0241145
0.0269035
0.0297188
0.0325514
0.0353921
0.0382318
0.0410611
0.0438705
0.0466503
0.0493907
0.0520823
0.054716
0.0572827
0.0597738
0.0621808
0.0644953
0.0667087
0.0688133
0.0708015
0.0726665
0.0744015
0.0760008
0.0774593
0.0787719
0.0799345
0.0809436
0.0817964
0.0824907
0.0830256
0.0834012
0.0836185
0.0836795
0.0835868
0.0833449
0.0829596
0.0824382
0.0817891
0.0810219
0.0801481
0.0791805
0.0781339
0.0770243
0.0758703
0.0746921
0.0735119
0.0723538
0.0712435
0.0702086
0.069278
0.0684808
0.0678439
0.0673941
0.0671799
0.0672326
0.00153504
0.00144002
0.00113105
0.000629795
-2.78694e-05
-0.000816565
-0.00171165
-0.00268758
-0.00371946
-0.00478367
-0.00585748
-0.0069198
-0.00795117
-0.00893419
-0.00985314
-0.010694
-0.0114441
-0.0120926
-0.0126298
-0.0130478
-0.0133396
-0.0134997
-0.0135235
-0.0134078
-0.0131501
-0.0127487
-0.0122031
-0.0115136
-0.0106809
-0.00970663
-0.00859273
-0.00734174
-0.00595695
-0.00444219
-0.00280187
-0.00104098
0.000835049
0.00282032
0.00490859
0.0070934
0.00936791
0.0117249
0.0141569
0.0166564
0.0192156
0.0218259
0.0244789
0.0271658
0.0298778
0.0326064
0.035343
0.0380785
0.0408039
0.0435102
0.0461879
0.0488277
0.0514206
0.0539579
0.0564309
0.0588314
0.0611512
0.063382
0.0655159
0.0675454
0.0694635
0.0712635
0.072939
0.0744847
0.0758956
0.0771671
0.0782953
0.0792769
0.0801092
0.0807905
0.0813198
0.0816974
0.0819246
0.0820031
0.0819358
0.0817269
0.0813823
0.0809087
0.0803141
0.0796078
0.0788004
0.0779043
0.0769333
0.0759025
0.0748286
0.0737303
0.0726276
0.0715422
0.0704969
0.0695159
0.0686244
0.0678476
0.0672091
0.0667333
0.0664579
0.0664064
0.00263389
0.0023878
0.00198432
0.00143089
0.000746744
-4.59076e-05
-0.000925731
-0.00187106
-0.0028605
-0.00387346
-0.00489011
-0.00589189
-0.0068613
-0.00778249
-0.00864141
-0.00942503
-0.0101218
-0.0107214
-0.0112152
-0.0115953
-0.0118553
-0.0119897
-0.0119942
-0.0118655
-0.0116012
-0.0111998
-0.0106609
-0.00998436
-0.00917103
-0.00822216
-0.00713961
-0.00592581
-0.00458383
-0.00311728
-0.00153027
0.000172478
0.00198563
0.00390364
0.00592066
0.00803033
0.0102261
0.0125013
0.0148487
0.0172612
0.019731
0.0222501
0.0248101
0.0274028
0.0300198
0.0326527
0.0352933
0.0379329
0.0405628
0.0431743
0.0457582
0.0483056
0.0508079
0.0532569
0.0556441
0.0579616
0.0602015
0.0623558
0.064417
0.066378
0.0682321
0.0699728
0.0715941
0.0730908
0.0744583
0.0756923
0.076789
0.0777451
0.0785585
0.0792273
0.0797509
0.0801297
0.0803648
0.080458
0.080412
0.0802311
0.0799208
0.0794876
0.0789388
0.0782831
0.0775308
0.0766935
0.0757839
0.0748158
0.0738046
0.0727672
0.0717216
0.0706871
0.0696841
0.0687337
0.0678575
0.067077
0.0664134
0.0658881
0.0655231
0.0653289
0.00392818
0.00350698
0.00298762
0.00236195
0.00163054
0.000812309
-7.37679e-05
-0.00100987
-0.00197772
-0.00295935
-0.00393767
-0.00489627
-0.00581972
-0.00669388
-0.00750604
-0.00824442
-0.0088985
-0.00945872
-0.00991698
-0.010266
-0.0104997
-0.0106129
-0.0106015
-0.0104624
-0.0101933
-0.00979282
-0.00926047
-0.0085963
-0.00780094
-0.00687547
-0.00582163
-0.00464182
-0.00333888
-0.00191619
-0.000377768
0.0012719
0.00302782
0.00488459
0.00683663
0.00887788
0.011002
0.0132026
0.0154729
0.0178061
0.0201946
0.0226305
0.0251058
0.0276128
0.0301433
0.0326892
0.0352426
0.0377951
0.0403384
0.0428638
0.0453626
0.0478263
0.0502466
0.0526157
0.0549254
0.0571679
0.0593356
0.061421
0.0634167
0.0653161
0.0671127
0.0688001
0.0703725
0.0718251
0.0731535
0.0743537
0.0754217
0.0763546
0.0771505
0.0778076
0.0783255
0.0787044
0.0789453
0.0790502
0.0790215
0.0788635
0.0785811
0.0781806
0.0776689
0.077054
0.0763456
0.0755544
0.0746922
0.0737716
0.0728063
0.0718116
0.070804
0.0698005
0.068819
0.0678778
0.0669955
0.0661903
0.0654809
0.0648859
0.0644098
0.0640476
0.00537142
0.00476042
0.00411018
0.00339642
0.00260062
0.0017392
0.000828514
-0.000116467
-0.0010805
-0.00204822
-0.00300463
-0.00393553
-0.00482752
-0.00566802
-0.00644555
-0.00714974
-0.00777078
-0.00830026
-0.00873041
-0.00905465
-0.00926727
-0.0093635
-0.00933958
-0.00919259
-0.00892043
-0.0085218
-0.00799621
-0.00734378
-0.00656509
-0.00566119
-0.00463367
-0.0034848
-0.00221736
-0.000834509
0.000659887
0.00226139
0.00396531
0.00576657
0.00765968
0.00963879
0.0116979
0.0138309
0.0160315
0.0182927
0.0206074
0.0229679
0.0253666
0.027796
0.0302482
0.0327155
0.0351901
0.037664
0.0401289
0.0425766
0.0449987
0.047387
0.0497337
0.052031
0.0542711
0.0564463
0.0585492
0.0605728
0.0625102
0.0643545
0.0660995
0.0677392
0.069268
0.0706812
0.0719747
0.0731444
0.0741866
0.0750985
0.0758783
0.0765246
0.0770366
0.0774145
0.0776595
0.077773
0.0777579
0.0776177
0.0773574
0.0769826
0.0764998
0.0759165
0.0752417
0.0744852
0.0736576
0.0727704
0.0718359
0.0708681
0.0698816
0.0688916
0.0679136
0.0669633
0.0660567
0.065209
0.0644368
0.0637563
0.0631534
0.0626078
0.00692224
0.00611361
0.00532234
0.00450868
0.003635
0.00271564
0.00176538
0.000796251
-0.000179143
-0.00114769
-0.0020965
-0.0030134
-0.00388675
-0.00470551
-0.00545953
-0.00613944
-0.00673643
-0.00724285
-0.00765172
-0.00795706
-0.00815355
-0.00823688
-0.00820358
-0.00805104
-0.00777743
-0.00738153
-0.00686291
-0.00622174
-0.00545856
-0.00457443
-0.00357099
-0.00245026
-0.00121489
0.000131933
0.00158648
0.00314457
0.00480164
0.00655278
0.00839266
0.0103157
0.0123163
0.0143885
0.0165262
0.0187225
0.0209706
0.0232632
0.025593
0.0279526
0.0303345
0.0327312
0.035135
0.0375383
0.039933
0.042311
0.0446644
0.0469854
0.0492663
0.0514996
0.0536775
0.0557927
0.0578381
0.059807
0.0616924
0.0634879
0.0651872
0.0667846
0.0682748
0.0696532
0.0709157
0.0720582
0.0730772
0.0739702
0.0747355
0.0753716
0.0758776
0.0762537
0.0765009
0.0766206
0.0766153
0.0764886
0.0762448
0.0758893
0.0754281
0.074868
0.0742173
0.0734849
0.0726803
0.0718138
0.0708969
0.0699419
0.0689619
0.0679701
0.06698
0.0660052
0.0650591
0.0641543
0.0633057
0.0625275
0.0617872
0.0610498
0.00854521
0.00753567
0.00659689
0.00567456
0.00471265
0.00372368
0.00272133
0.00171517
0.000715553
-0.000266517
-0.00122024
-0.0021352
-0.00300129
-0.00380895
-0.00454932
-0.00521384
-0.00579491
-0.00628537
-0.00667918
-0.00697095
-0.00715589
-0.00723009
-0.00719043
-0.00703461
-0.00676101
-0.00636867
-0.00585719
-0.00522676
-0.00447805
-0.00361207
-0.00263037
-0.001535
-0.000328552
0.000985867
0.00240469
0.0039239
0.00553902
0.0072452
0.00903744
0.0109104
0.0128587
0.0148765
0.0169579
0.0190963
0.021285
0.023517
0.0257852
0.0280826
0.0304018
0.0327356
0.0350765
0.0374169
0.0397491
0.0420653
0.0443579
0.0466194
0.0488422
0.0510188
0.0531418
0.0552041
0.057199
0.0591197
0.0609595
0.062712
0.0643714
0.0659318
0.0673883
0.0687362
0.0699714
0.0710899
0.0720886
0.0729649
0.0737172
0.0743437
0.0748437
0.0752172
0.0754649
0.0755885
0.0755899
0.0754724
0.0752403
0.0748982
0.0744518
0.0739072
0.0732718
0.0725538
0.0717618
0.0709052
0.069994
0.0690394
0.0680529
0.0670461
0.0660306
0.0650182
0.0640199
0.0630461
0.0621106
0.0612256
0.0603412
0.0594082
0.0102095
0.00899883
0.00790889
0.0068717
0.00581357
0.00474593
0.00368133
0.00262746
0.00159271
0.000586078
-0.000383427
-0.00130697
-0.00217588
-0.00298192
-0.00371724
-0.0043744
-0.00494663
-0.00542765
-0.0058121
-0.00609516
-0.00627271
-0.0063412
-0.00629795
-0.00614097
-0.00586877
-0.00548061
-0.00497637
-0.00435625
-0.00362087
-0.00277133
-0.00180923
-0.000736597
0.000444066
0.00172971
0.00311677
0.00460136
0.0061792
0.00784559
0.00959562
0.0114242
0.0133262
0.015296
0.0173276
0.0194147
0.0215508
0.0237293
0.0259433
0.0281858
0.0304498
0.0327282
0.0350137
0.0372988
0.039576
0.0418381
0.0440776
0.046287
0.0484589
0.050586
0.0526612
0.0546776
0.0566286
0.0585075
0.0603077
0.0620231
0.0636479
0.0651766
0.066604
0.0679255
0.0691372
0.0702352
0.0712162
0.072078
0.0728185
0.0734364
0.0739304
0.0743006
0.0745477
0.074673
0.0746783
0.0745666
0.0743415
0.0740077
0.0735698
0.0730335
0.0724056
0.0716934
0.0709049
0.0700482
0.0691324
0.0681673
0.067163
0.0661297
0.0650775
0.0640164
0.0629555
0.0619033
0.0608726
0.0598744
0.058842
0.0577127
0.0118882
0.0104783
0.00923563
0.00807923
0.00691909
0.00576556
0.00463072
0.00352045
0.00244129
0.00140071
0.000406119
-0.000535143
-0.00141571
-0.00222842
-0.00296631
-0.00362319
-0.0041929
-0.00467027
-0.00505048
-0.00532927
-0.00550314
-0.00556909
-0.00552472
-0.00536829
-0.00509873
-0.00471547
-0.0042184
-0.00360789
-0.00288473
-0.00205007
-0.00110541
-5.28299e-05
0.00110507
0.00236529
0.00372445
0.00517873
0.00672386
0.0083553
0.0100684
0.0118583
0.0137199
0.0156476
0.0176357
0.019678
0.0217684
0.0239003
0.0260671
0.0282619
0.0304779
0.0327081
0.0349454
0.0371826
0.0394125
0.0416278
0.0438214
0.0459859
0.0481141
0.0501989
0.0522332
0.0542103
0.0561237
0.057967
0.0597335
0.0614174
0.063013
0.0645148
0.0659177
0.0672171
0.068409
0.0694897
0.0704559
0.0713051
0.0720356
0.0726456
0.073134
0.0735006
0.073746
0.0738713
0.0738781
0.0737688
0.073547
0.0732165
0.0727815
0.0722473
0.0716198
0.0709059
0.0701127
0.0692473
0.0683177
0.0673325
0.0663007
0.0652312
0.0641326
0.0630136
0.0618815
0.0607433
0.0596111
0.0584953
0.057313
0.0559887
0.0135584
0.011952
0.0105564
0.00927826
0.00801174
0.00676681
0.00555531
0.00438146
0.00325021
0.00216777
0.00114016
0.000173394
-0.000726337
-0.00155279
-0.00230004
-0.00296275
-0.00353574
-0.00401447
-0.00439491
-0.00467353
-0.00484711
-0.00491316
-0.00486983
-0.00471565
-0.00444971
-0.00407166
-0.00358165
-0.00298017
-0.00226803
-0.00144643
-0.000517103
0.000517857
0.00165594
0.0028942
0.00422924
0.00565725
0.00717411
0.00877547
0.0104569
0.0122135
0.0140403
0.0159319
0.0178826
0.0198866
0.0219378
0.0240298
0.0261561
0.0283102
0.0304852
0.0326743
0.0348707
0.0370672
0.0392568
0.0414327
0.0435875
0.0457142
0.0478057
0.0498549
0.051855
0.0537993
0.0556814
0.057495
0.0592337
0.0608916
0.0624631
0.063943
0.0653258
0.0666073
0.0677832
0.0688498
0.0698039
0.0706429
0.0713649
0.0719681
0.0724514
0.0728143
0.0730573
0.0731813
0.0731874
0.073078
0.0728558
0.0725242
0.0720873
0.0715495
0.0709165
0.0701943
0.0693892
0.0685074
0.0675559
0.0665424
0.0654747
0.0643606
0.0632076
0.0620229
0.0608126
0.0595824
0.0583442
0.0571077
0.055775
0.0542584
0.0151998
0.0134005
0.0118527
0.0104513
0.0090755
0.00773501
0.0064416
0.00519831
0.00400871
0.00287772
0.00181034
0.000811518
-0.000113632
-0.000959918
-0.00172243
-0.00239628
-0.0029775
-0.00346221
-0.00384689
-0.00412866
-0.00430497
-0.00437369
-0.00433319
-0.00418246
-0.00392097
-0.0035485
-0.00306523
-0.00247188
-0.00176948
-0.000959362
-4.32464e-05
0.000976709
0.00209796
0.00331755
0.00463209
0.00603788
0.00753092
0.00910699
0.0107617
0.0124903
0.0142878
0.016149
0.0180684
0.0200403
0.0220588
0.0241175
0.0262101
0.0283301
0.0304709
0.0326259
0.0347882
0.0369511
0.0391076
0.0412509
0.0433741
0.0454698
0.0475313
0.0495517
0.051524
0.0534419
0.0552989
0.0570888
0.0588053
0.0604426
0.0619952
0.0634579
0.0648253
0.0660929
0.0672565
0.0683123
0.069257
0.0700881
0.0708035
0.0714013
0.0718801
0.0722395
0.0724797
0.0726013
0.0726052
0.0724931
0.0722674
0.0719312
0.071488
0.070942
0.0702983
0.069562
0.0687385
0.0678335
0.0668531
0.0658041
0.0646935
0.0635278
0.0623136
0.0610568
0.0597627
0.0584357
0.057088
0.055729
0.0542463
0.0525405
0.016795
0.0148064
0.0131078
0.0115825
0.0100955
0.00865629
0.00727694
0.0059595
0.00470634
0.00352132
0.00240859
0.00137212
0.000416142
-0.00045513
-0.00123771
-0.00192763
-0.00252137
-0.0030158
-0.00340833
-0.00369642
-0.00387794
-0.00395124
-0.00391519
-0.00376911
-0.00351259
-0.00314559
-0.00266862
-0.00208257
-0.00138862
-0.000588192
0.000316913
0.00132443
0.00243177
0.00363598
0.00493371
0.00632133
0.00779494
0.00935039
0.0109833
0.012689
0.0144627
0.0162992
0.0181933
0.0201392
0.0221311
0.0241629
0.0262282
0.0283208
0.0304342
0.0325618
0.0346969
0.036833
0.0389633
0.041081
0.0431792
0.0452507
0.0472889
0.0492869
0.051238
0.0531357
0.0549737
0.0567457
0.0584456
0.0600676
0.0616065
0.0630568
0.0644131
0.0656707
0.0668257
0.0678741
0.0688125
0.0696382
0.0703489
0.0709426
0.0714179
0.0717743
0.0720116
0.0721302
0.0721304
0.0720135
0.0717818
0.0714379
0.070985
0.0704269
0.0697677
0.0690122
0.0681649
0.0672308
0.0662155
0.0651251
0.0639654
0.0627422
0.0614608
0.0601267
0.0587442
0.057317
0.0558572
0.0543746
0.0527427
0.0508511
0.0183288
0.0161546
0.0143065
0.0126572
0.0110577
0.00951766
0.00804926
0.00665388
0.00533303
0.00408954
0.00292682
0.00184818
0.000856747
-4.41555e-05
-0.000850951
-0.00156082
-0.00217088
-0.00267861
-0.00308191
-0.00337882
-0.00356773
-0.00364741
-0.0036171
-0.00347636
-0.00322502
-0.00286335
-0.0023921
-0.00181234
-0.00112535
-0.000332742
0.000563554
0.00156123
0.00265764
0.00384982
0.00513445
0.00650796
0.00796648
0.00950588
0.0111218
0.0128098
0.0145649
0.0163824
0.0182569
0.0201828
0.0221543
0.0241653
0.0262098
0.0282816
0.030374
0.0324808
0.0345955
0.0367115
0.0388223
0.0409211
0.0430009
0.0450548
0.0470762
0.0490584
0.0509947
0.0528784
0.0547033
0.0564632
0.0581521
0.0597643
0.0612945
0.0627369
0.0640864
0.0653383
0.0664884
0.0675328
0.0684678
0.0692907
0.0699988
0.0705902
0.0710633
0.0714173
0.0716519
0.0717668
0.0717622
0.0716391
0.0713994
0.0710456
0.0705802
0.0700064
0.0693278
0.0685484
0.0676724
0.0667044
0.0656493
0.0645122
0.0632984
0.0620124
0.0606592
0.0592435
0.057769
0.0562386
0.054665
0.0530582
0.0512781
0.0492039
0.0197875
0.0174313
0.0154355
0.0136622
0.0119494
0.0103069
0.00874716
0.0072708
0.00587891
0.00457358
0.00335713
0.00223224
0.00120151
0.000267403
-0.000567471
-0.00130077
-0.00193028
-0.0024542
-0.0028708
-0.00317871
-0.00337678
-0.00346419
-0.0034405
-0.00330551
-0.00305939
-0.00270269
-0.00223638
-0.0016617
-0.00098011
-0.000193375
0.000696428
0.00168691
0.00277542
0.00395899
0.0052343
0.00659775
0.00804546
0.0095733
0.011177
0.0128523
0.0145943
0.0163983
0.0182589
0.0201706
0.0221276
0.0241242
0.0261541
0.0282112
0.0302892
0.0323817
0.0344826
0.0365852
0.0386831
0.0407694
0.0428374
0.0448803
0.0468914
0.0488642
0.0507918
0.0526676
0.0544853
0.056239
0.0579225
0.0595303
0.0610566
0.062496
0.0638432
0.0650934
0.0662426
0.0672864
0.0682212
0.0690438
0.0697517
0.0703428
0.0708151
0.0711677
0.0713999
0.071511
0.0715009
0.0713706
0.0711216
0.0707559
0.0702756
0.0696831
0.0689815
0.0681746
0.0672661
0.0662601
0.0651608
0.0639727
0.0627001
0.0613472
0.0599182
0.0584174
0.056848
0.0552124
0.0535236
0.051792
0.049865
0.0476113
0.0211591
0.0186241
0.0164824
0.0145857
0.012759
0.0110128
0.00935985
0.00780039
0.00633471
0.00496443
0.00369129
0.00251706
0.00144367
0.000473143
-0.000392899
-0.00115252
-0.00180423
-0.00234668
-0.00277869
-0.00309934
-0.00330793
-0.00340402
-0.00338747
-0.00325836
-0.00301722
-0.00266493
-0.00220261
-0.00163165
-0.00095374
-0.000170853
0.000714817
0.00170087
0.00278463
0.00396309
0.00523284
0.0065902
0.0080313
0.00955212
0.0111485
0.0128161
0.0145502
0.0163461
0.0181984
0.0201016
0.0220502
0.0240383
0.0260597
0.0281084
0.0301783
0.0322631
0.0343567
0.0364525
0.0385439
0.0406242
0.0426869
0.0447253
0.0467326
0.0487022
0.0506273
0.0525012
0.0543179
0.0560711
0.057755
0.0593635
0.060891
0.0623321
0.0636815
0.0649344
0.0660866
0.0671335
0.0680713
0.0688966
0.0696068
0.0701996
0.0706729
0.0710252
0.0712555
0.071363
0.0713474
0.0712094
0.0709501
0.0705711
0.0700737
0.0694601
0.0687328
0.0678952
0.066951
0.0659035
0.0647565
0.0635135
0.0621784
0.0607549
0.059247
0.0576583
0.0559918
0.0542491
0.052444
0.0505875
0.0485147
0.0460843
0.0224325
0.0197219
0.017436
0.0154162
0.0134756
0.0116248
0.00987735
0.00823291
0.00669137
0.00525373
0.00392122
0.00269499
0.00157632
0.000566539
-0.000333153
-0.00112153
-0.00179763
-0.0023605
-0.00280954
-0.00314427
-0.00336434
-0.00346965
-0.00346037
-0.00333705
-0.00310051
-0.00275182
-0.00229227
-0.00172353
-0.00104754
-0.000266416
0.000617643
0.0016022
0.00268447
0.00386128
0.00512916
0.0064844
0.00792319
0.00944153
0.0110354
0.0127003
0.0144317
0.0162248
0.0180743
0.0199749
0.0219208
0.0239063
0.0259253
0.0279719
0.0300401
0.0321236
0.0342163
0.0363116
0.038403
0.0404839
0.0425478
0.0445881
0.0465979
0.0485705
0.0504992
0.0523774
0.054199
0.0559578
0.0576474
0.059262
0.0607959
0.0622437
0.0636
0.0648601
0.0660192
0.0670729
0.068017
0.0688482
0.0695635
0.0701604
0.0706364
0.0709898
0.0712192
0.0713238
0.071303
0.0711572
0.070887
0.0704933
0.0699773
0.0693405
0.0685855
0.0677151
0.0667324
0.0656406
0.0644425
0.0631414
0.0617407
0.0602438
0.0586543
0.0569756
0.0552099
0.0533587
0.0514364
0.0494549
0.0472373
0.0446325
0.0235981
0.020714
0.0182854
0.0161434
0.0140886
0.0121328
0.0102898
0.00855906
0.00693992
0.00543298
0.00403893
0.00275847
0.00159232
0.000541074
-0.000394361
-0.00121341
-0.00191552
-0.00250032
-0.00296762
-0.00331728
-0.00354932
-0.00366402
-0.003662
-0.00354415
-0.00331152
-0.00296534
-0.00250725
-0.00193919
-0.00126326
-0.000481588
0.000403572
0.00138964
0.00247362
0.00365225
0.00492198
0.00627916
0.00771996
0.00924039
0.0108364
0.0125036
0.0142374
0.0160331
0.0178854
0.0197889
0.0217379
0.0237267
0.0257494
0.0278002
0.0298729
0.0319615
0.0340596
0.0361608
0.0382586
0.0403466
0.0424183
0.0444668
0.0464853
0.0484673
0.0504058
0.0522945
0.054127
0.055897
0.057598
0.0592242
0.0607698
0.0622294
0.0635976
0.0648692
0.0660395
0.0671038
0.0680579
0.0688981
0.0696215
0.0702249
0.0707057
0.0710618
0.0712917
0.0713944
0.0713691
0.0712156
0.070934
0.070525
0.0699892
0.0693281
0.0685437
0.0676386
0.0666154
0.0654766
0.0642248
0.0628629
0.0613941
0.0598216
0.0581484
0.0563776
0.054511
0.0525501
0.05051
0.0484034
0.0460418
0.0432645
0.0246465
0.0215911
0.0190207
0.0167569
0.0145883
0.0125269
0.0105877
0.00876964
0.00707154
0.00549375
0.0040365
0.00270001
0.00148449
0.000390204
-0.000582572
-0.00143374
-0.00216316
-0.00277096
-0.00325724
-0.00362226
-0.00386647
-0.00399056
-0.00399552
-0.00388252
-0.00365281
-0.00330798
-0.00284996
-0.00228089
-0.00160289
-0.000818154
7.08957e-05
0.00106146
0.00215039
0.00333434
0.00460977
0.00597297
0.00742011
0.00894716
0.0105501
0.0122246
0.013966
0.0157696
0.0176301
0.0195421
0.0215
0.023498
0.0255304
0.0275915
0.0296751
0.0317749
0.0338848
0.0359983
0.0381091
0.0402107
0.0422964
0.0443594
0.0463931
0.0483906
0.0503453
0.0522505
0.0540999
0.0558869
0.0576051
0.0592485
0.0608114
0.0622881
0.063673
0.0649608
0.0661466
0.0672256
0.0681934
0.0690462
0.0697807
0.0703934
0.0708813
0.0712422
0.0714744
0.0715765
0.0715474
0.0713866
0.0710937
0.0706689
0.0701129
0.0694266
0.0686118
0.0676705
0.0666049
0.0654171
0.0641094
0.0626847
0.0611458
0.0594955
0.0577368
0.0558723
0.0539034
0.0518317
0.0496731
0.0474414
0.0449364
0.0419879
0.0255689
0.022344
0.0196327
0.0172474
0.014965
0.012798
0.0107619
0.00885567
0.00707769
0.00542782
0.00390604
0.00251218
0.00124599
0.000107409
-0.000903923
-0.00178824
-0.00254587
-0.00317725
-0.00368287
-0.00406343
-0.00431977
-0.00445298
-0.00446435
-0.0043553
-0.00412743
-0.00378267
-0.00332317
-0.00275111
-0.00206869
-0.00127826
-0.00038252
0.000615553
0.00171275
0.00290565
0.00419065
0.00556401
0.00702182
0.00856008
0.0101747
0.0118615
0.0136157
0.0154325
0.0173066
0.0192326
0.0212051
0.0232184
0.0252666
0.027344
0.0294445
0.0315618
0.0336899
0.0358222
0.0379525
0.040074
0.0421801
0.0442641
0.0463192
0.0483386
0.0503157
0.0522437
0.054116
0.055926
0.0576673
0.0593337
0.0609195
0.0624186
0.0638253
0.0651342
0.0663401
0.0674381
0.0684236
0.0692926
0.0700414
0.0706663
0.0711641
0.0715322
0.0717688
0.0718719
0.0718403
0.0716727
0.0713689
0.0709286
0.0703521
0.0696403
0.0687943
0.0678157
0.0667062
0.0654678
0.0641027
0.0626135
0.0610028
0.0592732
0.0574272
0.0554673
0.053395
0.0512115
0.0489339
0.0465768
0.0439286
0.0408094
0.0263569
0.0229638
0.0201126
0.0176061
0.0152098
0.012937
0.0108038
0.00880866
0.00694997
0.00522716
0.0036399
0.00218768
0.000869955
-0.000313902
-0.0013646
-0.00228274
-0.00306903
-0.00372424
-0.00424931
-0.00464535
-0.00491355
-0.00505532
-0.00507226
-0.00496612
-0.00473889
-0.00439274
-0.0039299
-0.00335261
-0.00266327
-0.0018645
-0.000959232
4.94704e-05
0.00115835
0.00236391
0.00366241
0.00505005
0.00652294
0.00807705
0.00970833
0.0114124
0.0131845
0.0150197
0.0169129
0.0188586
0.0208515
0.0228858
0.0249558
0.0270556
0.0291791
0.0313203
0.0334728
0.0356304
0.0377864
0.0399343
0.0420674
0.0441787
0.0462617
0.0483096
0.0503153
0.0522722
0.0541735
0.0560126
0.057783
0.0594784
0.0610927
0.0626197
0.0640535
0.0653885
0.0666194
0.067741
0.0687485
0.0696376
0.0704044
0.0710448
0.0715555
0.0719337
0.0721768
0.0722829
0.0722501
0.072077
0.071763
0.0713078
0.0707113
0.0699738
0.069096
0.0680793
0.0669251
0.065635
0.0642113
0.0626563
0.0609724
0.0591619
0.0572271
0.0551706
0.0529936
0.0506974
0.0483
0.045817
0.0430253
0.0397357
0.0270022
0.0234421
0.0204515
0.0178241
0.0153141
0.0129353
0.0107046
0.00862021
0.0066802
0.00488385
0.00323046
0.00171922
0.000349298
-0.000880453
-0.00197095
-0.0029232
-0.00373829
-0.00441736
-0.00496178
-0.00537295
-0.00565242
-0.00580194
-0.00582345
-0.00571906
-0.00549106
-0.00514173
-0.00467339
-0.00408849
-0.00338969
-0.0025799
-0.00166213
-0.000639521
0.000484572
0.00170653
0.00302251
0.00442866
0.0059211
0.00749578
0.00914852
0.0108748
0.0126699
0.014529
0.0164467
0.0184179
0.0204369
0.0224981
0.0245957
0.026724
0.0288768
0.031048
0.0332314
0.0354206
0.0376088
0.0397895
0.041956
0.0441013
0.0462188
0.0483014
0.0503421
0.0523342
0.0542708
0.0561452
0.0579509
0.0596812
0.0613299
0.0628905
0.0643569
0.0657233
0.0669842
0.0681342
0.0691682
0.0700817
0.0708703
0.07153
0.072057
0.072448
0.0727004
0.0728116
0.0727795
0.0726025
0.0722798
0.0718106
0.0711946
0.0704316
0.069522
0.0684668
0.0672672
0.065925
0.0644418
0.06282
0.0610616
0.0591688
0.057144
0.0549895
0.0527066
0.0502967
0.0477787
0.045169
0.0422334
0.0387728
0.0274973
0.0237706
0.0206412
0.017893
0.0152691
0.0127843
0.0104559
0.00828189
0.0062602
0.00438988
0.00266995
0.00109932
-0.000323253
-0.00159911
-0.00272953
-0.00371592
-0.0045597
-0.00526245
-0.00582579
-0.00625146
-0.00654138
-0.00669767
-0.00672259
-0.00661856
-0.00638804
-0.00603344
-0.00555727
-0.0049623
-0.00425146
-0.00342779
-0.00249437
-0.00145444
-0.000311521
0.000930649
0.00226818
0.00369719
0.00521376
0.00681372
0.00849275
0.0102463
0.0120697
0.0139579
0.0159058
0.017908
0.019959
0.0220529
0.0241842
0.026347
0.0285353
0.0307429
0.0329636
0.0351906
0.0374175
0.0396376
0.041844
0.0440299
0.0461883
0.0483122
0.0503944
0.0524281
0.0544064
0.0563225
0.0581695
0.0599408
0.0616298
0.0632299
0.0647347
0.066138
0.0674342
0.0686176
0.0696828
0.0706252
0.07144
0.0721229
0.0726698
0.073077
0.0733415
0.0734605
0.0734315
0.0732526
0.0729227
0.0724408
0.0718062
0.0710182
0.070077
0.0689835
0.0677386
0.0663438
0.0648007
0.0631111
0.0612772
0.0593011
0.0571849
0.0549313
0.0525414
0.0500166
0.0473769
0.0446396
0.041559
0.0379266
0.027835
0.0239417
0.0206734
0.0178045
0.0150667
0.0124755
0.0100491
0.00778536
0.00568173
0.00373716
0.00195045
0.000320257
-0.00115505
-0.00247695
-0.0036472
-0.00466752
-0.00553969
-0.00626558
-0.00684713
-0.00728644
-0.00758582
-0.00774771
-0.00777464
-0.00766926
-0.00743416
-0.00707198
-0.00658557
-0.00597799
-0.00525234
-0.00441172
-0.00345933
-0.00239858
-0.00123312
3.32141e-05
0.00139652
0.00285284
0.00439813
0.00602806
0.00773826
0.00952418
0.0113811
0.013304
0.0152877
0.0173266
0.0194152
0.0215479
0.0237189
0.0259224
0.0281525
0.0304028
0.0326669
0.0349384
0.0372104
0.0394764
0.0417295
0.0439625
0.0461684
0.0483401
0.0504704
0.0525523
0.0545788
0.0565429
0.0584376
0.0602561
0.0619915
0.0636371
0.0651861
0.0666322
0.0679692
0.0691913
0.0702929
0.0712689
0.0721145
0.0728249
0.0733956
0.0738226
0.0741025
0.0742323
0.0742091
0.0740308
0.0736958
0.0732027
0.0725506
0.0717386
0.0707666
0.0696352
0.0683453
0.0668979
0.0652943
0.0635364
0.0616262
0.0595657
0.0573573
0.0550034
0.0525053
0.0498644
0.0471016
0.0442355
0.0410085
0.0372029
0.0280082
0.0239476
0.02054
0.0175502
0.0146983
0.0120005
0.00947601
0.00712222
0.00493647
0.00291753
0.00106401
-0.00062576
-0.00215359
-0.00352135
-0.00473111
-0.00578492
-0.00668486
-0.00743309
-0.00803193
-0.00848389
-0.00879153
-0.00895756
-0.00898477
-0.00887597
-0.00863401
-0.00826187
-0.00776271
-0.00713978
-0.00639629
-0.00553546
-0.00456066
-0.00347546
-0.00228363
-0.000988999
0.000404423
0.00189254
0.00347112
0.00513578
0.00688213
0.00870561
0.0106014
0.0125645
0.0145895
0.0166708
0.018803
0.0209803
0.0231972
0.0254478
0.0277259
0.0300252
0.0323392
0.0346615
0.0369854
0.0393039
0.0416102
0.043897
0.0461572
0.0483835
0.0505686
0.0527053
0.0547866
0.0568053
0.0587542
0.0606262
0.0624144
0.0641116
0.065711
0.0672057
0.0685894
0.0698558
0.0709992
0.072014
0.0728952
0.0736375
0.0742362
0.074687
0.0749862
0.0751302
0.075116
0.074941
0.0746031
0.0741009
0.0734329
0.0725983
0.0715967
0.0704283
0.0690936
0.0675936
0.0659295
0.0641029
0.0621158
0.0599703
0.0576687
0.0552134
0.0526058
0.0498474
0.0469602
0.0439636
0.0405886
0.0366075
0.0280092
0.0237805
0.020233
0.017122
0.0141556
0.011351
0.008728
0.006284
0.00401604
0.00192273
2.47891e-06
-0.00174666
-0.0033267
-0.00473996
-0.00598871
-0.00707529
-0.00800213
-0.00877173
-0.00938681
-0.00985015
-0.0101645
-0.0103329
-0.0103583
-0.0102439
-0.00999265
-0.00960804
-0.0090934
-0.00845212
-0.00768755
-0.00680311
-0.00580233
-0.00468889
-0.00346661
-0.00213943
-0.000711498
0.000812909
0.00242943
0.00413368
0.00592127
0.0077876
0.00972772
0.0117364
0.0138083
0.0159378
0.0181195
0.0203477
0.0226167
0.0249205
0.0272529
0.0296076
0.0319781
0.0343578
0.0367401
0.0391179
0.0414841
0.0438316
0.0461528
0.0484406
0.0506873
0.0528858
0.0550287
0.0571086
0.0591183
0.0610504
0.0628978
0.0646532
0.0663091
0.0678586
0.069295
0.0706117
0.0718024
0.0728614
0.0737832
0.0745624
0.0751938
0.0756729
0.0759954
0.0761575
0.0761557
0.075987
0.0756491
0.0751401
0.0744585
0.073603
0.0725732
0.0713688
0.0699902
0.068438
0.0667134
0.0648181
0.0627538
0.0605227
0.0581269
0.0555691
0.0528507
0.0499732
0.0469599
0.043831