/*--------------------------------*- C++ -*----------------------------------*\
  =========                 |
  \\      /  F ield         | OpenFOAM: The Open Source CFD Toolbox
   \\    /   O peration     | Website:  https://openfoam.org
    \\  /    A nd           | Version:  11
     \\/     M anipulation  |
\*---------------------------------------------------------------------------*/
FoamFile
{
    format      ascii;
    class       volVectorField;
    location    "6.6";
    object      U;
}
// * * * * * * * * * * * * * * * * * * * * * * * * * * * * * * * * * * * * * //

dimensions      [0 1 -1 0 0 0 0];

internalField   nonuniform List<vector> 
10100
(
(2.96432e-06 -2.99859e-06 0)
(1.4598e-05 -7.57305e-06 0)
(3.30052e-05 -8.69325e-06 0)
(5.02673e-05 -7.49341e-06 0)
(6.15381e-05 -5.05288e-06 0)
(6.44717e-05 -2.00499e-06 0)
(5.78523e-05 1.30065e-06 0)
(4.11286e-05 4.65122e-06 0)
(1.41914e-05 7.94164e-06 0)
(-2.27841e-05 1.10974e-05 0)
(-6.94395e-05 1.40842e-05 0)
(-0.00012529 1.68696e-05 0)
(-0.000189776 1.94434e-05 0)
(-0.000262284 2.18044e-05 0)
(-0.000342179 2.39519e-05 0)
(-0.000428791 2.58834e-05 0)
(-0.000521456 2.76056e-05 0)
(-0.000619499 2.91155e-05 0)
(-0.00072225 3.04214e-05 0)
(-0.000829045 3.15233e-05 0)
(-0.000939227 3.24235e-05 0)
(-0.00105216 3.31334e-05 0)
(-0.00116722 3.36579e-05 0)
(-0.0012838 3.40051e-05 0)
(-0.0014013 3.41852e-05 0)
(-0.00151917 3.42045e-05 0)
(-0.00163686 3.40666e-05 0)
(-0.00175383 3.37766e-05 0)
(-0.00186958 3.33419e-05 0)
(-0.00198361 3.27698e-05 0)
(-0.00209546 3.20652e-05 0)
(-0.00220468 3.12337e-05 0)
(-0.00231083 3.02813e-05 0)
(-0.0024135 2.9212e-05 0)
(-0.0025123 2.80322e-05 0)
(-0.00260685 2.6749e-05 0)
(-0.00269682 2.53702e-05 0)
(-0.00278187 2.39022e-05 0)
(-0.0028617 2.23483e-05 0)
(-0.00293602 2.07158e-05 0)
(-0.00300456 1.90115e-05 0)
(-0.0030671 1.72393e-05 0)
(-0.0031234 1.54066e-05 0)
(-0.00317325 1.35197e-05 0)
(-0.00321649 1.15828e-05 0)
(-0.00325295 9.60354e-06 0)
(-0.00328249 7.58865e-06 0)
(-0.003305 5.54243e-06 0)
(-0.0033204 3.47364e-06 0)
(-0.00332863 1.39037e-06 0)
(-0.00332962 -7.03775e-07 0)
(-0.00332336 -2.80303e-06 0)
(-0.00330986 -4.90014e-06 0)
(-0.00328913 -6.99003e-06 0)
(-0.00326122 -9.06557e-06 0)
(-0.00322621 -1.11172e-05 0)
(-0.00318419 -1.31374e-05 0)
(-0.0031353 -1.51184e-05 0)
(-0.00307969 -1.70506e-05 0)
(-0.00301755 -1.8926e-05 0)
(-0.00294907 -2.07385e-05 0)
(-0.0028745 -2.24812e-05 0)
(-0.00279409 -2.41456e-05 0)
(-0.00270814 -2.57234e-05 0)
(-0.00261695 -2.72066e-05 0)
(-0.00252088 -2.85858e-05 0)
(-0.00242029 -2.98521e-05 0)
(-0.00231558 -3.09984e-05 0)
(-0.00220717 -3.20175e-05 0)
(-0.00209553 -3.29009e-05 0)
(-0.00198111 -3.36407e-05 0)
(-0.00186442 -3.42311e-05 0)
(-0.00174598 -3.46658e-05 0)
(-0.00162634 -3.49366e-05 0)
(-0.00150606 -3.50357e-05 0)
(-0.00138572 -3.49587e-05 0)
(-0.00126593 -3.47025e-05 0)
(-0.00114731 -3.42617e-05 0)
(-0.00103049 -3.36292e-05 0)
(-0.000916124 -3.28001e-05 0)
(-0.000804863 -3.17715e-05 0)
(-0.000697377 -3.05403e-05 0)
(-0.00059434 -2.91027e-05 0)
(-0.000496422 -2.7457e-05 0)
(-0.000404294 -2.56046e-05 0)
(-0.000318618 -2.35474e-05 0)
(-0.000240044 -2.12858e-05 0)
(-0.0001692 -1.88218e-05 0)
(-0.000106684 -1.6161e-05 0)
(-5.30509e-05 -1.33142e-05 0)
(-8.7913e-06 -1.02987e-05 0)
(2.56955e-05 -7.14043e-06 0)
(5.01404e-05 -3.8797e-06 0)
(6.44664e-05 -5.86293e-07 0)
(6.88899e-05 2.62067e-06 0)
(6.40718e-05 5.53749e-06 0)
(5.13346e-05 7.81153e-06 0)
(3.31209e-05 8.81801e-06 0)
(1.43101e-05 7.49295e-06 0)
(2.81131e-06 2.81522e-06 0)
(7.47415e-06 -1.4571e-05 0)
(3.02635e-05 -3.03833e-05 0)
(6.06973e-05 -3.23143e-05 0)
(8.48979e-05 -2.45773e-05 0)
(9.369e-05 -1.08642e-05 0)
(8.17958e-05 6.29023e-06 0)
(4.5967e-05 2.52511e-05 0)
(-1.55821e-05 4.49293e-05 0)
(-0.000103536 6.46192e-05 0)
(-0.000217803 8.38569e-05 0)
(-0.000357727 0.000102323 0)
(-0.00052229 0.000119809 0)
(-0.000710192 0.000136174 0)
(-0.000919943 0.000151331 0)
(-0.00114991 0.000165222 0)
(-0.0013984 0.000177822 0)
(-0.00166362 0.000189101 0)
(-0.00194379 0.000199075 0)
(-0.00223709 0.000207727 0)
(-0.00254172 0.000215091 0)
(-0.00285588 0.000221174 0)
(-0.0031778 0.000226011 0)
(-0.00350575 0.000229631 0)
(-0.00383803 0.000232068 0)
(-0.00417299 0.000233362 0)
(-0.00450901 0.00023355 0)
(-0.00484454 0.000232669 0)
(-0.00517807 0.000230758 0)
(-0.00550815 0.000227855 0)
(-0.00583337 0.000223997 0)
(-0.00615239 0.000219224 0)
(-0.00646392 0.000213575 0)
(-0.00676672 0.000207088 0)
(-0.00705962 0.000199803 0)
(-0.00734148 0.000191759 0)
(-0.00761127 0.000183003 0)
(-0.00786796 0.000173576 0)
(-0.00811062 0.000163521 0)
(-0.00833838 0.00015288 0)
(-0.00855041 0.000141692 0)
(-0.00874594 0.000130001 0)
(-0.00892429 0.000117845 0)
(-0.00908481 0.000105265 0)
(-0.00922692 9.23062e-05 0)
(-0.00935011 7.90138e-05 0)
(-0.00945393 6.54294e-05 0)
(-0.00953799 5.15989e-05 0)
(-0.00960197 3.75689e-05 0)
(-0.00964562 2.33834e-05 0)
(-0.00966873 9.08791e-06 0)
(-0.0096712 -5.27239e-06 0)
(-0.00965297 -1.96534e-05 0)
(-0.00961404 -3.40099e-05 0)
(-0.0095545 -4.82939e-05 0)
(-0.0094745 -6.24538e-05 0)
(-0.00937427 -7.64381e-05 0)
(-0.00925409 -9.01954e-05 0)
(-0.00911435 -0.000103671 0)
(-0.0089555 -0.00011681 0)
(-0.00877806 -0.000129561 0)
(-0.00858262 -0.000141872 0)
(-0.00836987 -0.000153692 0)
(-0.00814056 -0.000164967 0)
(-0.00789552 -0.000175641 0)
(-0.00763565 -0.000185661 0)
(-0.00736193 -0.000194973 0)
(-0.00707543 -0.000203521 0)
(-0.00677727 -0.000211254 0)
(-0.00646865 -0.000218121 0)
(-0.00615087 -0.000224072 0)
(-0.00582526 -0.000229058 0)
(-0.00549322 -0.000233034 0)
(-0.00515624 -0.000235954 0)
(-0.00481586 -0.000237775 0)
(-0.00447366 -0.000238457 0)
(-0.00413129 -0.000237963 0)
(-0.00379045 -0.000236262 0)
(-0.00345287 -0.000233324 0)
(-0.00312033 -0.000229119 0)
(-0.00279462 -0.000223624 0)
(-0.00247757 -0.000216821 0)
(-0.00217103 -0.000208699 0)
(-0.00187683 -0.000199253 0)
(-0.00159683 -0.000188486 0)
(-0.00133283 -0.000176414 0)
(-0.0010866 -0.000163058 0)
(-0.000859878 -0.000148457 0)
(-0.000654285 -0.000132664 0)
(-0.000471334 -0.00011576 0)
(-0.000312373 -9.78595e-05 0)
(-0.000178535 -7.91264e-05 0)
(-7.06497e-05 -5.97902e-05 0)
(1.0868e-05 -4.01802e-05 0)
(6.61738e-05 -2.07774e-05 0)
(9.6214e-05 -2.3019e-06 0)
(0.000103028 1.4166e-05 0)
(9.00986e-05 2.7e-05 0)
(6.29178e-05 3.37423e-05 0)
(3.07489e-05 3.07957e-05 0)
(7.4553e-06 1.4288e-05 0)
(8.54783e-06 -3.28608e-05 0)
(3.21363e-05 -6.07388e-05 0)
(5.89286e-05 -5.9059e-05 0)
(7.24397e-05 -3.64852e-05 0)
(6.16024e-05 -5.44288e-09 0)
(1.95494e-05 4.52198e-05 0)
(-5.8212e-05 9.54249e-05 0)
(-0.00017437 0.000147996 0)
(-0.000330123 0.000201057 0)
(-0.000525576 0.000253319 0)
(-0.000759998 0.000303852 0)
(-0.00103203 0.000352009 0)
(-0.00133989 0.00039733 0)
(-0.00168144 0.000439508 0)
(-0.00205428 0.000478323 0)
(-0.00245589 0.000513639 0)
(-0.00288359 0.000545375 0)
(-0.00333464 0.000573484 0)
(-0.00380627 0.000597967 0)
(-0.00429567 0.000618833 0)
(-0.00480007 0.000636135 0)
(-0.00531671 0.000649924 0)
(-0.00584285 0.000660276 0)
(-0.00637583 0.000667272 0)
(-0.00691303 0.000671004 0)
(-0.00745189 0.000671569 0)
(-0.00798993 0.00066907 0)
(-0.00852476 0.000663609 0)
(-0.00905404 0.000655295 0)
(-0.00957554 0.000644234 0)
(-0.0100871 0.000630535 0)
(-0.0105866 0.00061431 0)
(-0.0110722 0.000595673 0)
(-0.0115418 0.000574738 0)
(-0.0119938 0.000551621 0)
(-0.0124264 0.000526443 0)
(-0.012838 0.000499328 0)
(-0.0132271 0.000470391 0)
(-0.0135923 0.000439756 0)
(-0.0139322 0.000407544 0)
(-0.0142457 0.000373871 0)
(-0.0145316 0.000338858 0)
(-0.0147888 0.00030263 0)
(-0.0150165 0.000265307 0)
(-0.0152139 0.000227019 0)
(-0.0153801 0.000187897 0)
(-0.0155146 0.000148066 0)
(-0.0156169 0.000107657 0)
(-0.0156866 6.6806e-05 0)
(-0.0157233 2.56418e-05 0)
(-0.0157269 -1.57051e-05 0)
(-0.0156973 -5.70983e-05 0)
(-0.0156345 -9.84005e-05 0)
(-0.0155386 -0.000139473 0)
(-0.01541 -0.000180171 0)
(-0.0152489 -0.000220347 0)
(-0.0150559 -0.000259853 0)
(-0.0148316 -0.000298538 0)
(-0.0145767 -0.000336249 0)
(-0.0142921 -0.000372835 0)
(-0.0139787 -0.000408148 0)
(-0.0136376 -0.000442033 0)
(-0.01327 -0.000474338 0)
(-0.0128773 -0.00050491 0)
(-0.0124609 -0.000533597 0)
(-0.0120224 -0.000560244 0)
(-0.0115634 -0.000584701 0)
(-0.0110859 -0.000606821 0)
(-0.0105917 -0.00062646 0)
(-0.0100828 -0.000643477 0)
(-0.00956145 -0.000657735 0)
(-0.00902981 -0.000669106 0)
(-0.00849026 -0.000677465 0)
(-0.00794523 -0.000682692 0)
(-0.00739725 -0.000684678 0)
(-0.00684892 -0.000683323 0)
(-0.00630293 -0.000678537 0)
(-0.005762 -0.000670239 0)
(-0.00522894 -0.00065836 0)
(-0.00470658 -0.000642844 0)
(-0.00419777 -0.000623653 0)
(-0.00370539 -0.000600766 0)
(-0.00323231 -0.000574188 0)
(-0.00278137 -0.000543947 0)
(-0.00235536 -0.000510103 0)
(-0.00195699 -0.00047275 0)
(-0.00158886 -0.000432028 0)
(-0.00125339 -0.000388135 0)
(-0.000952819 -0.000341348 0)
(-0.000689061 -0.000292045 0)
(-0.000463679 -0.000240743 0)
(-0.000277733 -0.000188144 0)
(-0.000131628 -0.000135215 0)
(-2.49095e-05 -8.32944e-05 0)
(4.40013e-05 -3.42584e-05 0)
(7.81507e-05 9.26546e-06 0)
(8.23848e-05 4.36083e-05 0)
(6.38301e-05 6.3735e-05 0)
(3.3731e-05 6.29517e-05 0)
(8.77375e-06 3.30354e-05 0)
(7.35556e-06 -4.99908e-05 0)
(2.4547e-05 -8.49663e-05 0)
(3.67975e-05 -7.26499e-05 0)
(2.73249e-05 -2.68001e-05 0)
(-1.54589e-05 4.21602e-05 0)
(-9.9117e-05 0.00012619 0)
(-0.000228798 0.000219266 0)
(-0.000407666 0.000316909 0)
(-0.00063726 0.000415864 0)
(-0.0009178 0.000513714 0)
(-0.00124851 0.000608724 0)
(-0.00162782 0.000699604 0)
(-0.00205356 0.000785435 0)
(-0.00252311 0.000865543 0)
(-0.0030335 0.00093947 0)
(-0.00358149 0.00100688 0)
(-0.00416368 0.00106759 0)
(-0.00477654 0.00112145 0)
(-0.00541646 0.00116845 0)
(-0.00607981 0.00120856 0)
(-0.00676292 0.00124186 0)
(-0.00746216 0.00126842 0)
(-0.00817394 0.00128838 0)
(-0.0088947 0.00130186 0)
(-0.00962096 0.00130904 0)
(-0.0103493 0.00131007 0)
(-0.0110765 0.00130515 0)
(-0.0117992 0.00129448 0)
(-0.0125143 0.00127825 0)
(-0.0132189 0.00125666 0)
(-0.0139099 0.00122994 0)
(-0.0145848 0.00119829 0)
(-0.0152407 0.00116194 0)
(-0.0158751 0.00112111 0)
(-0.0164856 0.00107602 0)
(-0.0170699 0.0010269 0)
(-0.0176258 0.000973993 0)
(-0.0181514 0.000917527 0)
(-0.0186445 0.000857733 0)
(-0.0191036 0.000794852 0)
(-0.0195269 0.000729119 0)
(-0.0199128 0.000660769 0)
(-0.0202601 0.000590044 0)
(-0.0205675 0.000517191 0)
(-0.0208338 0.000442454 0)
(-0.021058 0.000366084 0)
(-0.0212394 0.000288336 0)
(-0.0213773 0.000209466 0)
(-0.021471 0.000129729 0)
(-0.0215203 4.93892e-05 0)
(-0.0215248 -3.12921e-05 0)
(-0.0214844 -0.00011205 0)
(-0.0213992 -0.000192613 0)
(-0.0212694 -0.000272704 0)
(-0.0210953 -0.000352045 0)
(-0.0208775 -0.00043035 0)
(-0.0206166 -0.000507329 0)
(-0.0203134 -0.000582692 0)
(-0.019969 -0.000656147 0)
(-0.0195845 -0.000727398 0)
(-0.0191611 -0.000796149 0)
(-0.0187005 -0.000862107 0)
(-0.0182042 -0.000924975 0)
(-0.0176739 -0.000984456 0)
(-0.0171118 -0.00104025 0)
(-0.0165199 -0.00109208 0)
(-0.0159005 -0.00113964 0)
(-0.015256 -0.00118266 0)
(-0.014589 -0.00122085 0)
(-0.0139022 -0.00125394 0)
(-0.0131986 -0.00128169 0)
(-0.0124811 -0.00130384 0)
(-0.0117529 -0.00132015 0)
(-0.0110172 -0.00133039 0)
(-0.0102774 -0.00133437 0)
(-0.00953693 -0.0013319 0)
(-0.00879944 -0.0013228 0)
(-0.00806852 -0.00130694 0)
(-0.0073479 -0.00128418 0)
(-0.0066413 -0.00125444 0)
(-0.00595251 -0.00121767 0)
(-0.00528531 -0.00117383 0)
(-0.00464346 -0.00112297 0)
(-0.00403066 -0.00106516 0)
(-0.00345053 -0.00100055 0)
(-0.00290657 -0.000929353 0)
(-0.0024021 -0.000851881 0)
(-0.00194022 -0.000768567 0)
(-0.00152368 -0.000679995 0)
(-0.00115487 -0.000586942 0)
(-0.000835647 -0.000490445 0)
(-0.000567235 -0.000391878 0)
(-0.000350011 -0.000293076 0)
(-0.000183309 -0.000196499 0)
(-6.51474e-05 -0.000105445 0)
(8.09605e-06 -2.43512e-05 0)
(4.19773e-05 4.08604e-05 0)
(4.44046e-05 8.24194e-05 0)
(2.72798e-05 9.03165e-05 0)
(7.8226e-06 5.12587e-05 0)
(5.00281e-06 -6.12971e-05 0)
(1.12537e-05 -9.41477e-05 0)
(1.1942e-06 -6.23195e-05 0)
(-4.02315e-05 1.5751e-05 0)
(-0.000124131 0.000126314 0)
(-0.00025818 0.000258588 0)
(-0.000447653 0.000404239 0)
(-0.000695865 0.00055694 0)
(-0.00100443 0.000711894 0)
(-0.00137361 0.000865483 0)
(-0.00180252 0.00101499 0)
(-0.0022894 0.00115836 0)
(-0.00283177 0.00129409 0)
(-0.0034266 0.00142107 0)
(-0.00407044 0.00153847 0)
(-0.00475949 0.00164572 0)
(-0.00548972 0.00174244 0)
(-0.00625694 0.0018284 0)
(-0.00705683 0.00190345 0)
(-0.007885 0.00196758 0)
(-0.00873705 0.00202084 0)
(-0.00960856 0.00206334 0)
(-0.0104952 0.00209524 0)
(-0.0113925 0.00211675 0)
(-0.0122964 0.00212809 0)
(-0.0132026 0.00212954 0)
(-0.0141071 0.00212137 0)
(-0.0150058 0.00210388 0)
(-0.015895 0.0020774 0)
(-0.016771 0.00204225 0)
(-0.0176301 0.00199876 0)
(-0.0184689 0.00194728 0)
(-0.0192841 0.00188817 0)
(-0.0200726 0.00182178 0)
(-0.0208313 0.00174848 0)
(-0.0215574 0.00166863 0)
(-0.0222482 0.00158262 0)
(-0.0229011 0.00149082 0)
(-0.0235139 0.00139361 0)
(-0.0240842 0.00129137 0)
(-0.0246099 0.00118449 0)
(-0.0250894 0.00107336 0)
(-0.0255207 0.000958367 0)
(-0.0259023 0.000839919 0)
(-0.0262329 0.000718416 0)
(-0.0265113 0.000594262 0)
(-0.0267364 0.000467871 0)
(-0.0269073 0.000339661 0)
(-0.0270235 0.000210053 0)
(-0.0270843 7.94719e-05 0)
(-0.0270895 -5.16502e-05 0)
(-0.027039 -0.000182876 0)
(-0.0269328 -0.000313765 0)
(-0.0267712 -0.000443868 0)
(-0.0265547 -0.000572727 0)
(-0.0262838 -0.000699882 0)
(-0.0259594 -0.000824866 0)
(-0.0255825 -0.000947208 0)
(-0.0251545 -0.00106643 0)
(-0.0246767 -0.00118206 0)
(-0.0241507 -0.00129362 0)
(-0.0235784 -0.00140063 0)
(-0.0229619 -0.00150262 0)
(-0.0223033 -0.00159909 0)
(-0.0216051 -0.00168959 0)
(-0.0208699 -0.00177364 0)
(-0.0201006 -0.00185077 0)
(-0.0193002 -0.00192054 0)
(-0.0184718 -0.0019825 0)
(-0.0176189 -0.00203622 0)
(-0.0167449 -0.00208129 0)
(-0.0158536 -0.00211731 0)
(-0.0149489 -0.0021439 0)
(-0.0140347 -0.00216073 0)
(-0.0131153 -0.00216745 0)
(-0.0121948 -0.00216378 0)
(-0.0112776 -0.00214945 0)
(-0.0103682 -0.00212426 0)
(-0.00947104 -0.00208802 0)
(-0.00859079 -0.0020406 0)
(-0.00773196 -0.00198195 0)
(-0.00689916 -0.00191204 0)
(-0.00609692 -0.00183097 0)
(-0.00532968 -0.00173889 0)
(-0.0046018 -0.00163608 0)
(-0.00391742 -0.00152292 0)
(-0.00328049 -0.00139998 0)
(-0.00269463 -0.00126799 0)
(-0.00216307 -0.00112794 0)
(-0.00168856 -0.00098113 0)
(-0.00127323 -0.000829229 0)
(-0.000918427 -0.000674425 0)
(-0.000624576 -0.000519566 0)
(-0.000390933 -0.000368359 0)
(-0.000215357 -0.000225636 0)
(-9.4024e-05 -9.76923e-05 0)
(-2.11607e-05 7.30722e-06 0)
(1.13297e-05 7.8929e-05 0)
(1.49961e-05 0.000103921 0)
(5.66491e-06 6.42307e-05 0)
(2.10086e-06 -6.45463e-05 0)
(-5.33739e-06 -8.31358e-05 0)
(-4.2894e-05 -2.13429e-05 0)
(-0.000122644 9.86513e-05 0)
(-0.000254368 0.0002601 0)
(-0.000445394 0.000449698 0)
(-0.000700757 0.000656958 0)
(-0.00102357 0.000873714 0)
(-0.00141536 0.00109364 0)
(-0.00187623 0.00131184 0)
(-0.00240514 0.00152456 0)
(-0.00300011 0.00172891 0)
(-0.00365836 0.0019227 0)
(-0.00437651 0.00210428 0)
(-0.00515067 0.00227241 0)
(-0.00597657 0.00242623 0)
(-0.00684964 0.00256509 0)
(-0.00776511 0.00268862 0)
(-0.00871804 0.00279656 0)
(-0.0097034 0.00288884 0)
(-0.0107161 0.00296548 0)
(-0.0117511 0.0030266 0)
(-0.0128033 0.0030724 0)
(-0.0138676 0.00310315 0)
(-0.0149392 0.00311916 0)
(-0.0160131 0.00312078 0)
(-0.0170846 0.00310842 0)
(-0.0181491 0.0030825 0)
(-0.0192021 0.00304345 0)
(-0.0202391 0.00299176 0)
(-0.0212561 0.00292789 0)
(-0.0222489 0.00285235 0)
(-0.0232136 0.00276566 0)
(-0.0241466 0.00266832 0)
(-0.0250443 0.00256086 0)
(-0.0259034 0.00244383 0)
(-0.0267206 0.00231778 0)
(-0.027493 0.00218324 0)
(-0.0282177 0.00204078 0)
(-0.0288922 0.00189096 0)
(-0.029514 0.00173434 0)
(-0.0300809 0.0015715 0)
(-0.0305909 0.00140301 0)
(-0.031042 0.00122946 0)
(-0.0314328 0.00105144 0)
(-0.0317618 0.000869549 0)
(-0.0320277 0.000684389 0)
(-0.0322296 0.000496572 0)
(-0.0323667 0.00030672 0)
(-0.0324383 0.00011546 0)
(-0.0324442 -7.65777e-05 0)
(-0.0323841 -0.000268749 0)
(-0.0322582 -0.000460403 0)
(-0.0320668 -0.000650881 0)
(-0.0318104 -0.000839518 0)
(-0.0314898 -0.00102564 0)
(-0.031106 -0.00120856 0)
(-0.0306602 -0.00138759 0)
(-0.0301538 -0.00156204 0)
(-0.0295886 -0.00173122 0)
(-0.0289665 -0.00189443 0)
(-0.0282897 -0.00205097 0)
(-0.0275606 -0.00220014 0)
(-0.0267818 -0.00234126 0)
(-0.0259562 -0.00247362 0)
(-0.0250868 -0.00259657 0)
(-0.0241771 -0.00270941 0)
(-0.0232305 -0.00281151 0)
(-0.0222508 -0.00290221 0)
(-0.0212419 -0.0029809 0)
(-0.0202081 -0.00304698 0)
(-0.0191537 -0.00309989 0)
(-0.0180831 -0.00313909 0)
(-0.0170011 -0.00316408 0)
(-0.0159125 -0.00317441 0)
(-0.0148224 -0.00316965 0)
(-0.0137356 -0.00314945 0)
(-0.0126576 -0.00311352 0)
(-0.0115934 -0.00306161 0)
(-0.0105484 -0.00299358 0)
(-0.00952793 -0.00290934 0)
(-0.00853721 -0.00280894 0)
(-0.00758148 -0.00269252 0)
(-0.00666587 -0.00256035 0)
(-0.00579531 -0.00241287 0)
(-0.00497457 -0.00225071 0)
(-0.0042081 -0.00207473 0)
(-0.00350001 -0.00188604 0)
(-0.00285391 -0.00168611 0)
(-0.0022729 -0.00147683 0)
(-0.00175935 -0.00126062 0)
(-0.00131482 -0.00104056 0)
(-0.000939828 -0.000820585 0)
(-0.000633722 -0.000605714 0)
(-0.000394426 -0.000402326 0)
(-0.000218229 -0.000218539 0)
(-9.95253e-05 -6.46499e-05 0)
(-3.04954e-05 4.64326e-05 0)
(-7.14353e-07 9.85253e-05 0)
(2.9152e-06 6.96442e-05 0)
(-1.02276e-06 -5.85897e-05 0)
(-2.36858e-05 -4.87369e-05 0)
(-9.20411e-05 5.4859e-05 0)
(-0.000214367 0.000227202 0)
(-0.000398649 0.000449084 0)
(-0.000651451 0.000704967 0)
(-0.000977249 0.000982411 0)
(-0.00137875 0.00127153 0)
(-0.00185711 0.00156452 0)
(-0.00241218 0.00185523 0)
(-0.00304267 0.00213882 0)
(-0.0037463 0.00241153 0)
(-0.00452 0.00267043 0)
(-0.00536004 0.0029133 0)
(-0.00626212 0.00313844 0)
(-0.00722154 0.0033446 0)
(-0.00823326 0.00353088 0)
(-0.00929198 0.00369667 0)
(-0.0103922 0.00384161 0)
(-0.0115284 0.00396553 0)
(-0.0126948 0.0040684 0)
(-0.0138858 0.00415036 0)
(-0.0150957 0.00421162 0)
(-0.0163188 0.00425252 0)
(-0.0175495 0.00427343 0)
(-0.0187824 0.00427483 0)
(-0.0200121 0.00425723 0)
(-0.0212333 0.00422117 0)
(-0.022441 0.00416725 0)
(-0.0236301 0.0040961 0)
(-0.024796 0.00400835 0)
(-0.025934 0.00390469 0)
(-0.0270396 0.00378578 0)
(-0.0281088 0.00365235 0)
(-0.0291373 0.0035051 0)
(-0.0301215 0.00334477 0)
(-0.0310576 0.00317209 0)
(-0.0319423 0.00298783 0)
(-0.0327724 0.00279273 0)
(-0.0335448 0.00258756 0)
(-0.0342568 0.00237309 0)
(-0.0349059 0.00215012 0)
(-0.0354898 0.00191943 0)
(-0.0360062 0.00168182 0)
(-0.0364535 0.00143811 0)
(-0.03683 0.00118911 0)
(-0.0371343 0.000935649 0)
(-0.0373652 0.000678572 0)
(-0.0375219 0.000418725 0)
(-0.0376036 0.000156965 0)
(-0.0376101 -0.000105835 0)
(-0.037541 -0.000368796 0)
(-0.0373967 -0.000631026 0)
(-0.0371773 -0.000891625 0)
(-0.0368835 -0.00114968 0)
(-0.0365162 -0.00140427 0)
(-0.0360766 -0.00165446 0)
(-0.035566 -0.00189931 0)
(-0.0349861 -0.00213789 0)
(-0.0343389 -0.00236924 0)
(-0.0336266 -0.00259242 0)
(-0.0328516 -0.00280647 0)
(-0.0320167 -0.00301045 0)
(-0.0311249 -0.00320342 0)
(-0.0301795 -0.00338444 0)
(-0.029184 -0.00355259 0)
(-0.0281421 -0.00370697 0)
(-0.027058 -0.00384669 0)
(-0.0259359 -0.00397089 0)
(-0.0247802 -0.00407873 0)
(-0.0235957 -0.00416941 0)
(-0.0223873 -0.00424217 0)
(-0.0211602 -0.0042963 0)
(-0.0199196 -0.00433113 0)
(-0.018671 -0.00434605 0)
(-0.0174201 -0.00434052 0)
(-0.0161726 -0.00431408 0)
(-0.0149342 -0.00426635 0)
(-0.013711 -0.00419703 0)
(-0.0125088 -0.00410594 0)
(-0.0113336 -0.00399303 0)
(-0.0101913 -0.00385837 0)
(-0.00908778 -0.0037022 0)
(-0.00802868 -0.00352496 0)
(-0.00701953 -0.00332727 0)
(-0.00606559 -0.00311004 0)
(-0.0051718 -0.00287447 0)
(-0.00434268 -0.00262212 0)
(-0.00358225 -0.002355 0)
(-0.00289392 -0.00207565 0)
(-0.00228034 -0.00178728 0)
(-0.00174332 -0.00149393 0)
(-0.0012836 -0.00120065 0)
(-0.00090077 -0.000913747 0)
(-0.000593015 -0.000641121 0)
(-0.000356996 -0.000392606 0)
(-0.00018759 -0.000180452 0)
(-7.76131e-05 -1.97614e-05 0)
(-1.83064e-05 7.08066e-05 0)
(-8.92073e-08 6.62724e-05 0)
(-4.19599e-06 -4.28759e-05 0)
(-4.28448e-05 1.09371e-05 0)
(-0.000143896 0.000169216 0)
(-0.000311514 0.00040502 0)
(-0.000551489 0.000697172 0)
(-0.000869405 0.00102831 0)
(-0.00126893 0.00138425 0)
(-0.0017521 0.00175358 0)
(-0.00231959 0.00212709 0)
(-0.00297084 0.00249743 0)
(-0.00370419 0.00285871 0)
(-0.00451701 0.00320627 0)
(-0.0054059 0.00353646 0)
(-0.00636674 0.00384642 0)
(-0.00739487 0.00413395 0)
(-0.00848516 0.00439739 0)
(-0.00963214 0.00463557 0)
(-0.01083 0.00484761 0)
(-0.0120729 0.00503301 0)
(-0.0133546 0.00519147 0)
(-0.0146689 0.00532292 0)
(-0.0160096 0.00542747 0)
(-0.0173705 0.00550537 0)
(-0.0187453 0.00555699 0)
(-0.0201279 0.00558281 0)
(-0.0215122 0.00558338 0)
(-0.0228923 0.00555934 0)
(-0.0242625 0.00551139 0)
(-0.025617 0.00544028 0)
(-0.0269504 0.00534679 0)
(-0.0282574 0.00523175 0)
(-0.0295328 0.00509601 0)
(-0.0307718 0.00494047 0)
(-0.0319697 0.00476602 0)
(-0.0331219 0.0045736 0)
(-0.0342243 0.00436415 0)
(-0.0352728 0.00413862 0)
(-0.0362635 0.003898 0)
(-0.0371929 0.00364327 0)
(-0.0380578 0.00337542 0)
(-0.0388549 0.00309546 0)
(-0.0395815 0.00280443 0)
(-0.040235 0.00250334 0)
(-0.040813 0.00219325 0)
(-0.0413136 0.00187521 0)
(-0.0417348 0.00155029 0)
(-0.0420753 0.00121957 0)
(-0.0423335 0.000884157 0)
(-0.0425087 0.000545149 0)
(-0.0426001 0.00020367 0)
(-0.0426071 -0.000139143 0)
(-0.0425297 -0.000482142 0)
(-0.0423679 -0.000824166 0)
(-0.0421222 -0.00116404 0)
(-0.0417933 -0.00150057 0)
(-0.0413821 -0.00183256 0)
(-0.04089 -0.00215879 0)
(-0.0403184 -0.00247806 0)
(-0.0396693 -0.00278913 0)
(-0.0389448 -0.00309077 0)
(-0.0381475 -0.00338176 0)
(-0.03728 -0.00366085 0)
(-0.0363454 -0.00392683 0)
(-0.0353471 -0.00417847 0)
(-0.0342886 -0.00441456 0)
(-0.033174 -0.00463393 0)
(-0.0320075 -0.00483539 0)
(-0.0307934 -0.0050178 0)
(-0.0295365 -0.00518006 0)
(-0.0282419 -0.00532109 0)
(-0.0269147 -0.00543986 0)
(-0.0255605 -0.00553541 0)
(-0.0241848 -0.00560682 0)
(-0.0227936 -0.00565324 0)
(-0.0213929 -0.00567391 0)
(-0.0199888 -0.00566815 0)
(-0.0185878 -0.00563537 0)
(-0.0171963 -0.00557513 0)
(-0.0158207 -0.00548706 0)
(-0.0144676 -0.00537097 0)
(-0.0131435 -0.00522684 0)
(-0.0118549 -0.00505479 0)
(-0.0106082 -0.00485518 0)
(-0.00940955 -0.00462863 0)
(-0.00826503 -0.00437599 0)
(-0.00718035 -0.00409847 0)
(-0.00616091 -0.00379767 0)
(-0.00521164 -0.00347561 0)
(-0.00433692 -0.0031349 0)
(-0.00354051 -0.00277876 0)
(-0.00282541 -0.00241124 0)
(-0.00219372 -0.00203731 0)
(-0.00164654 -0.00166314 0)
(-0.00118379 -0.0012963 0)
(-0.000804135 -0.000946102 0)
(-0.000504807 -0.000623959 0)
(-0.000281407 -0.000343844 0)
(-0.000127658 -0.000122724 0)
(-3.68006e-05 1.87662e-05 0)
(-3.16276e-06 5.35003e-05 0)
(-7.32797e-06 -1.72205e-05 0)
(-6.22338e-05 9.68395e-05 0)
(-0.000196933 0.000323427 0)
(-0.000411361 0.000634339 0)
(-0.000708984 0.00100696 0)
(-0.00109418 0.00142241 0)
(-0.00156964 0.00186509 0)
(-0.0021366 0.0023222 0)
(-0.00279507 0.00278328 0)
(-0.00354395 0.00323984 0)
(-0.00438112 0.00368502 0)
(-0.00530355 0.00411327 0)
(-0.00630742 0.00452019 0)
(-0.00738823 0.00490231 0)
(-0.00854093 0.0052569 0)
(-0.00975998 0.00558191 0)
(-0.0110395 0.00587579 0)
(-0.0123732 0.00613746 0)
(-0.0137548 0.00636619 0)
(-0.0151776 0.00656157 0)
(-0.016635 0.00672347 0)
(-0.0181201 0.00685196 0)
(-0.0196263 0.00694731 0)
(-0.0211468 0.00700994 0)
(-0.022675 0.00704039 0)
(-0.0242043 0.00703934 0)
(-0.0257283 0.00700755 0)
(-0.0272407 0.00694586 0)
(-0.0287352 0.00685519 0)
(-0.0302061 0.00673649 0)
(-0.0316473 0.0065908 0)
(-0.0330535 0.00641917 0)
(-0.0344193 0.00622269 0)
(-0.0357394 0.0060025 0)
(-0.0370091 0.00575974 0)
(-0.0382236 0.00549561 0)
(-0.0393785 0.00521129 0)
(-0.0404697 0.00490801 0)
(-0.0414934 0.004587 0)
(-0.0424457 0.00424952 0)
(-0.0433234 0.00389684 0)
(-0.0441234 0.00353023 0)
(-0.0448429 0.00315099 0)
(-0.0454792 0.00276045 0)
(-0.0460302 0.00235993 0)
(-0.0464939 0.00195078 0)
(-0.0468685 0.00153436 0)
(-0.0471528 0.00111204 0)
(-0.0473455 0.000685232 0)
(-0.047446 0.000255339 0)
(-0.0474536 -0.00017621 0)
(-0.0473684 -0.000607968 0)
(-0.0471903 -0.00103848 0)
(-0.0469198 -0.00146625 0)
(-0.0465578 -0.0018898 0)
(-0.0461052 -0.00230762 0)
(-0.0455634 -0.00271819 0)
(-0.0449343 -0.00311998 0)
(-0.0442199 -0.00351146 0)
(-0.0434224 -0.00389108 0)
(-0.0425447 -0.00425729 0)
(-0.0415897 -0.00460857 0)
(-0.0405608 -0.00494337 0)
(-0.0394616 -0.00526018 0)
(-0.0382962 -0.00555747 0)
(-0.0370688 -0.00583378 0)
(-0.0357839 -0.00608765 0)
(-0.0344465 -0.00631764 0)
(-0.0330618 -0.00652238 0)
(-0.0316351 -0.00670055 0)
(-0.0301722 -0.00685087 0)
(-0.028679 -0.00697213 0)
(-0.0271616 -0.00706322 0)
(-0.0256266 -0.00712309 0)
(-0.0240804 -0.00715082 0)
(-0.0225298 -0.00714557 0)
(-0.0209816 -0.00710665 0)
(-0.0194428 -0.00703351 0)
(-0.0179205 -0.00692575 0)
(-0.0164217 -0.00678317 0)
(-0.0149535 -0.00660576 0)
(-0.0135228 -0.00639374 0)
(-0.0121366 -0.00614761 0)
(-0.0108016 -0.00586815 0)
(-0.00952426 -0.00555649 0)
(-0.00831077 -0.00521418 0)
(-0.00716695 -0.00484322 0)
(-0.00609813 -0.00444614 0)
(-0.00510911 -0.00402615 0)
(-0.004204 -0.00358718 0)
(-0.0033862 -0.00313409 0)
(-0.00265819 -0.00267281 0)
(-0.00202151 -0.00221058 0)
(-0.00147658 -0.00175614 0)
(-0.00102264 -0.00132011 0)
(-0.00065769 -0.000915317 0)
(-0.000378223 -0.000557205 0)
(-0.000179048 -0.000264264 0)
(-5.55899e-05 -5.86384e-05 0)
(-6.20656e-06 3.11029e-05 0)
(-1.03782e-05 1.83424e-05 0)
(-8.15047e-05 0.000209295 0)
(-0.000250152 0.000518288 0)
(-0.00051208 0.0009164 0)
(-0.000868374 0.00137997 0)
(-0.00132212 0.001889 0)
(-0.0018749 0.00242666 0)
(-0.002527 0.00297899 0)
(-0.00327767 0.00353444 0)
(-0.00412517 0.00408349 0)
(-0.00506682 0.00461832 0)
(-0.00609912 0.00513259 0)
(-0.00721778 0.00562117 0)
(-0.00841789 0.00607995 0)
(-0.00969397 0.00650572 0)
(-0.0110401 0.00689598 0)
(-0.0124499 0.00724884 0)
(-0.0139168 0.00756296 0)
(-0.0154339 0.0078374 0)
(-0.0169942 0.00807164 0)
(-0.0185905 0.00826544 0)
(-0.0202156 0.00841884 0)
(-0.0218624 0.00853212 0)
(-0.0235236 0.00860575 0)
(-0.0251922 0.00864035 0)
(-0.026861 0.0086367 0)
(-0.0285231 0.00859569 0)
(-0.0301719 0.00851832 0)
(-0.0318007 0.00840567 0)
(-0.033403 0.0082589 0)
(-0.0349727 0.00807923 0)
(-0.0365038 0.00786794 0)
(-0.0379905 0.00762635 0)
(-0.0394273 0.00735583 0)
(-0.0408088 0.00705777 0)
(-0.0421302 0.00673362 0)
(-0.0433865 0.00638481 0)
(-0.0445734 0.00601285 0)
(-0.0456867 0.00561924 0)
(-0.0467223 0.0052055 0)
(-0.0476767 0.00477319 0)
(-0.0485464 0.00432387 0)
(-0.0493286 0.00385914 0)
(-0.0500204 0.00338059 0)
(-0.0506193 0.00288986 0)
(-0.0511233 0.0023886 0)
(-0.0515306 0.00187846 0)
(-0.0518396 0.00136115 0)
(-0.0520491 0.000838355 0)
(-0.0521583 0.000311815 0)
(-0.0521668 -0.000216725 0)
(-0.0520742 -0.000745496 0)
(-0.0518808 -0.00127271 0)
(-0.0515869 -0.00179657 0)
(-0.0511936 -0.00231523 0)
(-0.0507018 -0.00282687 0)
(-0.0501132 -0.00332963 0)
(-0.0494296 -0.00382165 0)
(-0.0486532 -0.00430105 0)
(-0.0477866 -0.00476595 0)
(-0.0468327 -0.00521447 0)
(-0.0457947 -0.00564474 0)
(-0.0446762 -0.00605489 0)
(-0.0434812 -0.00644307 0)
(-0.042214 -0.00680745 0)
(-0.0408792 -0.00714623 0)
(-0.0394817 -0.00745764 0)
(-0.0380268 -0.00773996 0)
(-0.03652 -0.00799152 0)
(-0.0349673 -0.00821071 0)
(-0.0333746 -0.008396 0)
(-0.0317484 -0.00854594 0)
(-0.0300954 -0.00865919 0)
(-0.0284223 -0.00873449 0)
(-0.0267363 -0.00877075 0)
(-0.0250445 -0.00876697 0)
(-0.0233544 -0.00872235 0)
(-0.0216734 -0.00863624 0)
(-0.020009 -0.00850821 0)
(-0.0183688 -0.00833803 0)
(-0.0167603 -0.00812574 0)
(-0.015191 -0.00787166 0)
(-0.0136684 -0.00757641 0)
(-0.0121995 -0.007241 0)
(-0.0107913 -0.00686684 0)
(-0.00945052 -0.0064558 0)
(-0.00818327 -0.00601033 0)
(-0.00699536 -0.00553348 0)
(-0.00589199 -0.00502904 0)
(-0.0048777 -0.00450168 0)
(-0.00395632 -0.00395705 0)
(-0.00313082 -0.003402 0)
(-0.00240323 -0.00284474 0)
(-0.00177458 -0.00229515 0)
(-0.00124483 -0.00176501 0)
(-0.000812847 -0.00126836 0)
(-0.000476154 -0.000821887 0)
(-0.000230753 -0.000445291 0)
(-7.43092e-05 -0.000161808 0)
(-9.17231e-06 -9.12307e-07 0)
(-1.33216e-05 6.36543e-05 0)
(-0.00010046 0.000348224 0)
(-0.000302922 0.000753994 0)
(-0.000612452 0.00125168 0)
(-0.00102778 0.00181697 0)
(-0.00155065 0.00242898 0)
(-0.00218146 0.00306996 0)
(-0.00291946 0.00372495 0)
(-0.00376305 0.00438145 0)
(-0.00470976 0.00502901 0)
(-0.00575628 0.00565898 0)
(-0.00689855 0.00626424 0)
(-0.00813179 0.00683898 0)
(-0.00945061 0.00737851 0)
(-0.0108491 0.00787911 0)
(-0.0123209 0.00833785 0)
(-0.0138592 0.00875251 0)
(-0.015457 0.00912146 0)
(-0.017107 0.00944358 0)
(-0.0188018 0.00971819 0)
(-0.0205337 0.00994497 0)
(-0.0222952 0.0101239 0)
(-0.0240786 0.0102553 0)
(-0.0258763 0.0103397 0)
(-0.0276806 0.0103777 0)
(-0.0294843 0.0103703 0)
(-0.0312798 0.0103185 0)
(-0.03306 0.0102234 0)
(-0.034818 0.0100863 0)
(-0.0365468 0.00990856 0)
(-0.0382399 0.00969161 0)
(-0.0398908 0.00943696 0)
(-0.0414935 0.00914617 0)
(-0.043042 0.00882085 0)
(-0.0445307 0.00846267 0)
(-0.0459543 0.00807333 0)
(-0.0473077 0.00765456 0)
(-0.048586 0.00720814 0)
(-0.0497849 0.00673585 0)
(-0.0509001 0.00623952 0)
(-0.0519277 0.00572101 0)
(-0.0528641 0.00518218 0)
(-0.0537062 0.00462493 0)
(-0.0544509 0.00405119 0)
(-0.0550957 0.0034629 0)
(-0.0556383 0.00286203 0)
(-0.0560767 0.00225058 0)
(-0.0564094 0.00163056 0)
(-0.0566351 0.00100402 0)
(-0.0567529 0.000373016 0)
(-0.0567622 -0.000260355 0)
(-0.0566629 -0.000893981 0)
(-0.056455 -0.00152572 0)
(-0.0561392 -0.00215343 0)
(-0.0557162 -0.00277491 0)
(-0.0551873 -0.00338797 0)
(-0.0545543 -0.00399041 0)
(-0.0538189 -0.00457999 0)
(-0.0529837 -0.00515448 0)
(-0.0520513 -0.00571164 0)
(-0.0510248 -0.00624923 0)
(-0.0499077 -0.00676503 0)
(-0.0487039 -0.0072568 0)
(-0.0474175 -0.00772234 0)
(-0.0460532 -0.00815949 0)
(-0.0446158 -0.00856609 0)
(-0.0431106 -0.00894006 0)
(-0.0415432 -0.00927934 0)
(-0.0399195 -0.00958197 0)
(-0.0382457 -0.00984604 0)
(-0.0365284 -0.0100697 0)
(-0.0347743 -0.0102514 0)
(-0.0329906 -0.0103893 0)