/*--------------------------------*- C++ -*----------------------------------*\
  =========                 |
  \\      /  F ield         | OpenFOAM: The Open Source CFD Toolbox
   \\    /   O peration     | Website:  https://openfoam.org
    \\  /    A nd           | Version:  11
     \\/     M anipulation  |
\*---------------------------------------------------------------------------*/
FoamFile
{
    format      ascii;
    class       surfaceScalarField;
    location    "1.4";
    object      phi;
}
// * * * * * * * * * * * * * * * * * * * * * * * * * * * * * * * * * * * * * //

dimensions      [0 3 -1 0 0 0 0];

internalField   nonuniform List<scalar> 
19980
(
6.85927e-07
-6.85512e-07
4.16665e-06
-3.4809e-06
1.00581e-05
-5.89118e-06
1.65079e-05
-6.44998e-06
2.19768e-05
-5.46891e-06
2.58136e-05
-3.83682e-06
2.77236e-05
-1.90983e-06
2.77123e-05
1.11282e-08
2.59124e-05
1.80004e-06
2.24978e-05
3.4145e-06
1.7654e-05
4.8439e-06
1.15753e-05
6.07867e-06
4.48537e-06
7.08992e-06
-3.4522e-06
7.93757e-06
-1.20971e-05
8.64487e-06
-2.13053e-05
9.20823e-06
-3.09481e-05
9.64292e-06
-4.08698e-05
9.92178e-06
-5.09413e-05
1.00715e-05
-6.10668e-05
1.01255e-05
-7.11509e-05
1.00841e-05
-8.10864e-05
9.93539e-06
-9.08345e-05
9.74813e-06
-0.000100355
9.52028e-06
-0.000109595
9.23999e-06
-0.00011853
8.9354e-06
-0.000127146
8.61567e-06
-0.000135418
8.27234e-06
-0.000143338
7.91937e-06
-0.000150917
7.5791e-06
-0.000158164
7.24699e-06
-0.000165078
6.91367e-06
-0.000171658
6.58058e-06
-0.000177905
6.2468e-06
-0.000183811
5.90604e-06
-0.000189362
5.55149e-06
-0.000194552
5.18984e-06
-0.000199382
4.82979e-06
-0.00020385
4.46862e-06
-0.000207956
4.10549e-06
-0.000211703
3.74667e-06
-0.0002151
3.39739e-06
-0.000218151
3.05144e-06
-0.000220845
2.69328e-06
-0.000223164
2.31963e-06
-0.000225104
1.94019e-06
-0.000226662
1.55758e-06
-0.000227834
1.17161e-06
-0.000228623
7.89252e-07
-0.000229034
4.11347e-07
-0.000229062
2.83305e-08
-0.000228698
-3.64027e-07
-0.000227934
-7.64586e-07
-0.000226758
-1.17595e-06
-0.000225163
-1.59478e-06
-0.000223158
-2.0047e-06
-0.000220761
-2.39713e-06
-0.000217976
-2.78487e-06
-0.000214795
-3.18117e-06
-0.000211213
-3.58163e-06
-0.000207235
-3.9779e-06
-0.000202864
-4.37176e-06
-0.000198101
-4.76289e-06
-0.000192964
-5.13642e-06
-0.000187489
-5.47541e-06
-0.000181712
-5.77681e-06
-0.000175665
-6.0466e-06
-0.000169377
-6.28794e-06
-0.000162874
-6.50294e-06
-0.000156175
-6.69903e-06
-0.000149292
-6.88328e-06
-0.000142239
-7.0526e-06
-0.000135042
-7.19772e-06
-0.000127726
-7.316e-06
-0.000120312
-7.414e-06
-0.000112814
-7.49719e-06
-0.000105252
-7.5629e-06
-9.76461e-05
-7.60543e-06
-9.00227e-05
-7.62336e-06
-8.24053e-05
-7.61746e-06
-7.48224e-05
-7.58295e-06
-6.73129e-05
-7.50942e-06
-5.99239e-05
-7.38901e-06
-5.27042e-05
-7.21977e-06
-4.57036e-05
-7.00045e-06
-3.89764e-05
-6.72722e-06
-3.25808e-05
-6.39556e-06
-2.6576e-05
-6.0048e-06
-2.10155e-05
-5.56047e-06
-1.59498e-05
-5.06571e-06
-1.14357e-05
-4.51412e-06
-7.53595e-06
-3.89973e-06
-4.31172e-06
-3.22418e-06
-1.8135e-06
-2.49819e-06
-6.66246e-08
-1.74686e-06
9.33978e-07
-1.00059e-06
1.23221e-06
-2.98215e-07
9.56205e-07
2.75972e-07
3.92274e-07
5.63868e-07
3.92239e-07
-1.04068e-06
3.55009e-07
5.27153e-07
-5.04877e-06
5.50886e-06
-1.08729e-05
1.11015e-05
-1.20424e-05
1.53415e-05
-9.70889e-06
1.70266e-05
-5.52195e-06
1.5692e-05
-5.75315e-07
1.11431e-05
4.5601e-06
3.4836e-06
9.45935e-06
-7.11e-06
1.40082e-05
-2.03582e-05
1.8092e-05
-3.59681e-05
2.16886e-05
-5.367e-05
2.47918e-05
-7.31647e-05
2.74323e-05
-9.41721e-05
2.96521e-05
-0.000116409
3.14456e-05
-0.000139648
3.2881e-05
-0.00016362
3.38939e-05
-0.000188122
3.45731e-05
-0.000212928
3.49316e-05
-0.000237851
3.50073e-05
-0.000262746
3.48311e-05
-0.000287457
3.44591e-05
-0.000311843
3.39062e-05
-0.00033581
3.32064e-05
-0.00035927
3.23953e-05
-0.000382132
3.14781e-05
-0.000404333
3.04734e-05
-0.00042583
2.9416e-05
-0.000446575
2.83247e-05
-0.000466527
2.71991e-05
-0.000485654
2.60409e-05
-0.000503933
2.48596e-05
-0.000521335
2.36483e-05
-0.000537824
2.23947e-05
-0.000553376
2.11031e-05
-0.000567973
1.97873e-05
-0.000581594
1.84508e-05
-0.000594217
1.7092e-05
-0.000605833
1.57213e-05
-0.000616435
1.43483e-05
-0.000626009
1.29712e-05
-0.000634542
1.15839e-05
-0.000642022
1.01735e-05
-0.000648432
8.73024e-06
-0.000653757
7.26452e-06
-0.000657989
5.78986e-06
-0.000661124
4.30642e-06
-0.00066315
2.81583e-06
-0.000664064
1.32494e-06
-0.000663865
-1.70999e-07
-0.000662542
-1.68694e-06
-0.000660078
-3.2285e-06
-0.000656469
-4.78469e-06
-0.000651726
-6.33787e-06
-0.000645856
-7.87507e-06
-0.00063886
-9.39298e-06
-0.000630749
-1.0896e-05
-0.00062154
-1.23899e-05
-0.000611245
-1.38763e-05
-0.000599872
-1.53514e-05
-0.000587439
-1.68048e-05
-0.000573982
-1.82194e-05
-0.000559545
-1.95742e-05
-0.00054417
-2.085e-05
-0.000527911
-2.20358e-05
-0.000510828
-2.31296e-05
-0.00049298
-2.41366e-05
-0.000474417
-2.50656e-05
-0.000455192
-2.59238e-05
-0.000435364
-2.6711e-05
-0.000414997
-2.74203e-05
-0.00039415
-2.80446e-05
-0.000372884
-2.85815e-05
-0.000351267
-2.9031e-05
-0.000329374
-2.93902e-05
-0.000307284
-2.96537e-05
-0.000285074
-2.98154e-05
-0.000262829
-2.98682e-05
-0.000240646
-2.98003e-05
-0.000218634
-2.95946e-05
-0.00019691
-2.92336e-05
-0.000175594
-2.87054e-05
-0.000154813
-2.8001e-05
-0.000134705
-2.71078e-05
-0.000115421
-2.60119e-05
-9.71127e-05
-2.47035e-05
-7.99374e-05
-2.31801e-05
-6.40507e-05
-2.14471e-05
-4.96051e-05
-1.95112e-05
-3.67485e-05
-1.73707e-05
-2.56212e-05
-1.5027e-05
-1.63485e-05
-1.2497e-05
-9.02844e-06
-9.81823e-06
-3.71076e-06
-7.06455e-06
-3.58841e-07
-4.35251e-06
1.19691e-06
-1.85392e-06
1.32569e-06
1.47249e-07
6.52355e-07
1.23723e-06
1.04461e-06
-3.90693e-06
4.2622e-06
-7.51202e-06
-1.4437e-06
-8.43698e-06
-9.94802e-06
-9.13144e-06
-1.13481e-05
-1.14731e-05
-7.36754e-06
-1.64406e-05
-5.54375e-07
-2.46139e-05
7.59799e-06
-3.61945e-05
1.61407e-05
-5.12168e-05
2.44818e-05
-6.95331e-05
3.23244e-05
-9.09524e-05
3.95113e-05
-0.000115225
4.59609e-05
-0.000142056
5.16235e-05
-0.000171133
5.65092e-05
-0.000202183
6.07014e-05
-0.000234893
6.41559e-05
-0.00026895
6.69389e-05
-0.000304122
6.9066e-05
-0.000340114
7.0564e-05
-0.000376702
7.152e-05
-0.000413644
7.19495e-05
-0.000450727
7.19141e-05
-0.000487757
7.14886e-05
-0.000524557
7.07063e-05
-0.000560956
6.96057e-05
-0.000596798
6.82367e-05
-0.000631949
6.66298e-05
-0.000666294
6.4818e-05
-0.000699717
6.28395e-05
-0.000732111
6.07187e-05
-0.000763391
5.84783e-05
-0.00079348
5.61301e-05
-0.000822299
5.36788e-05
-0.000849783
5.11325e-05
-0.000875881
4.84925e-05
-0.000900543
4.57652e-05
-0.000923721
4.29658e-05
-0.000945373
4.01025e-05
-0.000965462
3.71808e-05
-0.000983953
3.42127e-05
-0.00100081
3.12105e-05
-0.00101602
2.81765e-05
-0.00102954
2.51028e-05
-0.00104135
2.19817e-05
-0.00105143
1.88165e-05
-0.00105978
1.56142e-05
-0.00106637
1.23779e-05
-0.00107118
9.1168e-06
-0.00107421
5.84461e-06
-0.00107545
2.56126e-06
-0.00107487
-7.432e-07
-0.00107249
-4.06934e-06
-0.00106831
-7.41175e-06
-0.00106233
-1.07668e-05
-0.00105454
-1.41205e-05
-0.00104497
-1.74484e-05
-0.00103362
-2.07389e-05
-0.00102052
-2.4e-05
-0.00100567
-2.7235e-05
-0.000989119
-3.04317e-05
-0.000970895
-3.35757e-05
-0.000951042
-3.66581e-05
-0.000929599
-3.96617e-05
-0.000906618
-4.25559e-05
-0.000882155
-4.53121e-05
-0.000856275
-4.79166e-05
-0.000829038
-5.03662e-05
-0.000800516
-5.26585e-05
-0.000770791
-5.4791e-05
-0.000739951
-5.67637e-05
-0.000708088
-5.85738e-05
-0.000675297
-6.02112e-05
-0.00064168
-6.16615e-05
-0.000607348
-6.29137e-05
-0.000572419
-6.396e-05
-0.000537019
-6.47901e-05
-0.000501284
-6.53889e-05
-0.00046536
-6.57396e-05
-0.000429404
-6.58242e-05
-0.000393582
-6.56215e-05
-0.000358071
-6.5106e-05
-0.000323053
-6.42512e-05
-0.000288725
-6.30335e-05
-0.000255294
-6.14325e-05
-0.000222976
-5.94259e-05
-0.000191996
-5.69919e-05
-0.000162584
-5.41153e-05
-0.000134974
-5.07893e-05
-0.000109405
-4.70167e-05
-8.61092e-05
-4.28069e-05
-6.53108e-05
-3.81691e-05
-4.72126e-05
-3.31251e-05
-3.19849e-05
-2.77246e-05
-1.97469e-05
-2.20563e-05
-1.054e-05
-1.62715e-05
-4.28934e-06
-1.06032e-05
-7.41738e-07
-5.40157e-06
6.00017e-07
-1.19459e-06
5.21169e-07
1.31613e-06
1.56577e-06
-5.63312e-06
9.89517e-06
-1.28982e-05
5.82145e-06
-1.87743e-05
-4.07199e-06
-2.51999e-05
-4.92219e-06
-3.37693e-05
1.20196e-06
-4.53849e-05
1.10612e-05
-6.05008e-05
2.27141e-05
-7.93148e-05
3.49545e-05
-0.000101893
4.70602e-05
-0.000128106
5.85375e-05
-0.00015779
6.91952e-05
-0.000190694
7.88643e-05
-0.000226533
8.74626e-05
-0.000265048
9.50248e-05
-0.000305837
0.00010149
-0.000348643
0.000106962
-0.000393114
0.000111409
-0.000438968
0.00011492
-0.000485896
0.000117492
-0.000533617
0.000119241
-0.000581864
0.000120197
-0.000630388
0.000120437
-0.000678927
0.000120028
-0.000727254
0.000119034
-0.000775168
0.000117519
-0.000822466
0.000115536
-0.000868962
0.000113126
-0.000914484
0.000110339
-0.000958877
0.000107232
-0.00100199
0.000103835
-0.00104369
0.000100178
-0.00108386
9.62955e-05
-0.00112239
9.22067e-05
-0.00115918
8.79218e-05
-0.00119414
8.34573e-05
-0.00122721
7.88325e-05
-0.00125831
7.40664e-05
-0.00128738
6.91698e-05
-0.00131435
6.4157e-05
-0.00133919
5.90492e-05
-0.00136183
5.38558e-05
-0.00138224
4.85808e-05
-0.00140037
4.32315e-05
-0.00141619
3.78067e-05
-0.00142968
3.23068e-05
-0.00144081
2.6747e-05
-0.00144958
2.11385e-05
-0.00145594
1.54828e-05
-0.00145989
9.79125e-06
-0.00146141
4.07954e-06
-0.0014605
-1.65172e-06
-0.00145716
-7.40813e-06
-0.00145139
-1.31827e-05
-0.0014432
-1.89573e-05
-0.00143261
-2.47121e-05
-0.00141962
-3.0431e-05
-0.00140426
-3.61029e-05
-0.00138654
-4.17193e-05
-0.00136651
-4.7269e-05
-0.0013442
-5.27375e-05
-0.00131967
-5.81097e-05
-0.00129296
-6.33671e-05
-0.00126413
-6.84833e-05
-0.00123326
-7.34266e-05
-0.00120041
-7.81686e-05
-0.00116564
-8.26878e-05
-0.00112903
-8.69681e-05
-0.0010907
-9.09974e-05
-0.00105072
-9.47667e-05
-0.00100922
-9.82661e-05
-0.000966312
-0.000101479
-0.000922138
-0.000104385
-0.000876838
-0.000106962
-0.000830558
-0.000109193
-0.000783459
-0.000111059
-0.000735715
-0.000112534
-0.000687517
-0.000113587
-0.000639067
-0.00011419
-0.000590577
-0.000114314
-0.000542272
-0.000113926
-0.000494389
-0.000112988
-0.000447179
-0.000111462
-0.0004009
-0.000109312
-0.000355824
-0.000106508
-0.000312234
-0.000103016
-0.00027042
-9.8806e-05
-0.000230678
-9.38578e-05
-0.000193306
-8.81614e-05
-0.000158605
-8.17177e-05
-0.00012687
-7.45418e-05
-9.83783e-05
-6.66606e-05
-7.33775e-05
-5.81259e-05
-5.20661e-05
-4.90361e-05
-3.45738e-05
-3.95485e-05
-2.09396e-05
-2.99057e-05
-1.10701e-05
-2.04726e-05
-4.68611e-06
-1.17856e-05
-1.26621e-06
-4.61452e-06
-1.36223e-08
6.35595e-08
1.55217e-06
-6.19447e-06
1.60896e-05
-1.58428e-05
1.54699e-05
-2.56222e-05
5.70718e-06
-3.70131e-05
6.46879e-06
-5.12834e-05
1.54722e-05
-6.91511e-05
2.89288e-05
-9.09766e-05
4.45395e-05
-0.000116934
6.09123e-05
-0.000146991
7.71164e-05
-0.000181084
9.26312e-05
-0.000218986
0.000107097
-0.00026047
0.000120349
-0.000305254
0.000132247
-0.000352991
0.000142762
-0.000403364
0.000151864
-0.000456013
0.00015961
-0.000510598
0.000165995
-0.000566764
0.000171086
-0.000624208
0.000174937
-0.000682588
0.000177621
-0.000741602
0.000179212
-0.000800953
0.000179788
-0.000860352
0.000179427
-0.000919534
0.000178215
-0.000978238
0.000176223
-0.00103622
0.000173516
-0.00109326
0.000170167
-0.00114916
0.000166239
-0.00120371
0.000161783
-0.00125673
0.000156855
-0.00130806
0.000151505
-0.00135754
0.000145775
-0.00140502
0.000139696
-0.0014504
0.000133297
-0.00149355
0.00012661
-0.00153438
0.000119663
-0.00157279
0.000112478
-0.00160871
0.000105081
-0.00164204
9.74913e-05
-0.00167273
8.97364e-05
-0.00170071
8.18358e-05
-0.00172592
7.37954e-05
-0.00174832
6.56249e-05
-0.00176785
5.73403e-05
-0.0017845
4.89538e-05
-0.00179822
4.04737e-05
-0.00180899
3.19101e-05
-0.00181679
2.32801e-05
-0.0018216
1.46034e-05
-0.00182341
5.89034e-06
-0.00182221
-2.85577e-06
-0.00181799
-1.16235e-05
-0.00181078
-2.03953e-05
-0.00180058
-2.91559e-05
-0.00178741
-3.78862e-05
-0.00177128
-4.65607e-05
-0.00175222
-5.51597e-05
-0.00173027
-6.36708e-05
-0.00170546
-7.20757e-05
-0.00167786
-8.03469e-05
-0.00164751
-8.84596e-05
-0.00161448
-9.63925e-05
-0.00157885
-0.000104117
-0.00154068
-0.000111594
-0.00150006
-0.000118785
-0.00145709
-0.000125661
-0.00141186
-0.000132201
-0.00136447
-0.00013838
-0.00131507
-0.000144175
-0.00126377
-0.000149561
-0.00121074
-0.00015451
-0.00115613
-0.00015899
-0.00110013
-0.000162969
-0.00104291
-0.000166414
-0.000984674
-0.000169292
-0.000925645
-0.000171562
-0.000866053
-0.000173179
-0.000806143
-0.0001741
-0.000746178
-0.00017428
-0.000686433
-0.000173672
-0.000627197
-0.000172224
-0.000568774
-0.000169885
-0.000511481
-0.000166606
-0.000455646
-0.000162343
-0.000401608
-0.000157054
-0.00034971
-0.000150704
-0.000300303
-0.000143265
-0.000253739
-0.000134726
-0.000210367
-0.00012509
-0.000170528
-0.00011438
-0.00013454
-0.000102649
-0.000102679
-8.9987e-05
-7.51682e-05
-7.65463e-05
-5.21557e-05
-6.25609e-05
-3.36906e-05
-4.83707e-05
-1.96884e-05
-3.44748e-05
-9.8878e-06
-2.15862e-05
-3.81123e-06
-1.0691e-05
-7.59725e-07
-2.98796e-06
7.92541e-07
-6.28264e-06
2.23722e-05
-1.74525e-05
2.66397e-05
-3.0572e-05
1.88267e-05
-4.64754e-05
2.23721e-05
-6.61128e-05
3.51094e-05
-8.99999e-05
5.28161e-05
-0.000118378
7.29181e-05
-0.000151296
9.38297e-05
-0.000188765
0.000114585
-0.000230594
0.00013446
-0.000276606
0.000153109
-0.000326498
0.000170241
-0.000379994
0.000185743
-0.000436719
0.000199486
-0.000496361
0.000211506
-0.000558481
0.000221731
-0.000622763
0.000230276
-0.000688802
0.000237125
-0.000756246
0.00024238
-0.000824727
0.000246102
-0.000893907
0.000248392
-0.000963455
0.000249335
-0.00103304
0.000249017
-0.00110237
0.000247539
-0.00117114
0.000244992
-0.00123908
0.000241455
-0.00130592
0.000237015
-0.00137144
0.000231753
-0.00143539
0.000225738
-0.00149758
0.000219042
-0.0015578
0.000211726
-0.00161587
0.000203848
-0.00167164
0.000195457
-0.00172494
0.000186597
-0.00177564
0.000177316
-0.00182363
0.000167651
-0.00186879
0.000157635
-0.00191101
0.000147302
-0.0019502
0.000136689
-0.0019863
0.000125828
-0.0020192
0.000114737
-0.00204884
0.000103438
-0.00207517
9.1958e-05
-0.00209814
8.03115e-05
-0.0021177
6.85139e-05
-0.00213382
5.65879e-05
-0.00214646
4.45512e-05
-0.0021556
3.24198e-05
-0.00216121
2.02187e-05
-0.00216329
7.97045e-06
-0.00216183
-4.31505e-06
-0.00215683
-1.66239e-05
-0.0021483
-2.89301e-05
-0.00213625
-4.12064e-05
-0.00212071
-5.343e-05
-0.00210169
-6.55758e-05
-0.00207923
-7.76176e-05
-0.00205337
-8.9529e-05
-0.00202417
-0.00010128
-0.00199168
-0.000112839
-0.00195596
-0.000124174
-0.0019171
-0.000135256
-0.00187517
-0.000146046
-0.00183027
-0.000156496
-0.00178249
-0.000166562
-0.00173194
-0.00017621
-0.00167874
-0.000185403
-0.00162302
-0.000194103
-0.00156492
-0.000202273
-0.00150461
-0.000209874
-0.00144226
-0.000216862
-0.00137805
-0.000223192
-0.0013122
-0.000228818
-0.00124493
-0.000233691
-0.00117646
-0.000237761
-0.00110705
-0.000240968
-0.00103698
-0.000243253
-0.000966527
-0.000244553
-0.000895996
-0.00024481
-0.000825706
-0.000243962
-0.00075599
-0.00024194
-0.000687199
-0.000238677
-0.000619696
-0.000234109
-0.000553859
-0.00022818
-0.000490071
-0.000220842
-0.000428724
-0.000212051
-0.000370213
-0.000201776
-0.000314935
-0.000190003
-0.000263281
-0.000176744
-0.000215625
-0.000162035
-0.000172317
-0.000145958
-0.000133659
-0.000128644
-9.99029e-05
-0.000110303
-7.1219e-05
-9.12448e-05
-4.76827e-05
-7.1907e-05
-2.92442e-05
-5.29133e-05
-1.56985e-05
-3.51318e-05
-6.65968e-06
-1.97297e-05
-1.58353e-06
-8.06409e-06
-7.90935e-07
-6.05283e-06
2.84252e-05
-1.83861e-05
3.89729e-05
-3.44268e-05
3.48674e-05
-5.45726e-05
4.25182e-05
-7.93548e-05
5.98914e-05
-0.000109059
8.25205e-05
-0.000143812
0.00010767
-0.000183592
0.00013361
-0.000228266
0.000159259
-0.000277686
0.00018388
-0.00033158
0.000207003
-0.000389665
0.000228326
-0.000451602
0.00024768
-0.000517019
0.000264903
-0.000585528
0.000280015
-0.000656754
0.000292957
-0.000730268
0.00030379
-0.000805685
0.000312542
-0.000882596
0.000319292
-0.000960626
0.000324131
-0.00103938
0.000327151
-0.0011185
0.000328449
-0.00119763
0.000328148
-0.00127644
0.000326347
-0.00135459
0.000323146
-0.00143179
0.000318654
-0.00150775
0.000312974
-0.00158219
0.000306198
-0.00165487
0.000298414
-0.00172554
0.000289713
-0.00179399
0.000280176
-0.00186001
0.000269869
-0.00192341
0.000258861
-0.00198403
0.000247217
-0.00204171
0.000234995
-0.00209631
0.000222244
-0.00214769
0.000209013
-0.00219573
0.00019535
-0.00224034
0.000181298
-0.00228141
0.000166899
-0.00231886
0.000152183
-0.0023526
0.00013718
-0.00238257
0.000121925
-0.00240871
0.00010645
-0.00243097
9.07727e-05
-0.0024493
7.49191e-05
-0.00246366
5.89187e-05
-0.00247404
4.27995e-05
-0.00248042
2.65903e-05
-0.00248276
1.0315e-05
-0.00248107
-6.00677e-06
-0.00247535
-2.23473e-05
-0.0024656
-3.86718e-05
-0.00245186
-5.49504e-05
-0.00243413
-7.1156e-05
-0.00241245
-8.7255e-05
-0.00238686
-0.00010321
-0.00235741
-0.000118985
-0.00232414
-0.000134543
-0.00228714
-0.000149843
-0.00224647
-0.000164846
-0.00220221
-0.000179511
-0.00215447
-0.000193788
-0.00210334
-0.000207622
-0.00204894
-0.000220961
-0.0019914
-0.000233758
-0.00193083
-0.000245966
-0.0018674
-0.000257531
-0.00180128
-0.000268399
-0.00173264
-0.000278514
-0.00166168
-0.000287818
-0.00158862
-0.000296252
-0.00151369
-0.000303751
-0.00143713
-0.000310249
-0.00135922
-0.000315677
-0.00128023
-0.000319957
-0.00120047
-0.00032301
-0.00112026
-0.000324758
-0.00103995
-0.000325124
-0.000959883
-0.000324028
-0.000880438
-0.000321385
-0.000802004
-0.000317111
-0.000724984
-0.000311129
-0.000649792
-0.000303371
-0.000576855
-0.000293779
-0.000506603
-0.000282304
-0.000439471
-0.000268907
-0.000375894
-0.000253581
-0.000316294
-0.000236344
-0.000261078
-0.000217251
-0.000210623
-0.000196413
-0.000165263
-0.000174005
-0.000125275
-0.00015029
-9.08679e-05
-0.000125652
-6.21543e-05
-0.00010062
-3.91401e-05
-7.59276e-05
-2.17043e-05
-5.25676e-05
-9.58351e-06
-3.18505e-05
-2.41231e-06
-1.52352e-05
-3.20329e-06
-5.71895e-06
3.4144e-05
-1.89541e-05
5.22082e-05
-3.76777e-05
5.3591e-05
-6.18321e-05
6.66725e-05
-9.15267e-05
8.9586e-05
-0.000126881
0.000117875
-0.000167814
0.000148604
-0.00021424
0.000180035
-0.00026596
0.00021098
-0.000322754
0.000240673
-0.00038431
0.00026856
-0.000450321
0.000294337
-0.000520382
0.00031774
-0.000594174
0.000338695
-0.000671204
0.000357045
-0.000751103
0.000372856
-0.000833406
0.000386093
-0.000917718
0.000396854
-0.0010036
0.000405169
-0.00109062
0.000411152
-0.00117838
0.000414914
-0.00126649
0.000416563
-0.00135457
0.000416222
-0.00144223
0.000414014
-0.00152915
0.000410062
-0.00161499
0.000404491
-0.00169943
0.000397412
-0.00178217
0.000388941
-0.00186295
0.000379191
-0.0019415
0.000368262
-0.00201757
0.000356252
-0.00209095
0.000343251
-0.00216144
0.000329344
-0.00222883
0.000314611
-0.00229296
0.000299124
-0.00235366
0.000282947
-0.00241079
0.000266146
-0.00246423
0.000248783
-0.00251384
0.00023091
-0.00255952
0.000212576
-0.00260116
0.000193827
-0.00263869
0.000174708
-0.00267203
0.000155262
-0.0027011
0.000135523
-0.00272585
0.000115523
-0.00274623
9.53013e-05
-0.00276221
7.48956e-05
-0.00277375
5.43379e-05
-0.00278082
3.36634e-05
-0.00278341
1.29068e-05
-0.00278152
-7.90146e-06
-0.00277514
-2.87253e-05
-0.00276429
-4.95229e-05
-0.00274898
-7.0257e-05
-0.00272924
-9.08927e-05
-0.00270511
-0.000111387
-0.00267663
-0.000131693
-0.00264385
-0.000151765
-0.00260684
-0.000171556
-0.00256566
-0.00019102
-0.0025204
-0.000210103
-0.00247116
-0.000228754
-0.00241804
-0.000246911
-0.00236115
-0.00026451
-0.00230062
-0.000281487
-0.0022366
-0.000297786
-0.00216922
-0.000313345
-0.00209866
-0.000328092
-0.0020251
-0.000341955
-0.00194875
-0.000354863
-0.00186983
-0.000366742
-0.00178856
-0.000377516
-0.00170521
-0.0003871
-0.00162005
-0.000395409
-0.00153338
-0.000402352
-0.0014455
-0.000407834
-0.00135675
-0.000411759
-0.00126748
-0.000414027
-0.00117807
-0.000414541
-0.00108889
-0.000413204
-0.00100036
-0.000409911
-0.000912911
-0.000404565
-0.000826966
-0.000397074
-0.00074298
-0.000387357
-0.000661412
-0.000375347
-0.000582729
-0.000360987
-0.000507398
-0.000344238
-0.000435885
-0.000325094
-0.000368645
-0.000303584
-0.000306113
-0.000279784
-0.000248694
-0.000253832
-0.000196753
-0.000225945
-0.000150604
-0.000196439
-0.000110496
-0.00016576
-7.65977e-05
-0.000134519
-4.89872e-05
-0.000103538
-2.76445e-05
-7.39103e-05
-1.24432e-05
-4.70517e-05
-3.2053e-06
-2.44731e-05
-6.40863e-06
-5.42907e-06
3.95732e-05
-1.94885e-05
6.62675e-05
-4.06643e-05
7.47668e-05
-6.85459e-05
9.45541e-05
-0.000102955
0.000123995
-0.000143681
0.000158602
-0.0001906
0.000195523
-0.000243461
0.000232896
-0.000302002
0.00026952
-0.000365925
0.000304597
-0.000434897
0.000337532
-0.00050855
0.000367989
-0.000586478
0.000395668
-0.000668253
0.00042047
-0.000753459
0.000442252
-0.000841634
0.000461031
-0.000932329
0.000476787
-0.00102507
0.000489593
-0.00111942
0.000499527
-0.00121495
0.000506679
-0.0013112
0.000511164
-0.00140776
0.000513125
-0.00150423
0.000512691
-0.00160021
0.000509995
-0.00169533
0.00050518
-0.00178923
0.000498393
-0.00188159
0.000489767
-0.00197208
0.000479428
-0.00206039
0.000467509
-0.00214627
0.000454137
-0.00222944
0.000439423
-0.00230967
0.000423476
-0.00238672
0.000406399
-0.0024604
0.000388288
-0.00253051
0.000369234
-0.00259688
0.000349317
-0.00265935
0.000328617
-0.00271777
0.000307207
-0.00277202
0.000285155
-0.00282197
0.000262524
-0.00286751
0.000239371
-0.00290855
0.000215749
-0.002945
0.000191716
-0.0029768
0.000167316
-0.00300387
0.000142592
-0.00302616
0.000117593
-0.00304363
9.23667e-05
-0.00305625
6.69538e-05
-0.00306398
4.13967e-05
-0.00306681
1.57395e-05
-0.00306474
-9.97584e-06
-0.00305776
-3.57032e-05
-0.00304589
-6.13935e-05
-0.00302914
-8.70018e-05
-0.00300755
-0.000112484
-0.00298116
-0.000137785
-0.00295
-0.000162849
-0.00291415
-0.000187619
-0.00287366
-0.000212043
-0.00282862
-0.00023606
-0.00277911
-0.000259607
-0.00272525
-0.000282617
-0.00266714
-0.000305019
-0.00260491
-0.000326737
-0.0025387
-0.000347697
-0.00246866
-0.000367827
-0.00239496
-0.000387047
-0.00231778
-0.000405272
-0.00223733
-0.000422409
-0.00215382
-0.000438372
-0.00206749
-0.00045307
-0.0019786
-0.000466407
-0.00188742
-0.000478276
-0.00179426
-0.000488571
-0.00169943
-0.000497183
-0.00160327
-0.000503997
-0.00150613
-0.000508895
-0.0014084
-0.000511759
-0.00131047
-0.00051247
-0.00121276
-0.000510909
-0.00111572
-0.000506958
-0.00101978
-0.000500499
-0.000925429
-0.000491429
-0.000833132
-0.000479654
-0.000743386
-0.000465094
-0.000656685
-0.000447688
-0.000573526
-0.000427397
-0.000494405
-0.000404215
-0.000419805
-0.000378184
-0.000350189
-0.000349399
-0.000285996
-0.000318025
-0.000227625
-0.000284317
-0.000175429
-0.000248635
-0.000129709
-0.00021148
-9.06965e-05
-0.000173531
-5.85532e-05
-0.000135681
-3.33699e-05
-9.90936e-05
-1.5164e-05
-6.52575e-05
-3.94338e-06
-3.56937e-05
-1.0352e-05
-5.22594e-06
4.4799e-05
-2.00688e-05
8.11104e-05
-4.35473e-05
9.82453e-05
-7.49445e-05
0.000125951
-0.000113765
0.000162815
-0.000159665
0.000204502
-0.000212292
0.000248149
-0.000271327
0.000291932
-0.000336437
0.00033463
-0.000407241
0.000375401
-0.000483371
0.000413661
-0.000564363
0.000448982
-0.000649852
0.000481157
-0.000739318
0.000509937
-0.00083235
0.000535283
-0.000928417
0.000557098
-0.00102709
0.000575464
-0.00112787
0.000590374
-0.00123028
0.000601928
-0.00133384
0.000610242
-0.00143812
0.000615442
-0.00154266
0.000617667
-0.00164702
0.000617057
-0.00175081
0.000613781
-0.00185363
0.000608003
-0.00195511
0.000599867
-0.00205487
0.00058953
-0.0021526
0.000577152
-0.00224797
0.000562883
-0.00234069
0.00054686
-0.00243048
0.000529213
-0.00251708
0.000510078
-0.00260026
0.000489577
-0.0026798
0.000467822
-0.00275548
0.000444916
-0.00282712
0.000420959
-0.00289455
0.000396051
-0.00295762
0.000370277
-0.00301618
0.000343715
-0.0030701
0.000316443
-0.00311927
0.000288536
-0.00316358
0.000260058
-0.00320294
0.000231075
-0.00323726
0.000201644
-0.00326649
0.00017182
-0.00329056
0.000141665
-0.00330943
0.000111236
-0.00332306
8.05799e-05
-0.00333141
4.9751e-05
-0.00333448
1.88046e-05
-0.00333225
-1.22065e-05
-0.00332472
-4.32276e-05
-0.00331191
-7.42017e-05
-0.00329384
-0.000105074
-0.00327054
-0.000135788
-0.00324204
-0.000166279
-0.00320841
-0.000196478
-0.00316971
-0.000226324
-0.003126
-0.000255751
-0.00307737
-0.000284688
-0.00302393
-0.000313055
-0.00296577
-0.000340773
-0.00290303
-0.00036776
-0.00283584
-0.000393929
-0.00276434
-0.000419192
-0.00268871
-0.000443459
-0.00260912
-0.000466634
-0.00252578
-0.000488614
-0.0024389
-0.00050929
-0.00234872
-0.000528556
-0.00225548
-0.000546302
-0.00215948
-0.000562413
-0.002061
-0.000576759
-0.00196035
-0.000589213
-0.00185789
-0.000599643
-0.00175397
-0.000607917
-0.00164897
-0.000613895
-0.0015433
-0.000617435
-0.00143737
-0.000618398
-0.00133164
-0.000616645
-0.00122655
-0.000612039
-0.00112261
-0.000604447
-0.00102029
-0.000593749
-0.000920101
-0.000579839
-0.000822569
-0.000562626
-0.000728213
-0.000542044
-0.000637557
-0.000518052
-0.000551123
-0.000490649
-0.000469424
-0.000459883
-0.000392953
-0.00042587
-0.000322182
-0.000388796
-0.00025755
-0.000348949
-0.000199458
-0.000306727
-0.000148261
-0.000262677
-0.000104261
-0.00021753
-6.77091e-05
-0.000172233
-3.88071e-05
-0.000127996
-1.7718e-05
-8.63467e-05
-4.62493e-06
-4.87868e-05
-1.49769e-05
-5.11428e-06
4.99135e-05
-2.07709e-05
9.6767e-05
-4.63977e-05
0.000123872
-8.1069e-05
0.000160623
-0.000124083
0.000205829
-0.000174856
0.000255275
-0.000232951
0.000306244
-0.000297916
0.000356897
-0.000369324
0.000406039
-0.000446732
0.000452808
-0.000529718
0.000496647
-0.000617818
0.000537083
-0.000710534
0.000573872
-0.000807393
0.000606796
-0.000907902
0.000635792
-0.00101157
0.000660763
-0.00111785
0.000681748
-0.00122627
0.000698793
-0.00133634
0.000711995
-0.00144755
0.000721458
-0.00155943
0.00072732
-0.00167151
0.000729745
-0.00178335
0.000728899
-0.00189452
0.000724952
-0.0020046
0.000718078
-0.00211319
0.000708457
-0.00221993
0.000696269
-0.00232446
0.000681687
-0.00242645
0.000664875
-0.00252559
0.000645995
-0.00262158
0.000625207
-0.00271416
0.00060266
-0.00280307
0.000578489
-0.00288808
0.000552828
-0.00296897
0.000525803
-0.00304554
0.000497532
-0.00311761
0.000468124
-0.00318502
0.000437682
-0.0032476
0.0004063
-0.00330523
0.000374073
-0.00335779
0.000341088
-0.00340515
0.000307419
-0.00344722
0.000273145
-0.00348391
0.00023834
-0.00351516
0.00020307
-0.0035409
0.000167406
-0.00356108
0.000131415
-0.00357566
9.51566e-05
-0.0035846
5.86955e-05
-0.0035879
2.20985e-05
-0.00358553
-1.45718e-05
-0.00357751
-5.12517e-05
-0.00356384
-8.78737e-05
-0.00354454
-0.000124372
-0.00351965
-0.000160677
-0.00348922
-0.000196714
-0.00345329
-0.000232406
-0.00341193
-0.000267678
-0.00336523
-0.000302455
-0.00331327
-0.000336651
-0.00325615
-0.000370171
-0.003194
-0.000402925
-0.00312694
-0.000434819
-0.00305512
-0.000465751
-0.00297869
-0.000495617
-0.00289784
-0.00052431
-0.00281276
-0.000551716
-0.00272366
-0.000577715
-0.00263077
-0.000602181
-0.00253434
-0.000624986
-0.00243464
-0.000646001
-0.00233196
-0.000665087
-0.00222663
-0.000682096
-0.00211896
-0.000696876
-0.00200933
-0.000709275
-0.00189811
-0.000719137
-0.0017857
-0.000726301
-0.00167254
-0.000730604
-0.00155905
-0.000731883
-0.00144572
-0.000729978
-0.00133302
-0.000724736
-0.00122146
-0.000716005
-0.00111156
-0.000703649
-0.00100385
-0.000687548
-0.000898876
-0.000667602
-0.000797182
-0.000643737
-0.000699323
-0.000615912
-0.000605847
-0.000584125
-0.000517294
-0.000548436
-0.000434193
-0.000508971
-0.000357048
-0.00046594
-0.000286343
-0.000419654
-0.000222528
-0.000370542
-0.000166018
-0.000319187
-0.000117192
-0.000266356
-7.63901e-05
-0.000213035
-4.39249e-05
-0.000160461
-2.00983e-05
-0.000110173
-5.25184e-06
-6.36332e-05
-2.02288e-05
-5.08609e-06
5.49995e-05
-2.15867e-05
0.000113268
-4.92425e-05
0.000151528
-8.69999e-05
0.00019838
-0.000133941
0.00025277
-0.000189356
0.000310691
-0.000252634
0.000369522
-0.000323248
0.00042751
-0.000400683
0.000483474
-0.000484462
0.000536587
-0.000574031
0.000586216
-0.000668928
0.00063198
-0.000768601
0.000673545
-0.00087258
0.000710775
-0.000980262
0.000743473
-0.00109117
0.000771672
-0.00120476
0.000795337
-0.00132051
0.00081454
-0.00143788
0.000829364
-0.00155637
0.000839947
-0.00167549
0.000846443
-0.00179475
0.000849008
-0.00191368
0.000847829
-0.00203183
0.000843104
-0.00214878
0.000835027
-0.00226412
0.000823791
-0.00237744
0.000809596
-0.00248839
0.000792638
-0.00259662
0.000773106
-0.00270181
0.000751182
-0.00280365
0.000727042
-0.00290185
0.000700858
-0.00299614
0.000672788
-0.0030863
0.000642981
-0.00317208
0.000611584
-0.00325328
0.00057873
-0.0033297
0.000544548
-0.00340118
0.000509157
-0.00346754
0.000472666
-0.00352865
0.000435185
-0.00358438
0.000396814
-0.0036346
0.000357643
-0.00367922
0.000317764
-0.00371815
0.000277262
-0.0037513
0.00023622
-0.00377861
0.000194717
-0.00380002
0.000152831
-0.0038155
0.000110635
-0.00382501
6.82046e-05
-0.00382853
2.56181e-05
-0.00382605
-1.70518e-05
-0.00381757
-5.97308e-05
-0.0038031
-0.00010234
-0.00378267
-0.000144802
-0.00375631
-0.000187035
-0.00372407
-0.000228955
-0.00368601
-0.000270472
-0.00364218
-0.000311501
-0.00359269
-0.000351953
-0.00353761
-0.000391726
-0.00347707
-0.000430716
-0.00341118
-0.000468814
-0.00334008
-0.000505915
-0.00326393
-0.000541904
-0.00318289
-0.000576658
-0.00309715
-0.000610051
-0.00300691
-0.000641951
-0.00291241
-0.000672221
-0.00281387
-0.000700717
-0.00271157
-0.000727288
-0.00260579
-0.000751784
-0.00249683
-0.000774043
-0.00238503
-0.000793895
-0.00227074
-0.000811166
-0.00215434
-0.000825681
-0.00203621
-0.000837262
-0.00191679
-0.000845724
-0.00179651
-0.00085088
-0.00167585
-0.000852546
-0.00155529
-0.000850541
-0.00143533
-0.00084469
-0.00131651
-0.000834827
-0.00119936
-0.000820797
-0.00108444
-0.000802466
-0.000972323
-0.000779724
-0.000863573
-0.000752487
-0.000758773
-0.000720712
-0.000658499
-0.000684399
-0.000563323
-0.000643612