/*--------------------------------*- C++ -*----------------------------------*\
  =========                 |
  \\      /  F ield         | OpenFOAM: The Open Source CFD Toolbox
   \\    /   O peration     | Website:  https://openfoam.org
    \\  /    A nd           | Version:  11
     \\/     M anipulation  |
\*---------------------------------------------------------------------------*/
FoamFile
{
    format      ascii;
    class       volScalarField;
    location    "4.9";
    object      p;
}
// * * * * * * * * * * * * * * * * * * * * * * * * * * * * * * * * * * * * * //

dimensions      [0 2 -2 0 0 0 0];

internalField   nonuniform List<scalar> 
10100
(
6.57445e-08
8.30236e-05
-0.000123418
-0.000636923
-0.00140799
-0.00238705
-0.00352836
-0.00478803
-0.00612635
-0.00750727
-0.00889798
-0.0102698
-0.0115973
-0.0128577
-0.014032
-0.0151035
-0.0160578
-0.0168829
-0.0175676
-0.0181033
-0.0184844
-0.0187051
-0.0187603
-0.0186463
-0.0183611
-0.0179043
-0.0172773
-0.016482
-0.0155201
-0.0143931
-0.0131037
-0.0116555
-0.010053
-0.00830132
-0.00640627
-0.00437367
-0.00220975
7.83702e-05
0.00248311
0.00499704
0.0076129
0.0103231
0.013119
0.0159919
0.0189325
0.0219312
0.0249783
0.028064
0.0311791
0.0343139
0.0374583
0.0406016
0.0437334
0.0468437
0.0499224
0.0529593
0.0559435
0.0588646
0.0617127
0.0644785
0.0671528
0.0697261
0.0721894
0.074534
0.0767516
0.0788346
0.0807754
0.0825671
0.0842034
0.0856787
0.086988
0.088126
0.0890885
0.0898726
0.0904766
0.0908992
0.0911401
0.0911999
0.0910808
0.0907869
0.0903239
0.0896986
0.0889189
0.0879941
0.0869353
0.0857564
0.0844736
0.0831054
0.0816719
0.0801963
0.0787052
0.0772295
0.0758046
0.0744696
0.0732684
0.0722482
0.0714581
0.0709465
0.0707569
0.0708495
-8.29674e-05
2.83199e-05
-0.000145075
-0.000583735
-0.0012374
-0.00207235
-0.00305228
-0.00414211
-0.0053071
-0.00651531
-0.00773727
-0.00894628
-0.0101191
-0.0112351
-0.0122754
-0.0132239
-0.0140675
-0.0147939
-0.0153927
-0.0158555
-0.0161754
-0.016347
-0.0163658
-0.0162277
-0.0159302
-0.0154726
-0.014855
-0.014079
-0.0131465
-0.0120597
-0.0108207
-0.00943215
-0.00789764
-0.00622201
-0.00441073
-0.00246932
-0.000403627
0.00177959
0.00407324
0.00647065
0.00896493
0.0115485
0.0142134
0.0169514
0.019754
0.0226117
0.025515
0.0284547
0.0314222
0.0344083
0.037403
0.0403963
0.0433786
0.0463403
0.0492716
0.0521628
0.0550035
0.057784
0.0604952
0.0631284
0.0656744
0.0681243
0.0704698
0.0727031
0.0748162
0.0768019
0.0786531
0.0803636
0.0819274
0.0833397
0.0845956
0.0856905
0.0866205
0.0873834
0.0879779
0.0884032
0.0886589
0.088746
0.0886674
0.0884277
0.0880324
0.0874883
0.0868031
0.0859858
0.0850475
0.0840018
0.0828647
0.0816533
0.0803867
0.079086
0.0777761
0.0764852
0.0752449
0.074089
0.0730534
0.0721754
0.0714909
0.0710345
0.0708513
0.0709456
0.000125471
0.000250761
9.38056e-05
-0.000303375
-0.000889203
-0.00163564
-0.00251305
-0.00348964
-0.00453583
-0.00562288
-0.00672382
-0.00781401
-0.00887278
-0.0098806
-0.0108196
-0.0116749
-0.012433
-0.013083
-0.0136154
-0.0140212
-0.0142934
-0.0144265
-0.0144157
-0.0142577
-0.0139505
-0.0134924
-0.0128831
-0.0121234
-0.011215
-0.0101603
-0.00896167
-0.00762121
-0.0061419
-0.00452812
-0.00278495
-0.000917689
0.00106785
0.00316529
0.00536822
0.0076705
0.0100656
0.012546
0.015104
0.017732
0.0204216
0.0231638
0.0259496
0.0287702
0.0316174
0.0344821
0.0373547
0.0402254
0.0430857
0.0459263
0.0487378
0.0515102
0.0542341
0.0569003
0.0595005
0.062026
0.0644678
0.0668176
0.0690677
0.0712107
0.0732392
0.0751462
0.076925
0.0785699
0.0800756
0.0814372
0.0826502
0.0837102
0.0846141
0.0853599
0.0859469
0.0863741
0.0866413
0.0867499
0.0867034
0.0865065
0.0861647
0.0856842
0.0850723
0.0843378
0.0834919
0.0825479
0.0815211
0.0804276
0.0792849
0.0781125
0.0769332
0.0757731
0.0746603
0.0736242
0.0726952
0.0719042
0.0712805
0.0708531
0.0706718
0.0707641
0.000674659
0.000754822
0.000578284
0.000187907
-0.000371934
-0.00107453
-0.0018933
-0.00280004
-0.00376817
-0.00477238
-0.00578792
-0.00679281
-0.00776705
-0.00869332
-0.00955546
-0.0103384
-0.01103
-0.0116201
-0.0120993
-0.0124596
-0.012694
-0.0127966
-0.0127624
-0.0125883
-0.0122725
-0.011814
-0.0112123
-0.0104672
-0.00957986
-0.00855265
-0.00738787
-0.00608753
-0.00465458
-0.00309315
-0.00140777
0.000396683
0.00231432
0.00433892
0.00646476
0.0086862
0.0109969
0.0133897
0.0158572
0.0183919
0.0209854
0.0236292
0.0263148
0.0290344
0.0317795
0.0345411
0.0373098
0.0400767
0.0428335
0.0455715
0.0482812
0.050953
0.053578
0.0561477
0.0586541
0.0610886
0.0634425
0.0657078
0.0678775
0.0699446
0.0719018
0.0737424
0.0754605
0.0770505
0.0785074
0.0798265
0.0810035
0.0820342
0.0829158
0.0836472
0.0842275
0.0846559
0.0849321
0.0850581
0.0850376
0.0848753
0.0845764
0.0841463
0.0835921
0.0829226
0.082149
0.0812839
0.0803416
0.0793372
0.0782867
0.0772082
0.0761226
0.0750535
0.074026
0.0730661
0.0722
0.0714543
0.0708548
0.0704284
0.0702212
0.0702632
0.00151921
0.00149647
0.0012616
0.000846293
0.000284064
-0.000402814
-0.0011889
-0.00205034
-0.00296322
-0.00390541
-0.00485515
-0.0057919
-0.00669793
-0.00755697
-0.00835406
-0.00907619
-0.00971153
-0.0102502
-0.0106833
-0.0110036
-0.0112047
-0.0112808
-0.011227
-0.0110397
-0.0107169
-0.0102583
-0.00966324
-0.00893165
-0.00806445
-0.00706331
-0.00592998
-0.00466675
-0.00327683
-0.00176388
-0.00013202
0.0016139
0.00346831
0.00542544
0.00747992
0.00962629
0.0118584
0.0141696
0.016553
0.0190009
0.021505
0.0240574
0.0266502
0.0292759
0.031926
0.0345918
0.0372641
0.0399349
0.0425961
0.0452389
0.047854
0.0504327
0.0529665
0.0554473
0.057867
0.0602173
0.0624898
0.0646773
0.0667732
0.0687705
0.0706621
0.0724416
0.0741037
0.0756434
0.0770555
0.0783355
0.0794791
0.0804827
0.081344
0.082062
0.0826357
0.0830645
0.0833483
0.0834894
0.0834917
0.0833596
0.0830975
0.0827108
0.0822061
0.0815925
0.0808804
0.0800821
0.0792105
0.0782795
0.0773038
0.0763
0.0752874
0.074287
0.0733212
0.0724124
0.0715835
0.0708574
0.0702572
0.0698069
0.0695416
0.0694835
0.00260711
0.00243756
0.00211239
0.00164565
0.00105475
0.000360025
-0.000417197
-0.00125485
-0.00213347
-0.0030329
-0.00393387
-0.00481888
-0.00567127
-0.00647632
-0.00722082
-0.0078924
-0.0084807
-0.00897654
-0.0093713
-0.00965751
-0.00982958
-0.00988263
-0.00981211
-0.0096142
-0.00928674
-0.00882897
-0.00824041
-0.00752122
-0.00667244
-0.00569535
-0.00459136
-0.00336263
-0.00201228
-0.000543829
0.0010387
0.00273049
0.00452641
0.00642143
0.00841028
0.0104875
0.0126472
0.0148832
0.0171888
0.0195564
0.021978
0.0244462
0.0269538
0.029493
0.0320556
0.034633
0.0372169
0.0397995
0.042373
0.0449283
0.0474567
0.04995
0.0524005
0.0548
0.0571404
0.0594137
0.0616121
0.0637289
0.0657575
0.0676912
0.069523
0.0712471
0.0728586
0.0743525
0.0757239
0.076968
0.078081
0.07906
0.0799029
0.0806086
0.081176
0.0816045
0.0818943
0.082048
0.0820695
0.0819627
0.0817317
0.0813812
0.0809182
0.0803512
0.0796903
0.0789468
0.0781324
0.0772597
0.0763423
0.0753954
0.0744365
0.0734844
0.0725587
0.0716788
0.0708642
0.0701349
0.0695115
0.0690149
0.0686649
0.0684708
0.00388446
0.00354114
0.00310108
0.0025615
0.00192111
0.00119678
0.000408813
-0.000425775
-0.00128893
-0.00216346
-0.00303295
-0.00388135
-0.00469427
-0.00545877
-0.00616224
-0.00679358
-0.00734408
-0.00780504
-0.00816852
-0.00842749
-0.00857626
-0.00861026
-0.00852554
-0.00831892
-0.00798834
-0.00753248
-0.00695071
-0.00624338
-0.0054115
-0.0044562
-0.00337903
-0.00218202
-0.000867789
0.000560153
0.00209764
0.00374011
0.00548285
0.00732114
0.00925004
0.0112642
0.0133581
0.0155257
0.0177602
0.0200544
0.0224007
0.0247925
0.0272226
0.0296833
0.0321661
0.0346633
0.0371672
0.03967
0.0421638
0.0446398
0.0470898
0.0495063
0.0518817
0.0542078
0.0564766
0.0586807
0.0608127
0.0628662
0.0648346
0.0667113
0.0684896
0.0701642
0.0717305
0.0731836
0.0745183
0.0757302
0.0768158
0.0777728
0.0785992
0.0792938
0.0798552
0.0802827
0.0805769
0.0807405
0.0807773
0.080691
0.080485
0.080164
0.0797347
0.0792053
0.0785852
0.0778846
0.077114
0.076285
0.0754099
0.074503
0.0735799
0.0726573
0.0717519
0.0708803
0.0700595
0.0693067
0.0686403
0.0680784
0.0676236
0.0672704
0.00530231
0.00476859
0.0041975
0.00356869
0.0028619
0.00209152
0.00127464
0.000426828
-0.000437286
-0.00130309
-0.00215559
-0.00298135
-0.00376802
-0.00450358
-0.00517697
-0.00577843
-0.00629934
-0.00673258
-0.00707114
-0.00730854
-0.00743921
-0.00745863
-0.00736308
-0.00714979
-0.00681701
-0.00636358
-0.00578889
-0.00509301
-0.00427677
-0.00334146
-0.00228868
-0.00112046
0.00016083
0.00155184
0.00304835
0.00464607
0.00634075
0.00812774
0.0100021
0.011959
0.0139933
0.0160988
0.0182686
0.020496
0.0227744
0.0250971
0.027457
0.0298462
0.0322571
0.0346822
0.037114
0.0395448
0.0419667
0.0443714
0.0467512
0.0490989
0.051407
0.0536672
0.055872
0.0580144
0.0600875
0.0620847
0.0639997
0.0658256
0.0675565
0.0691874
0.0707138
0.0721307
0.0734328
0.0746159
0.0756774
0.076615
0.0774268
0.0781112
0.0786667
0.0790925
0.0793895
0.0795604
0.0796091
0.0795386
0.0793522
0.0790542
0.0786512
0.078151
0.0775621
0.0768933
0.0761542
0.0753552
0.0745083
0.0736264
0.0727235
0.0718137
0.0709112
0.0700304
0.0691859
0.0683925
0.067667
0.0670249
0.0664507
0.0659243
0.0068174
0.00608557
0.00537263
0.00464267
0.00385673
0.00302627
0.00216699
0.00129169
0.000412484
-0.000457544
-0.00130625
-0.00212209
-0.00289382
-0.00361102
-0.0042643
-0.00484483
-0.00534462
-0.00575746
-0.00607711
-0.00629781
-0.00641465
-0.00642327
-0.00632009
-0.00610251
-0.00576884
-0.00531828
-0.00475059
-0.00406559
-0.00326386
-0.00234696
-0.00131648
-0.000174111
0.00107748
0.00243482
0.00389421
0.00545174
0.0071031
0.00884373
0.0106691
0.0125745
0.0145548
0.0166039
0.0187154
0.020883
0.0231002
0.0253607
0.0276572
0.0299823
0.0323286
0.0346891
0.0370564
0.0394228
0.0417803
0.0441214
0.0464388
0.0487254
0.0509735
0.0531752
0.0553232
0.0574112
0.0594325
0.0613803
0.063248
0.0650293
0.0667187
0.0683115
0.0698031
0.071188
0.0724613
0.0736192
0.0746596
0.0755804
0.0763794
0.0770545
0.077604
0.0780274
0.0783257
0.0785018
0.0785591
0.0785003
0.0783282
0.0780473
0.0776638
0.077185
0.0766183
0.075971
0.075252
0.0744713
0.0736401
0.0727701
0.0718733
0.0709615
0.0700469
0.0691419
0.0682592
0.0674116
0.0666143
0.0658803
0.0651765
0.064469
0.00839259
0.00746044
0.0066
0.00576032
0.00488543
0.00398457
0.00307193
0.00215724
0.00125168
0.000365712
-0.000490747
-0.00130737
-0.00207442
-0.00278303
-0.00342499
-0.00399248
-0.00447898
-0.00487844
-0.00518533
-0.00539442
-0.0055013
-0.00550229
-0.00539413
-0.00517425
-0.00484114
-0.00439419
-0.00383322
-0.00315834
-0.00237011
-0.00146995
-0.000459565
0.000659335
0.00188427
0.00321166
0.00463782
0.00615922
0.00777188
0.00947127
0.0112528
0.0131121
0.0150442
0.0170429
0.0191022
0.0212163
0.0233792
0.0255842
0.0278242
0.030092
0.0323809
0.0346842
0.0369943
0.0393034
0.041604
0.0438891
0.0461516
0.0483843
0.0505795
0.0527296
0.0548281
0.0568688
0.058845
0.0607495
0.062576
0.0643186
0.0659723
0.0675324
0.0689938
0.0703511
0.0715993
0.0727354
0.0737578
0.0746642
0.0754519
0.0761182
0.0766618
0.0770822
0.0773809
0.0775604
0.0776234
0.0775723
0.07741
0.0771408
0.0767707
0.0763059
0.0757527
0.0751175
0.0744087
0.0736359
0.0728095
0.0719397
0.0710364
0.0701096
0.0691699
0.0682283
0.0672957
0.0663829
0.0655035
0.0646687
0.0638288
0.0629367
0.00999724
0.00886604
0.00785555
0.00690085
0.00592954
0.00495031
0.00397508
0.00301218
0.00207012
0.00115787
0.000284305
-0.000542415
-0.00131418
-0.00202293
-0.00266139
-0.00322325
-0.00370311
-0.00409543
-0.00439511
-0.00459744
-0.00469833
-0.00469472
-0.0045839
-0.00436331
-0.00403182
-0.00358921
-0.00303499
-0.00236924
-0.00159326
-0.000708457
0.000284011
0.00138219
0.00258319
0.00388385
0.00528093
0.0067707
0.00834901
0.0100117
0.0117548
0.0135736
0.0154628
0.0174169
0.0194303
0.0214976
0.0236125
0.0257684
0.0279584
0.0301761
0.0324148
0.0346679
0.0369276
0.0391864
0.0414376
0.0436742
0.0458889
0.0480745
0.0502236
0.0523292
0.0543852
0.0563853
0.0583225
0.0601895
0.0619806
0.0636905
0.0653141
0.0668465
0.0682822
0.0696158
0.0708428
0.0719609
0.0729683
0.0738624
0.0746398
0.0752981
0.075836
0.0762536
0.0765521
0.0767332
0.0767992
0.0767523
0.0765956
0.0763335
0.075971
0.0755135
0.074966
0.0743345
0.0736273
0.0728534
0.0720221
0.0711419
0.0702209
0.0692678
0.0682922
0.0673037
0.0663117
0.0653247
0.0643551
0.0634129
0.0624328
0.0613556
0.0116059
0.0102792
0.00911837
0.00804494
0.00697219
0.00590776
0.00486319
0.00384432
0.00285743
0.00191054
0.00101125
0.000166171
-0.000618105
-0.00133463
-0.00197702
-0.00254018
-0.00301927
-0.00340983
-0.00370701
-0.00390664
-0.00400535
-0.00400003
-0.00388838
-0.00366871
-0.00333991
-0.00290166
-0.002354
-0.00169715
-0.000932122
-6.05294e-05
0.000915965
0.00199555
0.00317575
0.00445342
0.00582509
0.00728713
0.00883571
0.0104669
0.0121764
0.0139597
0.0158116
0.0177271
0.0197011
0.0217278
0.0238009
0.0259141
0.0280609
0.0302354
0.0324308
0.0346403
0.0368564
0.0390722
0.0412811
0.0434762
0.0456499
0.0477951
0.0499049
0.0519729
0.0539931
0.0559588
0.0578627
0.059698
0.0614595
0.0631423
0.0647413
0.0662506
0.0676648
0.0689787
0.0701886
0.0712922
0.0722872
0.0731706
0.073939
0.0745902
0.0751234
0.0755387
0.0758363
0.0760174
0.0760839
0.0760384
0.0758839
0.0756245
0.0752645
0.0748079
0.0742594
0.0736248
0.0729118
0.0721287
0.0712836
0.0703833
0.0694349
0.0684462
0.0674257
0.066382
0.0653226
0.0642541
0.063188
0.0621337
0.0610116
0.0597508
0.013197
0.0116793
0.0103685
0.00917513
0.00799755
0.00684325
0.00572343
0.00464192
0.00360377
0.00261531
0.00168275
0.000811976
8.35267e-06
-0.000722605
-0.00137556
-0.00194614
-0.00243006
-0.00282354
-0.00312244
-0.0033229
-0.00342232
-0.00341808
-0.00330756
-0.00308974
-0.00276444
-0.00233108
-0.00178944
-0.00114044
-0.000385449
0.000474252
0.00143711
0.00250101
0.00366335
0.00492115
0.00627115
0.00770979
0.00923324
0.0108375
0.0125183
0.0142712
0.0160917
0.0179747
0.0199152
0.0219074
0.0239449
0.0260219
0.0281324
0.0302703
0.0324289
0.0346015
0.036781
0.0389608
0.0411344
0.0432946
0.0454337
0.0475451
0.0496225
0.0516597
0.0536503
0.0555873
0.0574634
0.0592727
0.0610105
0.0626717
0.0642506
0.0657412
0.067138
0.0684366
0.0696334
0.0707256
0.0717105
0.0725848
0.0733456
0.0739914
0.0745212
0.0749342
0.0752302
0.0754098
0.075475
0.0754286
0.0752735
0.075013
0.0746504
0.0741896
0.0736346
0.072991
0.0722657
0.0714661
0.0705989
0.0696702
0.0686863
0.0676542
0.0665815
0.0654756
0.0643422
0.0631861
0.0620187
0.0608495
0.0595852
0.0581433
0.0147521
0.0130476
0.0115886
0.0102747
0.00899031
0.00774289
0.00654292
0.00539384
0.00429906
0.00326316
0.00229135
0.00138862
0.000559401
-0.000191945
-0.000861136
-0.00144433
-0.00193807
-0.00233849
-0.00264273
-0.00284772
-0.00295026
-0.00294846
-0.00284111
-0.00262695
-0.00230531
-0.00187633
-0.00134065
-0.000699094
4.73206e-05
0.000897129
0.00184843
0.00289905
0.00404654
0.00528802
0.00662019
0.00803947
0.00954205
0.011124
0.012781
0.014509
0.0163036
0.0181601
0.0200729
0.0220365
0.0240447
0.0260921
0.0281728
0.0302806
0.0324089
0.0345512
0.036701
0.0388519
0.0409968
0.0431283
0.0452394
0.0473238
0.0493757
0.0513883
0.053355
0.0552687
0.0571229
0.0589121
0.0606316
0.062276
0.0638391
0.0653151
0.066699
0.0679866
0.0691738
0.0702573
0.0712342
0.0721015
0.0728569
0.0734989
0.0740261
0.0744371
0.0747307
0.0749077
0.0749705
0.0749214
0.074763
0.0744978
0.0741287
0.0736592
0.0730931
0.0724354
0.071692
0.0708693
0.069973
0.0690088
0.0679825
0.0669006
0.0657696
0.0645954
0.0633824
0.0621342
0.0608623
0.0595768
0.0581708
0.0565506
0.0162546
0.0143684
0.0127636
0.0113288
0.0099366
0.00859349
0.00731011
0.00608911
0.00493282
0.0038447
0.00282883
0.00188913
0.00102902
0.0002518
-0.000438496
-0.00103832
-0.00154569
-0.0019575
-0.00227032
-0.00248173
-0.00258978
-0.00259284
-0.00248976
-0.00227964
-0.00196217
-0.00153793
-0.00100779
-0.000372485
0.000366872
0.00120846
0.00215024
0.00319022
0.00432605
0.00555468
0.00687268
0.00827652
0.00976246
0.0113266
0.0129648
0.0146733
0.0164477
0.018283
0.0201739
0.0221148
0.0241002
0.0261245
0.0281818
0.0302658
0.0323702
0.0344892
0.0366163
0.0387446
0.040867
0.0429764
0.0450661
0.0471304
0.049163
0.0511568
0.0531051
0.0550014
0.0568397
0.0586144
0.0603206
0.0619526
0.0635042
0.0649701
0.0663456
0.067626
0.0688066
0.0698841
0.0708554
0.0717184
0.0724707
0.0731105
0.0736358
0.0740445
0.0743355
0.0745096
0.0745689
0.0745156
0.0743516
0.074079
0.0737003
0.0732185
0.0726373
0.0719608
0.0711941
0.0703426
0.0694115
0.0684061
0.0673318
0.0661944
0.0649995
0.063752
0.062455
0.0611113
0.0597329
0.0583301
0.0567832
0.0549878
0.0176906
0.015628
0.0138798
0.012325
0.0108237
0.00938351
0.00801453
0.00671778
0.0054958
0.00435158
0.00328744
0.00230587
0.00141025
0.000603532
-0.000111744
-0.000732825
-0.00125703
-0.00168257
-0.00200689
-0.00222742
-0.00234273
-0.00235199
-0.0022542
-0.00204866
-0.00173567
-0.00131615
-0.000790873
-0.000160615
0.000573107
0.00140824
0.00234281
0.00337493
0.00450212
0.00572118
0.00702864
0.00842093
0.00989438
0.0114453
0.0130698
0.0147639
0.0165232
0.0183428
0.0202175
0.0221419
0.0241107
0.026118
0.0281579
0.0302245
0.032312
0.0344144
0.0365252
0.0386372
0.0407435
0.0428374
0.0449127
0.0469632
0.0489823
0.0509631
0.052899
0.0547841
0.0566122
0.0583777
0.0600752
0.0616992
0.063244
0.0647044
0.0660756
0.0673522
0.0685294
0.0696037
0.0705726
0.071434
0.0721853
0.0728242
0.0733483
0.0737552
0.0740439
0.0742149
0.0742702
0.0742114
0.0740401
0.0737578
0.073367
0.0728702
0.0722703
0.071571
0.0707764
0.0698915
0.068921
0.0678697
0.0667426
0.0655448
0.0642813
0.0629561
0.0615715
0.0601299
0.0586435
0.057123
0.0554361
0.0534682
0.019049
0.0168139
0.0149251
0.0132513
0.0116405
0.0101017
0.00864492
0.00727076
0.0059802
0.00477539
0.0036589
0.00263245
0.00169755
0.000856967
0.000113497
-0.000531275
-0.00107561
-0.0015176
-0.00185517
-0.00208662
-0.002211
-0.00222762
-0.00213575
-0.00193522
-0.00162686
-0.00121169
-0.000690394
-6.39825e-05
0.000665624
0.00149624
0.00242602
0.00345304
0.00457462
0.00578733
0.00708766
0.00847222
0.00993751
0.0114799
0.0130954
0.01478
0.0165292
0.0183385
0.0202028
0.0221168
0.0240747
0.026071
0.0280999
0.0301557
0.0322328
0.0343251
0.0364257
0.0385277
0.0406246
0.0427098
0.0447769
0.0468196
0.0488312
0.050805
0.0527349
0.0546147
0.0564382
0.0581995
0.0598932
0.0615141
0.0630569
0.0645162
0.0658868
0.0671632
0.0683404
0.0694151
0.0703848
0.0712472
0.0719995
0.0726389
0.0731628
0.0735688
0.0738558
0.0740241
0.074075
0.0740099
0.0738299
0.0735363
0.0731312
0.0726168
0.0719954
0.0712699
0.070444
0.0695221
0.0685084
0.0674072
0.066223
0.0649606
0.0636245
0.0622181
0.0607432
0.0592016
0.057606
0.0559671
0.0541413
0.0520037
0.0203193
0.0179155
0.0158885
0.0140962
0.0123758
0.0107375
0.00919163
0.00773766
0.00637613
0.0051086
0.00393641
0.00286118
0.00188431
0.00100746
0.000232533
-0.000438699
-0.00100529
-0.00146565
-0.00181823
-0.0020622
-0.00219688
-0.00222156
-0.00213603
-0.00194091
-0.00163718
-0.00122562
-0.000707121
-8.32948e-05
0.000643685
0.00147187
0.00239948
0.00342422
0.004543
0.00575237
0.00704912
0.00843005
0.00989158
0.0114298
0.0130408
0.0147205
0.0164649
0.0182694
0.0201288
0.0220378
0.0239908
0.0259821
0.0280063
0.0300578
0.0321307
0.0342188
0.0363156
0.0384142
0.0405083
0.0425911
0.0446561
0.0466969
0.0487072
0.0506805
0.0526104
0.0544908
0.0563151
0.0580774
0.0597726
0.0613956
0.062941
0.0644034
0.0657774
0.0670574
0.0682386
0.0693172
0.070291
0.0711571
0.0719124
0.072554
0.0730791
0.0734854
0.0737716
0.0739377
0.0739843
0.0739124
0.0737227
0.0734164
0.0729952
0.072461
0.0718157
0.0710614
0.0702015
0.0692397
0.0681796
0.067025
0.0657803
0.0644499
0.0630379
0.0615474
0.0599799
0.0583365
0.0566303
0.0548729
0.052909
0.0506041
0.0214935
0.0189232
0.0167588
0.01485
0.0130205
0.0112812
0.00964488
0.00810992
0.00667529
0.00534241
0.00411238
0.00298601
0.00196446
0.00104891
0.000240446
-0.000459471
-0.00104992
-0.00153021
-0.0018996
-0.00215733
-0.00230279
-0.00233597
-0.00225743
-0.00206792
-0.00176815
-0.0013591
-0.000842354
-0.000219906
0.000506332
0.00133456
0.00226256
0.00328747
0.00440615
0.00561553
0.00691263
0.00829405
0.00975589
0.0112942
0.0129051
0.0145849
0.0163296
0.0181344
0.0199943
0.0219038
0.0238576
0.02585
0.0278756
0.0299287
0.0320034
0.0340936
0.036193
0.0382947
0.0403922
0.0424786
0.0445476
0.0465928
0.0486081
0.0505869
0.0525229
0.0544096
0.0562404
0.0580094
0.0597115
0.0613416
0.0628944
0.0643644
0.0657462
0.067034
0.068223
0.0693094
0.0702903
0.0711627
0.0719234
0.0725692
0.0730975
0.0735057
0.0737922
0.0739566
0.0739992
0.0739203
0.0737204
0.0734002
0.0729614
0.0724057
0.0717344
0.0709495
0.0700534
0.0690491
0.0679399
0.0667292
0.0654212
0.06402
0.0625296
0.0609527
0.0592904
0.0575434
0.0557256
0.0538495
0.0517483
0.0492782
0.0225629
0.0198285
0.0175283
0.0155028
0.0135649
0.0117252
0.00999672
0.00837879
0.00686967
0.00546958
0.00417963
0.00300033
0.001932
0.000975441
0.000131942
-0.000597969
-0.00121392
-0.00171575
-0.00210298
-0.00237496
-0.00253176
-0.00257414
-0.00250282
-0.00231832
-0.00202152
-0.0016141
-0.0010981
-0.000475291
0.000252569
0.00108321
0.00201378
0.00304129
0.00416302
0.00537618
0.00667753
0.00806328
0.00952938
0.011072
0.0126876
0.0143724
0.0161223
0.0179325
0.0197981
0.0217138
0.0236741
0.0256734
0.0277061
0.0297666
0.0318491
0.0339477
0.0360558
0.0381667
0.0402736
0.0423699
0.044449
0.0465049
0.0485313
0.0505217
0.0524697
0.0543686
0.0562117
0.0579931
0.0597077
0.0613502
0.0629154
0.0643979
0.065792
0.0670921
0.068293
0.0693907
0.070382
0.0712637
0.0720325
0.0726851
0.0732188
0.0736307
0.0739188
0.0740825
0.0741214
0.0740356
0.073825
0.0734903
0.0730329
0.0724543
0.0717558
0.0709385
0.0700042
0.0689553
0.0677947
0.0665258
0.0651523
0.0636783
0.0621074
0.0604422
0.0586831
0.0568311
0.0549009
0.0529057
0.0506679
0.0480341
0.0235188
0.0206225
0.018188
0.0160464
0.014
0.0120599
0.0102389
0.00853651
0.00695125
0.00548272
0.00413126
0.00289713
0.00178046
0.000781717
-9.8324e-05
-0.000859621
-0.0015024
-0.00202672
-0.00243227
-0.00271904
-0.00288784
-0.00293966
-0.00287504
-0.00269463
-0.00239999
-0.00199328
-0.00147643
-0.000851046
-0.000119318
0.000715759
0.00165111
0.00268415
0.00381251
0.0050332
0.0063425
0.00773637
0.00921088
0.0107624
0.0123874
0.0140818
0.0158418
0.0176625
0.0195393
0.0214666
0.023439
0.0254507
0.0274963
0.0295701
0.0316664
0.0337793
0.0359022
0.0380282
0.0401506
0.0422627
0.0443581
0.0464307
0.0484743
0.0504823
0.0524483
0.0543655
0.056227
0.0580266
0.0597593
0.0614198
0.0630028
0.0645028
0.0659142
0.0672311
0.0684481
0.0695609
0.0705662
0.0714606
0.0722406
0.0729027
0.0734441
0.0738617
0.0741532
0.0743174
0.0743535
0.074261
0.0740398
0.0736903
0.0732139
0.0726117
0.0718847
0.0710334
0.0700591
0.0689639
0.0677502
0.0664214
0.0649808
0.0634322
0.061779
0.0600235
0.0581662
0.0562079
0.0541646
0.0520501
0.049676
0.0468796
0.0243532
0.0212976
0.0187295
0.0164724
0.0143174
0.0122763
0.0103627
0.00857514
0.00691242
0.00537404
0.00395986
0.0026697
0.00150343
0.000461455
-0.000456347
-0.00125017
-0.00192057
-0.00246784
-0.00289217
-0.00319432
-0.00337537
-0.00343615
-0.00337732
-0.00320019
-0.00290683
-0.00249939
-0.0019796
-0.00134947
-0.000611961
0.000229572
0.0011724
0.00221437
0.00335299
0.00458479
0.0059057
0.00731167
0.00879892
0.0103639
0.0120028
0.0137119
0.0154869
0.0173235
0.0192167
0.0211612
0.0231511
0.0251808
0.0272449
0.0293377
0.0314537
0.0335868
0.0357303
0.0378775
0.0400216
0.0421556
0.0442733
0.0463687
0.0484355
0.0504672
0.0524572
0.0543987
0.0562845
0.0581083
0.059865
0.0615492
0.0631556
0.0646786
0.0661122
0.0674505
0.068688
0.0698202
0.0708436
0.0717545
0.0725489
0.0732236
0.0737753
0.0742008
0.0744976
0.0746638
0.0746982
0.0745999
0.0743685
0.0740045
0.073509
0.0728827
0.072126
0.0712393
0.0702235
0.0690804
0.0678123
0.0664222
0.064913
0.0632882
0.0615511
0.0597038
0.0577468
0.0556813
0.0535241
0.05129
0.0487797
0.045821
0.0250597
0.021846
0.0191458
0.0167732
0.0145091
0.0123665
0.0103595
0.0084863
0.00674528
0.00513595
0.00365795
0.00231092
0.00109428
7.87986e-06
-0.000948558
-0.00177553
-0.00247388
-0.00304441
-0.00348804
-0.00380581
-0.00399865
-0.00406748
-0.00401359
-0.00383889
-0.00354551
-0.00313535
-0.00261049
-0.00197375
-0.00122863
-0.000378196
0.000575337
0.00162981
0.00278222
0.0040286
0.00536485
0.00678709
0.00829158
0.00987462
0.0115323
0.0132608
0.0150561
0.0169138
0.018829
0.0207959
0.0228089
0.0248623
0.0269506
0.0290683
0.0312097
0.0333689
0.0355391
0.0377136
0.0398852
0.0420473
0.0441933
0.0463175
0.0484136
0.0504751
0.0524953
0.0544669
0.056383
0.0582371
0.0600238
0.0617379
0.0633734
0.0649247
0.0663857
0.0677503
0.069013
0.0701693
0.0712152
0.0721464
0.0729591
0.0736495
0.0742144
0.0746504
0.0749545
0.0751245
0.0751587
0.0750558
0.0748152
0.0744373
0.0739228
0.0732719
0.0724847
0.0715614
0.0705029
0.0693108
0.0679871
0.0665343
0.0649552
0.0632528
0.0614302
0.0594895
0.0574317
0.0552579
0.052986
0.0506319
0.0479849
0.044864
0.0256321
0.0222605
0.0194287
0.0169408
0.0145673
0.0123225
0.0102213
0.0082617
0.00644166
0.00476064
0.0032181
0.0018134
0.000545704
-0.000585846
-0.00158138
-0.00244174
-0.00316829
-0.00376246
-0.00422552
-0.00455839
-0.00476209
-0.00483811
-0.00478838
-0.00461489
-0.00431956
-0.00390456
-0.00337279
-0.00272779
-0.00197286
-0.00111045
-0.000142671
0.000927778
0.00209727
0.00336173
0.00471729
0.00616018
0.00768651
0.00929227
0.0109735
0.0127265
0.0145473
0.0164316
0.0183741
0.0203691
0.0224107
0.0244933
0.0266116
0.02876
0.0309328
0.0331241
0.0353272
0.0375348
0.0397401
0.0419362
0.0441169
0.0462761
0.0484077
0.0505051
0.0525613
0.0545692
0.0565216
0.0584121
0.0602351
0.0619849
0.0636553
0.0652405
0.0667342
0.0681305
0.0694237
0.0706089
0.0716817
0.0726376
0.0734724
0.0741822
0.0747634
0.0752126
0.0755265
0.0757024
0.0757382
0.0756324
0.075384
0.0749931
0.0744598
0.0737842
0.0729661
0.0720056
0.0709035
0.0696615
0.0682811
0.0667644
0.0651141
0.0633327
0.0614231
0.0593878
0.0572278
0.0549446
0.0525572
0.0500821
0.0472976
0.0440137
0.0260639
0.022534
0.0195697
0.0169666
0.0144836
0.0121359
0.00993979
0.00789305
0.00599344
0.00424017
0.00263255
0.00116955
-0.000149868
-0.00132662
-0.00236132
-0.00325526
-0.00401029
-0.00462816
-0.00511007
-0.00545706
-0.00567074
-0.00575321
-0.00570646
-0.0055323
-0.00523287
-0.00481123
-0.00427102
-0.00361572
-0.00284801
-0.00197013
-0.000984707
0.000104835
0.00129466
0.00258097
0.00396011
0.00542817
0.00698084
0.00861392
0.0103236
0.0121062
0.0139579
0.0158741
0.0178494
0.0198779
0.0219538
0.0240714
0.0262255
0.0284106
0.030621
0.0328505
0.0350923
0.0373393
0.0395845
0.041821
0.0440425
0.0462431
0.0484165
0.0505557
0.0526541
0.0547043
0.0566994
0.0586326
0.060498
0.0622893
0.0640004
0.0656252
0.0671574
0.0685911
0.0699202
0.0711394
0.0722439
0.0732288
0.0740899
0.074823
0.0754243
0.0758899
0.0762164
0.0764006
0.0764402
0.0763334
0.0760789
0.075676
0.0751247
0.0744248
0.0735758
0.072578
0.0714321
0.0701394
0.0687014
0.0671199
0.065397
0.0635353
0.0615375
0.0594062
0.0571428
0.054749
0.0522449
0.0496474
0.0467241
0.0432758
0.0263484
0.0226591
0.0195615
0.0168424
0.0142494
0.0117983
0.00950665
0.00737221
0.00539255
0.00356656
0.00189331
0.000371734
-0.000999527
-0.00222143
-0.00329537
-0.00422304
-0.00500647
-0.00564739
-0.00614714
-0.00650738
-0.00673029
-0.00681801
-0.00677236
-0.00659538
-0.0062901
-0.00586036
-0.00530981
-0.0046413
-0.00385729
-0.00296055
-0.00195453
-0.000842901
0.000370821
0.00168316
0.00309031
0.00458787
0.00617121
0.0078362
0.00957923
0.0113967
0.0132847
0.0152382
0.0172517
0.0193193
0.021435
0.0235937
0.0257897
0.0280177
0.0302716
0.0325454
0.0348321
0.0371247
0.0394162
0.0416996
0.0439687
0.046217
0.0484382
0.0506256
0.0527724
0.0548714
0.0569154
0.0588975
0.0608112
0.0626502
0.0644079
0.0660783
0.067655
0.0691318
0.0705023
0.0717608
0.072902
0.0739208
0.0748127
0.0755733
0.0761986
0.0766843
0.0770264
0.0772218
0.0772679
0.0771624
0.0769035
0.0764903
0.0759222
0.0751987
0.0743195
0.0732847
0.0720948
0.0707512
0.0692551
0.0676079
0.0658114
0.0638681
0.0617808
0.0595523
0.0571842
0.0546785
0.0520559
0.0493343
0.0462702
0.0426555
0.0264785
0.0226287
0.0193966
0.0165601
0.0138563
0.0113016
0.00891385
0.00669111
0.00463083
0.00273181
0.000992804
-0.000587427
-0.00201039
-0.00327761
-0.00439081
-0.00535189
-0.00616298
-0.00682599
-0.00734275
-0.00771546
-0.00794633
-0.00803738
-0.00799069
-0.00780915
-0.00749659
-0.00705689
-0.00649313
-0.0058079
-0.00500422
-0.00408575
-0.00305627
-0.00191914
-0.000677429
0.000665285
0.00210464
0.0036358
0.00525416
0.00695588
0.0087375
0.0105953
0.0125247
0.0145207
0.0165777
0.0186899
0.0208516
0.0230573
0.0253015
0.0275783
0.0298819
0.0322061
0.0345441
0.0368888
0.0392332
0.0415702
0.0438932
0.0461958
0.0484715
0.0507136
0.0529153
0.0550695
0.0571688
0.0592059
0.0611741
0.0630668
0.0648775
0.0665997
0.068227
0.0697528
0.0711702
0.0724733
0.0736564
0.0747142
0.0756419
0.0764347
0.0770881
0.0775976
0.077959
0.0781688
0.0782241
0.0781223
0.0778614
0.0774397
0.0768563
0.0761107
0.0752022
0.0741309
0.0728974
0.0715028
0.0699483
0.0682347
0.0663638
0.0643378
0.0621598
0.0598329
0.0573587
0.0547394
0.0519964
0.0491486
0.0459414
0.0421577
0.0264465
0.022435
0.0190672
0.0161124
0.0132969
0.0106376
0.0081533
0.00584175
0.00370041
0.00172813
-7.65447e-05
-0.00171543
-0.00319014
-0.00450265
-0.00565471
-0.00664842
-0.00748622
-0.00817045
-0.0087034
-0.00908726
-0.00932415
-0.00941639
-0.00936694
-0.00917943
-0.00885772
-0.00840516
-0.00782464
-0.00711933
-0.00629317
-0.00535022
-0.00429393
-0.00312719
-0.00185313
-0.000475931
0.000999541
0.00256843
0.00422649
0.00597009
0.00779556
0.00969865
0.0116746
0.0137182
0.0158242
0.017987
0.0202007
0.0224596
0.0247579
0.0270897
0.0294492
0.0318301
0.034226
0.0366295
0.0390335
0.0414307
0.0438143
0.0461779
0.0485148
0.0508185
0.053082
0.055298
0.0574588
0.0595572
0.0615862
0.0635391
0.0654092
0.0671897
0.0688737
0.0704542
0.0719242
0.0732774
0.074508
0.0756103
0.0765789
0.0774088
0.0780949
0.0786324
0.0790169
0.0792445
0.0793122
0.0792169
0.0789563
0.0785284
0.0779319
0.0771656
0.0762291
0.0751223
0.0738458
0.0724005
0.0707872
0.0690068
0.0670606
0.064951
0.0626814
0.0602549
0.0576732
0.0549382
0.0520726
0.0490962
0.0457431
0.0417874
0.0262453
0.0220704