/*--------------------------------*- C++ -*----------------------------------*\
  =========                 |
  \\      /  F ield         | OpenFOAM: The Open Source CFD Toolbox
   \\    /   O peration     | Website:  https://openfoam.org
    \\  /    A nd           | Version:  11
     \\/     M anipulation  |
\*---------------------------------------------------------------------------*/
FoamFile
{
    format      ascii;
    class       surfaceScalarField;
    location    "4.9";
    object      phi;
}
// * * * * * * * * * * * * * * * * * * * * * * * * * * * * * * * * * * * * * //

dimensions      [0 3 -1 0 0 0 0];

internalField   nonuniform List<scalar> 
19980
(
6.76842e-07
-6.77024e-07
2.19424e-06
-1.51725e-06
3.73312e-06
-1.53903e-06
4.82501e-06
-1.09168e-06
5.22007e-06
-3.94873e-07
4.78733e-06
4.32825e-07
3.46012e-06
1.32717e-06
1.21619e-06
2.24383e-06
-1.94012e-06
3.15627e-06
-5.9863e-06
4.0463e-06
-1.08874e-05
4.90099e-06
-1.65997e-05
5.71219e-06
-2.30723e-05
6.47263e-06
-3.02506e-05
7.17843e-06
-3.80767e-05
7.82607e-06
-4.64906e-05
8.41397e-06
-5.54316e-05
8.94102e-06
-6.48375e-05
9.40586e-06
-7.46456e-05
9.80804e-06
-8.47946e-05
1.01491e-05
-9.52239e-05
1.04293e-05
-0.000105875
1.06514e-05
-0.000116692
1.08166e-05
-0.000127617
1.09252e-05
-0.000138597
1.09799e-05
-0.000149581
1.09834e-05
-0.000160517
1.09367e-05
-0.000171359
1.08419e-05
-0.000182061
1.07013e-05
-0.000192577
1.05161e-05
-0.000202865
1.02881e-05
-0.000212884
1.00194e-05
-0.000222597
9.71226e-06
-0.000231965
9.36818e-06
-0.000240954
8.98919e-06
-0.000249531
8.57736e-06
-0.000257666
8.13441e-06
-0.000265328
7.66237e-06
-0.000272491
7.16338e-06
-0.000279131
6.63937e-06
-0.000285223
6.09205e-06
-0.000290746
5.52329e-06
-0.000295681
4.93522e-06
-0.000300011
4.32995e-06
-0.000303721
3.70928e-06
-0.000306796
3.075e-06
-0.000309225
2.42916e-06
-0.000310999
1.77393e-06
-0.00031211
1.11121e-06
-0.000312553
4.42983e-07
-0.000312324
-2.28554e-07
-0.000311423
-9.01319e-07
-0.00030985
-1.57311e-06
-0.000307608
-2.24153e-06
-0.000304704
-2.90461e-06
-0.000301143
-3.5603e-06
-0.000296938
-4.20557e-06
-0.000292101
-4.8373e-06
-0.000286647
-5.45341e-06
-0.000280595
-6.05202e-06
-0.000273965
-6.63048e-06
-0.000266778
-7.18614e-06
-0.000259062
-7.71675e-06
-0.000250842
-8.21973e-06
-0.00024215
-8.69241e-06
-0.000233017
-9.13269e-06
-0.000223478
-9.53841e-06
-0.000213572
-9.90686e-06
-0.000203336
-1.02356e-05
-0.000192813
-1.0523e-05
-0.000182046
-1.07671e-05
-0.000171081
-1.09649e-05
-0.000159967
-1.11138e-05
-0.000148755
-1.12115e-05
-0.000137499
-1.12564e-05
-0.000126252
-1.12465e-05
-0.000115073
-1.11798e-05
-0.000104018
-1.10545e-05
-9.3149e-05
-1.0869e-05
-8.25268e-05
-1.06222e-05
-7.22139e-05
-1.03129e-05
-6.22735e-05
-9.94045e-06
-5.27693e-05
-9.50428e-06
-4.37653e-05
-9.004e-06
-3.53256e-05
-8.43966e-06
-2.75133e-05
-7.81234e-06
-2.03892e-05
-7.1241e-06
-1.40114e-05
-6.37774e-06
-8.43486e-06
-5.57654e-06
-3.71e-06
-4.72483e-06
1.19184e-07
-3.82915e-06
3.01891e-06
-2.89968e-06
4.97015e-06
-1.95121e-06
5.97569e-06
-1.00554e-06
6.07126e-06
-9.55946e-08
5.34371e-06
7.27554e-07
3.96044e-06
1.38331e-06
2.22003e-06
1.74045e-06
6.43231e-07
1.57679e-06
6.4323e-07
1.64836e-06
-2.32526e-06
4.34928e-06
-4.21829e-06
6.72255e-06
-3.91238e-06
7.91337e-06
-2.28272e-06
7.35667e-06
1.61627e-07
4.68624e-06
3.10302e-06
-3.02025e-07
6.31564e-06
-7.70749e-06
9.64925e-06
-1.75464e-05
1.29952e-05
-2.97813e-05
1.62811e-05
-4.43325e-05
1.94522e-05
-6.10916e-05
2.24713e-05
-7.99312e-05
2.53122e-05
-0.000100707
2.79543e-05
-0.000123265
3.03842e-05
-0.000147446
3.2594e-05
-0.000173081
3.45766e-05
-0.000200005
3.63291e-05
-0.000228048
3.78509e-05
-0.000257041
3.91427e-05
-0.00028682
4.02081e-05
-0.000317221
4.10522e-05
-0.000348083
4.16787e-05
-0.000379252
4.20938e-05
-0.000410576
4.23044e-05
-0.000441909
4.23162e-05
-0.000473108
4.21359e-05
-0.000504037
4.17709e-05
-0.000534563
4.12282e-05
-0.000564561
4.05139e-05
-0.000593909
3.96355e-05
-0.00062249
3.86006e-05
-0.000650194
3.74166e-05
-0.000676917
3.60904e-05
-0.000702557
3.46295e-05
-0.000727021
3.30417e-05
-0.000750221
3.13341e-05
-0.000772072
2.95139e-05
-0.000792498
2.75891e-05
-0.000811426
2.55671e-05
-0.000828789
2.34553e-05
-0.000844527
2.12612e-05
-0.000858585
1.89926e-05
-0.000870912
1.66572e-05
-0.000881465
1.42625e-05
-0.000890206
1.1816e-05
-0.000897102
9.32526e-06
-0.000902127
6.79851e-06
-0.000905259
4.2437e-06
-0.000906485
1.66861e-06
-0.000905795
-9.18485e-07
-0.000903188
-3.50889e-06
-0.000898667
-6.09422e-06
-0.000892242
-8.66622e-06
-0.00088393
-1.12163e-05
-0.000873756
-1.37352e-05
-0.000861748
-1.62134e-05
-0.000847944
-1.86412e-05
-0.000832388
-2.10092e-05
-0.000815132
-2.33083e-05
-0.000796233
-2.55296e-05
-0.000775755
-2.76634e-05
-0.000753772
-2.97e-05
-0.000730362
-3.16301e-05
-0.00070561
-3.34445e-05
-0.000679609
-3.51339e-05
-0.000652458
-3.66889e-05
-0.000624264
-3.81006e-05
-0.00059514
-3.93602e-05
-0.000565204
-4.04593e-05
-0.000534581
-4.13893e-05
-0.000503405
-4.21414e-05
-0.000471812
-4.27066e-05
-0.000439947
-4.30768e-05
-0.000407958
-4.32448e-05
-0.000376001
-4.32035e-05
-0.000344235
-4.29465e-05
-0.000312822
-4.24677e-05
-0.000281929
-4.17618e-05
-0.000251727
-4.08246e-05
-0.000222386
-3.9653e-05
-0.000194082
-3.82447e-05
-0.000166988
-3.65987e-05
-0.000141277
-3.47152e-05
-0.00011712
-3.25969e-05
-9.46828e-05
-3.02491e-05
-7.41264e-05
-2.76805e-05
-5.56013e-05
-2.49028e-05
-3.9246e-05
-2.19318e-05
-2.51817e-05
-1.87892e-05
-1.35058e-05
-1.5505e-05
-4.28368e-06
-1.21218e-05
2.46414e-06
-8.69898e-06
6.7789e-06
-5.32022e-06
8.78815e-06
-2.10481e-06
8.74009e-06
7.7561e-07
7.05013e-06
3.0733e-06
4.35718e-06
4.43343e-06
1.57845e-06
4.35557e-06
2.22175e-06
1.85647e-06
-4.1819e-06
4.50971e-06
-6.87136e-06
6.26177e-06
-5.66448e-06
6.06821e-06
-2.08898e-06
3.18817e-06
3.04191e-06
-2.88182e-06
9.17325e-06
-1.24531e-05
1.58868e-05
-2.56833e-05
2.28793e-05
-4.26186e-05
2.99305e-05
-6.32158e-05
3.68782e-05
-8.73704e-05
4.36067e-05
-0.000114929
5.00296e-05
-0.000145701
5.60848e-05
-0.000179475
6.17279e-05
-0.000216018
6.69272e-05
-0.000255083
7.16595e-05
-0.000296419
7.59125e-05
-0.000339767
7.96766e-05
-0.000384865
8.29493e-05
-0.000431455
8.57323e-05
-0.000479277
8.803e-05
-0.000528075
8.98503e-05
-0.000577599
9.12028e-05
-0.000627603
9.20979e-05
-0.000677848
9.25484e-05
-0.000728099
9.25675e-05
-0.000778132
9.2169e-05
-0.000827728
9.13672e-05
-0.000876677
9.01766e-05
-0.000924775
8.86124e-05
-0.00097183
8.669e-05
-0.00101765
8.44252e-05
-0.00106207
8.18335e-05
-0.00110491
7.89313e-05
-0.00114602
7.57346e-05
-0.00118523
7.22594e-05
-0.00122242
6.85217e-05
-0.00125745
6.45381e-05
-0.00129018
6.0325e-05
-0.00132051
5.58988e-05
-0.00134833
5.12759e-05
-0.00137355
4.64729e-05
-0.00139606
4.15069e-05
-0.0014158
3.63945e-05
-0.00143269
3.11523e-05
-0.00144667
2.57972e-05
-0.00145769
2.03466e-05
-0.00146571
1.48178e-05
-0.00147069
9.22826e-06
-0.00147262
3.59572e-06
-0.00147148
-2.06155e-06
-0.00146726
-7.72518e-06
-0.00145998
-1.33766e-05
-0.00144965
-1.89969e-05
-0.0014363
-2.45672e-05
-0.00141997
-3.00679e-05
-0.0014007
-3.54785e-05
-0.00137856
-4.07786e-05
-0.00135362
-4.59482e-05
-0.00132597
-5.09672e-05
-0.00129568
-5.58149e-05
-0.00126287
-6.0471e-05
-0.00122766
-6.49147e-05
-0.00119016
-6.91257e-05
-0.00115052
-7.30836e-05
-0.00110889
-7.6768e-05
-0.00106542
-8.0159e-05
-0.00102028
-8.32365e-05
-0.000973661
-8.59815e-05
-0.000925745
-8.83752e-05
-0.000876736
-9.0399e-05
-0.000826843
-9.20343e-05
-0.000776286
-9.32629e-05
-0.000725295
-9.40681e-05
-0.000674105
-9.44344e-05
-0.000622962
-9.43472e-05
-0.000572115
-9.37932e-05
-0.000521822
-9.27603e-05
-0.000472346
-9.12383e-05
-0.000423951
-8.92192e-05
-0.000376907
-8.66972e-05
-0.000331483
-8.36689e-05
-0.000287948
-8.0134e-05
-0.000246567
-7.60957e-05
-0.000207602
-7.1562e-05
-0.000171305
-6.65466e-05
-0.000137915
-6.10697e-05
-0.000107658
-5.51597e-05
-8.07352e-05
-4.8855e-05
-5.73173e-05
-4.22071e-05
-3.75364e-05
-3.52859e-05
-2.14721e-05
-2.8186e-05
-9.13495e-06
-2.10361e-05
-4.44266e-07
-1.40109e-05
4.80038e-06
-7.34949e-06
6.9557e-06
-1.37968e-06
6.57924e-06
3.44983e-06
4.47736e-06
6.5353e-06
1.75753e-06
7.07549e-06
3.97931e-06
1.50598e-06
-5.68772e-06
3.15806e-06
-8.52348e-06
3.16308e-06
-5.66944e-06
4.03887e-07
6.70098e-07
-5.92908e-06
9.37468e-06
-1.64026e-05
1.9647e-05
-3.13826e-05
3.08667e-05
-5.10654e-05
4.25622e-05
-7.55143e-05
5.43792e-05
-0.000104688
6.6052e-05
-0.000138464
7.73824e-05
-0.000176655
8.8221e-05
-0.00021903
9.84598e-05
-0.00026532
0.000108018
-0.000315228
0.000116836
-0.000368443
0.000124874
-0.000424637
0.000132106
-0.000483474
0.000138514
-0.000544616
0.000144091
-0.000607722
0.000148838
-0.00067245
0.000152759
-0.000738465
0.000155866
-0.000805434
0.000158172
-0.00087303
0.000159694
-0.000940935
0.000160453
-0.00100884
0.000160469
-0.00107643
0.000159765
-0.00114343
0.000158365
-0.00120955
0.000156294
-0.00127451
0.000153577
-0.00133806
0.000150241
-0.00139995
0.000146312
-0.00145993
0.000141817
-0.00151779
0.000136784
-0.00157329
0.000131241
-0.00162625
0.000125214
-0.00167646
0.000118733
-0.00172375
0.000111825
-0.00176794
0.000104519
-0.00180889
9.68438e-05
-0.00184644
8.88273e-05
-0.00188046
8.04988e-05
-0.00191084
7.18873e-05
-0.00193747
6.3022e-05
-0.00196025
5.3932e-05
-0.0019791
4.46472e-05
-0.00199395
3.51974e-05
-0.00200475
2.56132e-05
-0.00201144
1.59251e-05
-0.00201401
6.1637e-06
-0.00201243
-3.63922e-06
-0.00200671
-1.34514e-05
-0.00199684
-2.32408e-05
-0.00198287
-3.29748e-05
-0.00196481
-4.26201e-05
-0.00194274
-5.21426e-05
-0.00191671
-6.1508e-05
-0.00188681
-7.06814e-05
-0.00185313
-7.9628e-05
-0.00181578
-8.83129e-05
-0.00177489
-9.67007e-05
-0.00173061
-0.000104756
-0.00168308
-0.000112443
-0.00163248
-0.000119727
-0.00157899
-0.000126573
-0.00152281
-0.000132945
-0.00146416
-0.000138809
-0.00140327
-0.000144131
-0.00134037
-0.000148877
-0.00127573
-0.000153016
-0.00120962
-0.000156515
-0.00114231
-0.000159343
-0.0010741
-0.000161471
-0.0010053
-0.000162869
-0.000936222
-0.000163512
-0.000867192
-0.000163377
-0.000798544
-0.000162441
-0.00073062
-0.000160685
-0.000663766
-0.000158092
-0.000598333
-0.000154652
-0.000534675
-0.000150355
-0.000473145
-0.000145199
-0.000414095
-0.000139184
-0.00035787
-0.000132321
-0.000304806
-0.000124625
-0.000255229
-0.000116124
-0.000209444
-0.000106855
-0.000167733
-9.68701e-05
-0.000130348
-8.62402e-05
-9.74975e-05
-7.50578e-05
-6.93375e-05
-6.34458e-05
-4.59566e-05
-5.15668e-05
-2.73571e-05
-3.96355e-05
-1.34323e-05
-2.79358e-05
-3.93811e-06
-1.68436e-05
1.53951e-06
-6.85719e-06
3.62399e-06
1.36536e-06
3.19081e-06
6.96847e-06
1.42502e-06
8.84133e-06
5.40431e-06
8.33218e-07
-6.52099e-06
8.17342e-07
-8.50754e-06
-1.73708e-06
-3.11482e-06
-7.9295e-06
6.86235e-06
-1.85664e-05
2.00117e-05
-3.42248e-05
3.53053e-05
-5.52815e-05
5.19236e-05
-8.19456e-05
6.92262e-05
-0.000114284
8.67175e-05
-0.000152251
0.000104019
-0.000195707
0.000120838
-0.000244441
0.000136955
-0.000298184
0.000152203
-0.000356625
0.000166458
-0.000419416
0.000179627
-0.000486187
0.000191646
-0.000556549
0.000202468
-0.000630103
0.000212068
-0.00070644
0.000220428
-0.000785148
0.000227546
-0.000865816
0.000233427
-0.000948034
0.000238084
-0.0010314
0.000241535
-0.00111551
0.000243805
-0.00119998
0.00024492
-0.00128442
0.000244911
-0.00136846
0.00024381
-0.00145175
0.000241653
-0.00153393
0.000238475
-0.00161467
0.000234317
-0.00169365
0.000229216
-0.00177055
0.000223213
-0.00184508
0.000216348
-0.00191696
0.000208663
-0.00198591
0.000200199
-0.0020517
0.000190999
-0.00211407
0.000181106
-0.00217281
0.000170562
-0.0022277
0.000159411
-0.00227855
0.000147695
-0.00232518
0.00013546
-0.00236743
0.000122749
-0.00240515
0.000109606
-0.00243821
9.6076e-05
-0.00246648
8.22039e-05
-0.00248987
6.80354e-05
-0.00250829
5.36165e-05
-0.00252167
3.89934e-05
-0.00252995
2.42128e-05
-0.00253311
9.32246e-06
-0.00253112
-5.62933e-06
-0.00252398
-2.05938e-05
-0.0025117
-3.55216e-05
-0.00249431
-5.0363e-05
-0.00247186
-6.5067e-05
-0.00244443
-7.95819e-05
-0.00241208
-9.38554e-05
-0.00237492
-0.000107835
-0.00233308
-0.000121469
-0.00228669
-0.000134702
-0.00223591
-0.000147481
-0.00218092
-0.000159753
-0.0021219
-0.000171464
-0.00205906
-0.00018256
-0.00199265
-0.000192987
-0.0019229
-0.000202694
-0.00185008
-0.000211627
-0.00177448
-0.000219735
-0.00169639
-0.000226967
-0.00161613
-0.000233275
-0.00153403
-0.000238611
-0.00145045
-0.000242928
-0.00136574
-0.000246182
-0.00128027
-0.000248332
-0.00119445
-0.000249339
-0.00110865
-0.000249169
-0.00102331
-0.000247789
-0.000938818
-0.000245172
-0.000855613
-0.000241297
-0.000774118
-0.000236147
-0.000694761
-0.000229712
-0.000617969
-0.000221991
-0.000544165
-0.000212988
-0.000473763
-0.000202722
-0.000407167
-0.000191221
-0.000344761
-0.00017853
-0.000286907
-0.000164709
-0.000233934
-0.000149843
-0.000186133
-0.000134041
-0.000143745
-0.000117446
-0.000106948
-0.000100243
-7.5839e-05
-8.26754e-05
-5.04216e-05
-6.5053e-05
-3.05792e-05
-4.77782e-05
-1.60527e-05
-3.13701e-05
-6.41138e-06
-1.64985e-05
-1.02036e-06
-4.02571e-06
9.9543e-07
4.95271e-06
8.02825e-07
9.03396e-06
6.20714e-06
-1.71293e-08
-6.50386e-06
-2.11773e-06
-6.40706e-06
-7.78309e-06
2.55074e-06
-1.80216e-05
1.7101e-05
-3.35833e-05
3.55733e-05
-5.50113e-05
5.67336e-05
-8.2663e-05
7.95753e-05
-0.000116733
0.000103296
-0.000157277
0.000127262
-0.000204235
0.000150976
-0.000257449
0.000174052
-0.000316682
0.000196188
-0.000381634
0.000217155
-0.000451954
0.000236778
-0.000527252
0.000254925
-0.000607109
0.000271503
-0.000691083
0.000286442
-0.000778717
0.000299701
-0.000869543
0.000311254
-0.000963088
0.000321091
-0.00105888
0.000329217
-0.00115644
0.000335645
-0.0012553
0.000340397
-0.001355
0.000343505
-0.00145508
0.000345002
-0.0015551
0.00034493
-0.00165462
0.000343332
-0.00175323
0.000340256
-0.00185051
0.000335752
-0.00194606
0.000329872
-0.00203952
0.000322671
-0.0021305
0.000314202
-0.00221868
0.000304524
-0.00230371
0.000293693
-0.00238528
0.000281769
-0.00246309
0.000268809
-0.00253686
0.000254875
-0.00260632
0.000240025
-0.00267123
0.000224321
-0.00273136
0.000207824
-0.0027865
0.000190595
-0.00283645
0.000172698
-0.00288103
0.000154193
-0.0029201
0.000135144
-0.00295351
0.000115614
-0.00298115
9.5669e-05
-0.0030029
7.53721e-05
-0.0030187
5.47892e-05
-0.00302847
3.39866e-05
-0.00303218
1.30313e-05
-0.0030298
-8.00866e-06
-0.00302133
-2.90646e-05
-0.00300678
-5.0067e-05
-0.0029862
-7.09454e-05
-0.00295964
-9.16284e-05
-0.00292718
-0.000112044
-0.00288892
-0.000132118
-0.00284497
-0.000151777
-0.00279549
-0.000170948
-0.00274064
-0.000189555
-0.0026806
-0.000207524
-0.00261557
-0.000224778
-0.00254579
-0.000241243
-0.00247151
-0.000256844
-0.00239299
-0.000271506
-0.00231053
-0.000285155
-0.00222444
-0.000297718
-0.00213505
-0.000309123
-0.00204272
-0.0003193
-0.00194781
-0.000328182
-0.00185072
-0.000335701
-0.00175186
-0.000341793
-0.00165164
-0.000346399
-0.00155051
-0.000349462
-0.00144892
-0.00035093
-0.00134733
-0.000350754
-0.00124623
-0.000348894
-0.00114609
-0.000345313
-0.0010474
-0.000339982
-0.000950668
-0.000332883
-0.000856376
-0.000324004
-0.000765021
-0.000313346
-0.000677088
-0.000300921
-0.000593053
-0.000286757
-0.000513374
-0.0002709
-0.00043849
-0.000253415
-0.000368808
-0.000234391
-0.000304702
-0.00021395
-0.000246497
-0.000192245
-0.000194463
-0.000169479
-0.0001488
-0.000145907
-0.000109621
-0.000121854
-7.69393e-05
-9.77345e-05
-5.06474e-05
-7.407e-05
-3.04956e-05
-5.15219e-05
-1.60694e-05
-3.09247e-05
-6.76444e-06
-1.33307e-05
-1.75945e-06
-5.22193e-08
2.12085e-08
7.2533e-06
6.22839e-06
-9.52208e-07
-5.55174e-06
-5.38687e-06
-1.97218e-06
-1.45179e-05
1.1682e-05
-2.92167e-05
3.17996e-05
-5.01397e-05
5.64965e-05
-7.77635e-05
8.43572e-05
-0.000112398
0.00011421
-0.000154205
0.000145102
-0.00020321
0.000176268
-0.00025933
0.000207096
-0.000322379
0.000237101
-0.000392093
0.000265903
-0.000468141
0.000293203
-0.000550137
0.000318774
-0.000637651
0.00034244
-0.000730221
0.000364072
-0.000827356
0.000383578
-0.000928551
0.000400895
-0.00103328
0.000415987
-0.00114103
0.000428836
-0.00125125
0.000439442
-0.00136343
0.000447819
-0.00147702
0.000453993
-0.00159152
0.000458001
-0.0017064
0.000459885
-0.00182117
0.000459697
-0.00193533
0.000457492
-0.0020484
0.000453332
-0.00215993
0.00044728
-0.00226947
0.000439405
-0.00237657
0.000429777
-0.00248084
0.000418468
-0.00258187
0.000405552
-0.00267928
0.000391107
-0.00277272
0.000375207
-0.00286184
0.000357933
-0.00294633
0.000339361
-0.00302588
0.000319574
-0.0031002
0.00029865
-0.00316905
0.000276672
-0.00323218
0.000253721
-0.00328936
0.00022988
-0.0033404
0.000205232
-0.00338512
0.000179861
-0.00342335
0.000153851
-0.00345497
0.000127289
-0.00347986
0.000100261
-0.00349793
7.28541e-05
-0.0035091
4.51562e-05
-0.00351332
1.72571e-05
-0.00351058
-1.07525e-05
-0.00350086
-3.87813e-05
-0.00348419
-6.67367e-05
-0.00346061
-9.45251e-05
-0.00343019
-0.000122051
-0.00339301
-0.000149219
-0.0033492
-0.000175931
-0.00329889
-0.000202091
-0.00324224
-0.0002276
-0.00317943
-0.000252357
-0.00311069
-0.000276264
-0.00303625
-0.000299221
-0.00295636
-0.000321129
-0.00287132
-0.000341889
-0.00278142
-0.000361401
-0.00268701
-0.000379567
-0.00258844
-0.000396293
-0.00248608
-0.000411482
-0.00238034
-0.000425043
-0.00227163
-0.000436886
-0.00216041
-0.000446924
-0.00204713
-0.000455073
-0.00193227
-0.000461257
-0.00181633
-0.000465401
-0.00169983
-0.000467437
-0.00158327
-0.000467306
-0.00146722
-0.000464953
-0.00135219
-0.000460334
-0.00123876
-0.000453415
-0.00112747
-0.000444172
-0.00101888
-0.000432595
-0.000913537
-0.000418689
-0.000811983
-0.000402474
-0.000714749
-0.000383992
-0.000622343
-0.000363306
-0.00053525
-0.000340508
-0.000453922
-0.000315719
-0.000378769
-0.000289102
-0.000310153
-0.000260862
-0.000248372
-0.000231261
-0.00019365
-0.000200629
-0.000146125
-0.000169379
-0.000105833
-0.000138027
-7.26895e-05
-0.000107213
-4.64764e-05
-7.7735e-05
-2.68223e-05
-5.0579e-05
-1.31853e-05
-2.69676e-05
-4.8374e-06
-8.40009e-06
-8.41742e-07
3.25766e-06
5.38667e-06
-1.92138e-06
-3.63034e-06
-8.81778e-06
4.92398e-06
-2.16274e-05
2.44914e-05
-4.10521e-05
5.12244e-05
-6.76302e-05
8.30746e-05
-0.000101748
0.000118475
-0.000143647
0.000156109
-0.000193435
0.00019489
-0.000251098
0.000233931
-0.000316514
0.000272511
-0.000389466
0.000310053
-0.000469657
0.000346094
-0.000556721
0.000380268
-0.000650239
0.000412291
-0.000749741
0.000441942
-0.000854725
0.000469056
-0.000964659
0.000493512
-0.00107899
0.000515227
-0.00119715
0.000534149
-0.00131857
0.00055025
-0.00144265
0.000563527
-0.00156883
0.000573993
-0.00169651
0.000581676
-0.00182513
0.000586619
-0.00195411
0.000588873
-0.00208292
0.000588499
-0.00221099
0.000585566
-0.00233781
0.000580148
-0.00246285
0.000572327
-0.00258563
0.000562185
-0.00270567
0.000549812
-0.0028225
0.000535299
-0.00293568
0.000518738
-0.00304481
0.000500227
-0.00314946
0.000479862
-0.00324927
0.000457743
-0.00334388
0.00043397
-0.00343295
0.000408644
-0.00351617
0.000381869
-0.00359324
0.000353747
-0.00366391
0.000324384
-0.00372791
0.000293885
-0.00378504
0.000262356
-0.00383508
0.000229905
-0.00387787
0.00019664
-0.00391325
0.000162671
-0.0039411
0.000128107
-0.00396131
9.30606e-05
-0.00397379
5.76452e-05
-0.00397851
2.19751e-05
-0.00397543
-1.38344e-05
-0.00396455
-4.96665e-05
-0.00394588
-8.54026e-05
-0.00391948
-0.000120923
-0.00388543
-0.000156106
-0.00384382
-0.00019083
-0.00379478
-0.000224971
-0.00373846
-0.000258404
-0.00367506
-0.000291004
-0.00360477
-0.000322645
-0.00352784
-0.0003532
-0.00344452
-0.000382542
-0.0033551
-0.000410545
-0.00325991
-0.000437083
-0.00315928
-0.000462031
-0.00305358
-0.000485263
-0.00294321
-0.00050666
-0.00282859
-0.0005261
-0.00271017
-0.000543468
-0.00258841
-0.000558649
-0.00246379
-0.000571535
-0.00233685
-0.000582022
-0.00220809
-0.000590011
-0.00207808
-0.000595412
-0.00194738
-0.00059814
-0.00181656
-0.00059812
-0.00168623
-0.000595287
-0.00155697
-0.000589588
-0.00142941
-0.000580983
-0.00130413
-0.000569445
-0.00118177
-0.000554964
-0.0010629
-0.000537551
-0.00094814
-0.000517237
-0.000838054
-0.000494078
-0.0007332
-0.00046816
-0.000634106
-0.000439601
-0.000541266
-0.00040856
-0.000455126
-0.000375242
-0.000376082
-0.000339905
-0.000304465
-0.000302878
-0.000240531
-0.000264563
-0.000184448
-0.000225462
-0.000136284
-0.00018619
-9.59962e-05
-0.000147501
-6.34138e-05
-0.000110317
-3.82297e-05
-7.5763e-05
-1.99891e-05
-4.52082e-05
-8.08269e-06
-2.03065e-05
-1.73946e-06
-3.08553e-06
3.64717e-06
-2.89198e-06
-7.38368e-07
-1.23038e-05
1.43359e-05
-2.89005e-05
4.10882e-05
-5.32067e-05
7.55307e-05
-8.56242e-05
0.000115492
-0.000126431
0.000159282
-0.000175787
0.000205465
-0.00023373
0.000252834
-0.000300193
0.000300394
-0.000375006
0.000347325
-0.000457913
0.00039296
-0.000548578
0.000436759
-0.000646599
0.000478289
-0.000751518
0.00051721
-0.000862831
0.000553254
-0.000979994
0.000586219
-0.00110243
0.000615953
-0.00122956
0.000642351
-0.00136075
0.000665344
-0.0014954
0.000684896
-0.00163287
0.000700995
-0.00177253
0.000713653
-0.00191375
0.000722902
-0.00205592
0.000728789
-0.00219842
0.000731373
-0.00234065
0.000730726
-0.00248202
0.000726931
-0.00262195
0.000720077
-0.00275988
0.00071026
-0.00289528
0.000697583
-0.00302762
0.000682152
-0.0031564
0.000664079
-0.00328114
0.000643478
-0.00340137
0.000620466
-0.00351668
0.000595164
-0.00362663
0.000567694
-0.00373084
0.000538178
-0.00382893
0.000506742
-0.00392058
0.000473513
-0.00400545
0.000438619
-0.00408325
0.00040219
-0.00415372
0.000364355
-0.00421661
0.000325246
-0.00427171
0.000284997
-0.00431881
0.000243742
-0.00435775
0.000201616
-0.0043884
0.000158756
-0.00441064
0.000115301
-0.00442439
7.13912e-05
-0.00442958
2.71674e-05
-0.00442619
-1.72269e-05
-0.00441421
-6.16467e-05
-0.00439367
-0.000105945
-0.00436461
-0.000149975
-0.00432714
-0.000193585
-0.00428134
-0.000236625
-0.00422737
-0.000278942
-0.00416539
-0.000320382
-0.00409561
-0.00036079
-0.00401824
-0.000400009
-0.00393355
-0.000437886
-0.00384184
-0.000474262
-0.0037434
-0.000508982
-0.00363859
-0.00054189
-0.00352779
-0.000572833
-0.00341139
-0.000601658
-0.00328984
-0.000628216
-0.00316358
-0.000652359
-0.0030331
-0.000673945
-0.00289892
-0.000692835
-0.00276156
-0.000708895
-0.00262158
-0.000721999
-0.00247956
-0.000732027
-0.00233611
-0.00073887
-0.00219182
-0.000742425
-0.00204734
-0.000742604
-0.0019033
-0.000739328
-0.00176035
-0.000732535
-0.00161915
-0.000722179
-0.00148037
-0.000708231
-0.00134465
-0.000690684
-0.00121265
-0.000669553
-0.001085
-0.000644881
-0.00096234
-0.000616742
-0.000845256
-0.000585244
-0.00073432
-0.000550536
-0.000630066
-0.000512814
-0.000532979
-0.000472329
-0.000443491
-0.000429394
-0.000361968
-0.000384401
-0.000288702
-0.000337828
-0.000223903
-0.000290262
-0.000167681
-0.000242412
-0.000120045
-0.000195137
-8.08878e-05
-0.000149475
-4.9982e-05
-0.000106669
-2.6976e-05
-6.82142e-05
-1.1395e-05
-3.58875e-05
-2.64475e-06
-1.18358e-05
1.00238e-06
-3.84513e-06
3.10687e-06
-1.57751e-05
2.62658e-05
-3.61997e-05
6.15127e-05
-6.54615e-05
0.000104792
-0.000103817
0.000153848
-0.000151431
0.000206896
-0.000208362
0.000262396
-0.000274574
0.000319046
-0.000349932
0.000375752
-0.000434213
0.000431605
-0.00052711
0.000485857
-0.000628245
0.000537894
-0.000737176
0.00058722
-0.000853404
0.000633438
-0.000976386
0.000676236
-0.00110554
0.000715372
-0.00124025
0.000750666
-0.00137989
0.000781989
-0.0015238
0.000809254
-0.00167132
0.000832414
-0.00182177
0.00085145
-0.00197449
0.000866373
-0.00212881
0.000877216
-0.00228405
0.00088403
-0.00243956
0.000886885
-0.0025947
0.000885864
-0.00274883
0.000881061
-0.00290133
0.000872582
-0.00305161
0.000860539
-0.00319909
0.000845055
-0.00334319
0.000826256
-0.00348339
0.000804274
-0.00361916
0.000779247
-0.00375
0.000751314
-0.00387546
0.000720619
-0.00399507
0.000687308
-0.00410843
0.00065153
-0.00421512
0.000613437
-0.00431479
0.000573179
-0.00440708
0.000530912
-0.00449168
0.000486792
-0.0045683
0.000440976
-0.00463668
0.000393623
-0.00469657
0.000344894
-0.00474778
0.000294951
-0.00479013
0.000243958
-0.00482345
0.00019208
-0.00484763
0.000139485
-0.00486258
8.63427e-05
-0.00486824
3.28233e-05
-0.00486457
-2.09e-05
-0.00485156
-7.46521e-05
-0.00482925
-0.000128256
-0.00479769
-0.000181533
-0.00475698
-0.000234302
-0.00470722
-0.00028638
-0.00464858
-0.000337584
-0.00458123
-0.000387728
-0.0045054
-0.000436625
-0.00442132
-0.000484087
-0.00432928
-0.000529928
-0.00422958
-0.000573958
-0.00412257
-0.000615991
-0.00400862
-0.000655839
-0.00388814
-0.000693318
-0.00376155
-0.000728244
-0.00362933
-0.000760438
-0.00349197
-0.000789725
-0.00334998
-0.000815932
-0.00320392
-0.000838894
-0.00305436
-0.000858453
-0.00290191
-0.000874457
-0.00274717
-0.000886765
-0.00259079
-0.000895245
-0.00243344
-0.000899779
-0.00227578
-0.000900261
-0.00211851
-0.000896602
-0.00196231
-0.000888728
-0.0018079
-0.000876588
-0.00165599
-0.00086015
-0.00150726
-0.00083941
-0.00136242
-0.000814391
-0.00122216
-0.000785147
-0.00108713
-0.000751769
-0.000957982
-0.000714391
-0.000835325
-0.000673193
-0.000719729
-0.000628409
-0.000611722
-0.000580336
-0.000511773
-0.000529343
-0.00042029
-0.000475884
-0.000337608
-0.00042051
-0.000263981
-0.000363888
-0.000199575
-0.000306818
-0.00014446
-0.000250253
-9.86021e-05
-0.000195332
-6.18662e-05
-0.000143405
-3.40138e-05
-9.60667e-05
-1.47114e-05
-5.51898e-05
-3.54183e-06
-2.30054e-05
-2.53944e-06
-4.77213e-06
7.87886e-06
-1.91929e-05
4.06867e-05
-4.34365e-05
8.57563e-05
-7.76704e-05
0.000139026
-0.000122006
0.000198184
-0.000176479
0.00026137
-0.000241051
0.000326968
-0.000315596
0.00039359
-0.000399907
0.000460062
-0.000493696
0.000525395
-0.000596604
0.000588765
-0.000708201
0.000649492
-0.000828001
0.00070702
-0.000955463
0.0007609
-0.00109
0.000810776
-0.001231
0.000856368
-0.0013778
0.000897466
-0.00152973
0.000933917
-0.00168609
0.000965619
-0.00184619
0.000992511
-0.00200931
0.00101457
-0.00217473
0.0010318
-0.00234176
0.00104424
-0.00250967
0.00105195
-0.00267778
0.00105499
-0.00284539
0.00105348
-0.00301184
0.00104751
-0.00317647
0.00103721
-0.00333863
0.0010227
-0.00349772
0.00100414
-0.00365313
0.000981664
-0.00380428
0.00095543
-0.00395063
0.000925597
-0.00409165
0.00089233
-0.00422683
0.000855799
-0.0043557
0.000816177
-0.0044778
0.000773636
-0.00459272
0.000728356
-0.00470006
0.000680517
-0.00479945
0.000630302
-0.00489055
0.000577893
-0.00497305
0.000523478
-0.00504668
0.000467246
-0.00511117
0.000409386
-0.00516631
0.00035009
-0.0052119
0.000289552
-0.00524779
0.000227969
-0.00527384
0.000165538
-0.00528996
0.000102461
-0.00529608
3.89388e-05
-0.00529216
-2.48226e-05
-0.00527819
-8.86164e-05
-0.00525421
-0.000152233
-0.00522029
-0.00021546
-0.0051765
-0.000278085
-0.00512299
-0.000339892
-0.00505991
-0.000400662
-0.00498746
-0.000460177
-0.00490587
-0.000518216
-0.0048154
-0.000574558
-0.00471635
-0.000628981
-0.00460905
-0.000681263
-0.00449385
-0.000731182
-0.00437117
-0.000778519
-0.00424143
-0.000823057
-0.0041051
-0.000864579
-0.00396266
-0.000902874
-0.00381465
-0.000937736
-0.00366162
-0.000968962
-0.00350416
-0.00099636
-0.00334287
-0.00101974
-0.00317839
-0.00103894
-0.00301138
-0.00105377
-0.00284253
-0.0010641
-0.00267253
-0.00106977
-0.00250211
-0.00107068
-0.00233199
-0.00106672
-0.00216292
-0.0010578
-0.00199563
-0.00104387
-0.00183088
-0.0010249
-0.00166942
-0.00100087
-0.00151199
-0.000971827
-0.0013593
-0.000937832
-0.00121207
-0.000898996
-0.00107099
-0.000855476
-0.000936698
-0.000807485
-0.000809813
-0.000755294
-0.000690903
-0.000699246
-0.000580481
-0.000639765
-0.000478999
-0.000577366
-0.000386841
-0.000512668
-0.000304315
-0.000446414
-0.000231647
-0.000379486
-0.000168976
-0.000312924
-0.000116353
-0.000247955
-7.37403e-05
-0.000186018
-4.10172e-05
-0.00012879
-1.79933e-05
-7.82137e-05
-4.4217e-06
-3.6577e-05
-6.96112e-06
-5.66918e-06
1.3548e-05
-2.25349e-05
5.75524e-05
-5.05601e-05
0.000113782
-8.97444e-05
0.00017821
-0.000140052
0.000248491
-0.000201397
0.000322715
-0.000273631
0.000399201
-0.000356536
0.000476495
-0.000449824
0.000553351
-0.000553141
0.000628711
-0.000666064
0.000701688
-0.000788112
0.000771539
-0.000918746
0.000837654
-0.00105738
0.000899536
-0.00120339
0.000956785
-0.00135611
0.00100909
-0.00151485
0.0010562
-0.00167889
0.00109796
-0.0018475
0.00113423
-0.00201994
0.00116495
-0.00219546
0.00119009
-0.00237331
0.00120965
-0.00255274
0.00122366
-0.00273299
0.0012322
-0.00291335
0.00123535
-0.00309308
0.00123321
-0.00327147
0.0012259
-0.00344783
0.00121357
-0.0036215
0.00119637
-0.0037918
0.00117445
-0.00395813
0.00114798
-0.00411985
0.00111715
-0.0042764
0.00108214
-0.00442721
0.00104314
-0.00457175
0.00100034
-0.00470952
0.000953947
-0.00484004
0.000904158
-0.00496287
0.000851182
-0.00507758
0.000795229
-0.00518379
0.000736509
-0.00528113
0.000675238
-0.00536929
0.000611633
-0.00544795
0.000545912
-0.00551686
0.000478296
-0.00557578
0.00040901
-0.00562451
0.000338279
-0.00566288
0.000266332
-0.00569074
0.0001934
-0.00570799
0.000119716
-0.00571457
4.55161e-05
-0.00571043
-2.89614e-05
-0.00569557
-0.000103475
-0.00567002
-0.000177781
-0.00563385
-0.000251633
-0.00558715
-0.000324783
-0.00553007
-0.000396979
-0.00546276
-0.000467968
-0.00538545
-0.000537495
-0.00529836
-0.000605304
-0.00520178
-0.000671138
-0.00509602
-0.000734739
-0.00498143
-0.00079585
-0.0048584
-0.000854214
-0.00472734
-0.000909575
-0.00458872
-0.000961681
-0.00444301
-0.00101028
-0.00429075
-0.00105514
-0.00413249
-0.001096
-0.00396881
-0.00113264
-0.00380033
-0.00116484
-0.0036277
-0.00119238
-0.00345159
-0.00121505
-0.00327269
-0.00123267
-0.00309173
-0.00124506
-0.00290944
-0.00125206
-0.00272659
-0.00125354
-0.00254393
-0.00124937
-0.00236227
-0.00123947
-0.00218237
-0.00122377
-0.00200504
-0.00120223
-0.00183105
-0.00117485
-0.0016612
-0.00114168
-0.00149625
-0.00110279
-0.00133694
-0.0010583
-0.00118401
-0.00100841
-0.00103814
-0.000953349
-0.000900005
-0.000893433
-0.000770202
-0.000829049
-0.000649296
-0.000760672
-0.000537788
-0.000688873
-0.000436117
-0.00061434
-0.000344649
-0.000537882
-0.000263677
-0.000460457
-0.000193417
-0.000383184
-0.000134008