/*--------------------------------*- C++ -*----------------------------------*\
  =========                 |
  \\      /  F ield         | OpenFOAM: The Open Source CFD Toolbox
   \\    /   O peration     | Website:  https://openfoam.org
    \\  /    A nd           | Version:  11
     \\/     M anipulation  |
\*---------------------------------------------------------------------------*/
FoamFile
{
    format      ascii;
    class       volVectorField;
    location    "4.9";
    object      U;
}
// * * * * * * * * * * * * * * * * * * * * * * * * * * * * * * * * * * * * * //

dimensions      [0 1 -1 0 0 0 0];

internalField   nonuniform List<vector> 
10100
(
(3.14106e-06 -2.83221e-06 0)
(1.39609e-05 -6.57089e-06 0)
(3.01121e-05 -6.89812e-06 0)
(4.40559e-05 -5.37887e-06 0)
(5.19448e-05 -2.98859e-06 0)
(5.19952e-05 -2.56973e-07 0)
(4.33091e-05 2.62033e-06 0)
(2.54943e-05 5.48565e-06 0)
(-1.53182e-06 8.3031e-06 0)
(-3.75995e-05 1.10125e-05 0)
(-8.24139e-05 1.36113e-05 0)
(-0.000135589 1.60536e-05 0)
(-0.000196632 1.83493e-05 0)
(-0.000265005 2.04621e-05 0)
(-0.000340173 2.23881e-05 0)
(-0.000421506 2.41542e-05 0)
(-0.000508425 2.57301e-05 0)
(-0.000600318 2.71068e-05 0)
(-0.000696518 2.83062e-05 0)
(-0.00079645 2.93146e-05 0)
(-0.000899497 3.0142e-05 0)
(-0.00100503 3.08069e-05 0)
(-0.00111251 3.12925e-05 0)
(-0.00122135 3.15963e-05 0)
(-0.001331 3.17488e-05 0)
(-0.00144093 3.1768e-05 0)
(-0.00155066 3.16471e-05 0)
(-0.00165967 3.139e-05 0)
(-0.0017675 3.09985e-05 0)
(-0.00187369 3.04648e-05 0)
(-0.00197781 2.97944e-05 0)
(-0.00207944 2.90089e-05 0)
(-0.00217819 2.81214e-05 0)
(-0.00227368 2.71287e-05 0)
(-0.00236555 2.6032e-05 0)
(-0.00245346 2.48406e-05 0)
(-0.00253709 2.35618e-05 0)
(-0.00261615 2.21984e-05 0)
(-0.00269034 2.07567e-05 0)
(-0.00275941 1.92446e-05 0)
(-0.00282312 1.76636e-05 0)
(-0.00288125 1.60173e-05 0)
(-0.00293358 1.43151e-05 0)
(-0.00297995 1.2565e-05 0)
(-0.00302018 1.07751e-05 0)
(-0.00305413 8.94751e-06 0)
(-0.00308168 7.08098e-06 0)
(-0.00310272 5.18303e-06 0)
(-0.00311716 3.2636e-06 0)
(-0.00312494 1.32707e-06 0)
(-0.00312601 -6.20798e-07 0)
(-0.00312037 -2.5731e-06 0)
(-0.00310799 -4.52499e-06 0)
(-0.0030889 -6.46951e-06 0)
(-0.00306316 -8.40003e-06 0)
(-0.00303081 -1.03128e-05 0)
(-0.00299195 -1.21987e-05 0)
(-0.00294671 -1.40433e-05 0)
(-0.00289521 -1.58393e-05 0)
(-0.00283764 -1.75855e-05 0)
(-0.00277417 -1.92763e-05 0)
(-0.00270503 -2.09021e-05 0)
(-0.00263045 -2.24543e-05 0)
(-0.0025507 -2.39247e-05 0)
(-0.00246606 -2.53058e-05 0)
(-0.00237685 -2.65934e-05 0)
(-0.00228341 -2.77824e-05 0)
(-0.00218609 -2.88641e-05 0)
(-0.00208528 -2.98301e-05 0)
(-0.00198138 -3.06769e-05 0)
(-0.00187482 -3.13999e-05 0)
(-0.00176605 -3.19895e-05 0)
(-0.00165554 -3.24346e-05 0)
(-0.00154378 -3.27287e-05 0)
(-0.00143131 -3.28674e-05 0)
(-0.00131866 -3.2845e-05 0)
(-0.00120639 -3.26542e-05 0)
(-0.00109508 -3.22883e-05 0)
(-0.00098532 -3.17415e-05 0)
(-0.000877716 -3.10079e-05 0)
(-0.000772889 -3.00825e-05 0)
(-0.000671469 -2.89628e-05 0)
(-0.000574094 -2.76477e-05 0)
(-0.000481404 -2.61348e-05 0)
(-0.00039404 -2.4421e-05 0)
(-0.000312636 -2.25055e-05 0)
(-0.000237814 -2.03928e-05 0)
(-0.000170174 -1.80911e-05 0)
(-0.000110285 -1.56084e-05 0)
(-5.86788e-05 -1.29508e-05 0)
(-1.58304e-05 -1.01284e-05 0)
(1.78628e-05 -7.16358e-06 0)
(4.21219e-05 -4.094e-06 0)
(5.68445e-05 -9.84316e-07 0)
(6.21952e-05 2.05865e-06 0)
(5.87404e-05 4.85329e-06 0)
(4.76486e-05 7.07872e-06 0)
(3.11266e-05 8.15716e-06 0)
(1.36718e-05 7.08248e-06 0)
(2.76476e-06 2.76258e-06 0)
(7.89838e-06 -1.42909e-05 0)
(2.97023e-05 -2.77805e-05 0)
(5.70544e-05 -2.73717e-05 0)
(7.67698e-05 -1.879e-05 0)
(8.10727e-05 -5.45594e-06 0)
(6.56038e-05 1.05106e-05 0)
(2.76799e-05 2.78623e-05 0)
(-3.41564e-05 4.57386e-05 0)
(-0.000120393 6.35873e-05 0)
(-0.000230904 8.10518e-05 0)
(-0.000365056 9.78319e-05 0)
(-0.000521885 0.000113791 0)
(-0.000700203 0.00012876 0)
(-0.000898657 0.000142659 0)
(-0.00111569 0.000155431 0)
(-0.00134978 0.000167024 0)
(-0.00159928 0.00017741 0)
(-0.00186247 0.000186593 0)
(-0.00213772 0.00019454 0)
(-0.00242332 0.000201278 0)
(-0.00271758 0.000206833 0)
(-0.00301888 0.000211236 0)
(-0.00332559 0.0002145 0)
(-0.00363611 0.000216662 0)
(-0.00394894 0.000217755 0)
(-0.00426258 0.000217819 0)
(-0.00457558 0.000216897 0)
(-0.00488655 0.00021503 0)
(-0.00519415 0.000212248 0)
(-0.00549709 0.000208577 0)
(-0.0057941 0.000204057 0)
(-0.00608402 0.000198729 0)
(-0.00636571 0.000192634 0)
(-0.0066381 0.000185809 0)
(-0.00690016 0.000178293 0)
(-0.0071509 0.000170125 0)
(-0.00738943 0.000161338 0)
(-0.00761489 0.000151974 0)
(-0.00782647 0.000142073 0)
(-0.00802341 0.000131675 0)
(-0.00820502 0.000120816 0)
(-0.00837067 0.00010953 0)
(-0.00851977 9.78598e-05 0)
(-0.00865181 8.58493e-05 0)
(-0.00876631 7.35326e-05 0)
(-0.00886287 6.09481e-05 0)
(-0.00894114 4.81364e-05 0)
(-0.0090008 3.51355e-05 0)
(-0.00904162 2.19868e-05 0)
(-0.00906344 8.73212e-06 0)
(-0.00906614 -4.58846e-06 0)
(-0.00904965 -1.79314e-05 0)
(-0.00901399 -3.12503e-05 0)
(-0.00895923 -4.45026e-05 0)
(-0.00888549 -5.76479e-05 0)
(-0.00879299 -7.064e-05 0)
(-0.008682 -8.3425e-05 0)
(-0.00855284 -9.59483e-05 0)
(-0.00840592 -0.000108162 0)
(-0.00824173 -0.000120022 0)
(-0.0080608 -0.000131483 0)
(-0.00786375 -0.000142495 0)
(-0.00765126 -0.000153008 0)
(-0.00742409 -0.000162971 0)
(-0.00718306 -0.000172337 0)
(-0.00692905 -0.000181059 0)
(-0.00666304 -0.000189091 0)
(-0.00638605 -0.000196385 0)
(-0.00609918 -0.000202896 0)
(-0.00580356 -0.000208582 0)
(-0.00550045 -0.000213401 0)
(-0.00519113 -0.000217304 0)
(-0.00487694 -0.000220239 0)
(-0.00455929 -0.000222163 0)
(-0.00423964 -0.000223039 0)
(-0.00391953 -0.00022283 0)
(-0.00360052 -0.000221499 0)
(-0.00328422 -0.000219013 0)
(-0.00297227 -0.00021534 0)
(-0.00266638 -0.000210456 0)
(-0.00236824 -0.00020434 0)
(-0.00207959 -0.000196979 0)
(-0.00180217 -0.000188364 0)
(-0.00153773 -0.00017849 0)
(-0.00128798 -0.000167365 0)
(-0.00105461 -0.00015501 0)
(-0.000839262 -0.000141465 0)
(-0.000643502 -0.000126786 0)
(-0.000468791 -0.000111045 0)
(-0.000316439 -9.43392e-05 0)
(-0.000187549 -7.68107e-05 0)
(-8.29596e-05 -5.86677e-05 0)
(-3.1369e-06 -4.02121e-05 0)
(5.197e-05 -2.18839e-05 0)
(8.31418e-05 -4.33803e-06 0)
(9.21725e-05 1.14378e-05 0)
(8.21977e-05 2.39424e-05 0)
(5.82396e-05 3.08793e-05 0)
(2.88525e-05 2.87994e-05 0)
(7.10643e-06 1.36566e-05 0)
(9.34649e-06 -3.26958e-05 0)
(3.251e-05 -5.66278e-05 0)
(5.71724e-05 -5.06761e-05 0)
(6.74192e-05 -2.66501e-05 0)
(5.35922e-05 8.8039e-06 0)
(9.79985e-06 5.15267e-05 0)
(-6.78347e-05 9.82384e-05 0)
(-0.000181598 0.000146867 0)
(-0.000332428 0.000195764 0)
(-0.000520281 0.000243851 0)
(-0.000744344 0.000290341 0)
(-0.00100332 0.000334634 0)
(-0.00129549 0.000376341 0)
(-0.00161875 0.000415166 0)
(-0.00197093 0.000450889 0)
(-0.00234959 0.00048338 0)
(-0.00275222 0.000512565 0)
(-0.00317629 0.000538363 0)
(-0.00361916 0.000560771 0)
(-0.00407823 0.000579817 0)
(-0.00455093 0.000595525 0)
(-0.00503466 0.000607969 0)
(-0.00552688 0.00061723 0)
(-0.00602513 0.000623364 0)
(-0.00652696 0.000626466 0)
(-0.00703 0.000626635 0)
(-0.00753197 0.000623956 0)
(-0.00803065 0.000618539 0)
(-0.00852389 0.000610496 0)
(-0.00900962 0.000599922 0)
(-0.00948586 0.000586917 0)
(-0.0099507 0.000571593 0)
(-0.0104023 0.000554058 0)
(-0.010839 0.000534417 0)
(-0.0112591 0.000512782 0)
(-0.0116611 0.000489265 0)
(-0.0120435 0.000463972 0)
(-0.0124049 0.000437011 0)
(-0.012744 0.000408499 0)
(-0.0130596 0.000378546 0)
(-0.0133506 0.000347264 0)
(-0.013616 0.000314766 0)
(-0.0138548 0.000281162 0)
(-0.0140663 0.000246567 0)
(-0.0142496 0.000211094 0)
(-0.0144041 0.000174852 0)
(-0.0145292 0.000137959 0)
(-0.0146245 0.000100537 0)
(-0.0146896 6.27013e-05 0)
(-0.0147242 2.45678e-05 0)
(-0.0147281 -1.37383e-05 0)
(-0.0147013 -5.20931e-05 0)
(-0.0146438 -9.0371e-05 0)
(-0.0145557 -0.000128442 0)
(-0.0144372 -0.000166181 0)
(-0.0142887 -0.000203458 0)
(-0.0141105 -0.00024013 0)
(-0.0139034 -0.000276053 0)
(-0.0136678 -0.000311092 0)
(-0.0134046 -0.000345113 0)
(-0.0131146 -0.000377977 0)
(-0.0127989 -0.000409543 0)
(-0.0124585 -0.000439674 0)
(-0.0120946 -0.000468229 0)
(-0.0117086 -0.000495068 0)
(-0.0113018 -0.000520056 0)
(-0.0108759 -0.000543055 0)
(-0.0104324 -0.000563932 0)
(-0.00997317 -0.000582554 0)
(-0.0095 -0.000598796 0)
(-0.00901486 -0.000612534 0)
(-0.00851982 -0.000623637 0)
(-0.00801702 -0.000631978 0)
(-0.0075087 -0.000637438 0)
(-0.00699719 -0.000639909 0)
(-0.00648491 -0.000639292 0)
(-0.00597434 -0.000635491 0)
(-0.005468 -0.00062842 0)
(-0.0049685 -0.000618005 0)
(-0.00447848 -0.000604185 0)
(-0.00400062 -0.000586915 0)
(-0.00353761 -0.000566167 0)
(-0.00309216 -0.000541932 0)
(-0.00266694 -0.000514222 0)
(-0.00226458 -0.00048308 0)
(-0.00188765 -0.000448589 0)
(-0.00153864 -0.000410879 0)
(-0.00121989 -0.000370133 0)
(-0.00093353 -0.000326596 0)
(-0.000681459 -0.000280602 0)
(-0.00046521 -0.000232614 0)
(-0.00028587 -0.000183271 0)
(-0.000143941 -0.000133459 0)
(-3.91385e-05 -8.4406e-05 0)
(2.98672e-05 -3.78352e-05 0)
(6.5775e-05 3.82812e-06 0)
(7.29734e-05 3.71706e-05 0)
(5.79932e-05 5.74653e-05 0)
(3.12109e-05 5.82792e-05 0)
(8.26014e-06 3.11951e-05 0)
(8.38571e-06 -5.04884e-05 0)
(2.56831e-05 -8.02483e-05 0)
(3.69542e-05 -6.2028e-05 0)
(2.57535e-05 -1.45812e-05 0)
(-1.8011e-05 5.24139e-05 0)
(-0.000100902 0.000132111 0)
(-0.000227503 0.000219446 0)
(-0.000400482 0.000310432 0)
(-0.000621143 0.000402335 0)
(-0.000889452 0.000492983 0)
(-0.00120458 0.000580862 0)
(-0.00156494 0.000664822 0)
(-0.00196838 0.000744056 0)
(-0.00241242 0.000817937 0)
(-0.00289416 0.000886045 0)
(-0.00341056 0.000948082 0)
(-0.00395843 0.00100385 0)
(-0.00453442 0.00105323 0)
(-0.00513517 0.0010962 0)
(-0.00575725 0.00113274 0)
(-0.00639726 0.00116292 0)
(-0.00705181 0.00118683 0)
(-0.00771754 0.00120459 0)
(-0.00839117 0.00121635 0)
(-0.00906946 0.00122226 0)
(-0.00974926 0.00122248 0)
(-0.0104275 0.00121718 0)
(-0.0111012 0.00120657 0)
(-0.0117674 0.00119083 0)
(-0.0124235 0.00117016 0)
(-0.0130667 0.00114477 0)
(-0.0136945 0.00111486 0)
(-0.0143045 0.00108063 0)
(-0.0148942 0.00104229 0)
(-0.0154615 0.00100007 0)
(-0.0160043 0.000954171 0)
(-0.0165206 0.000904807 0)
(-0.0170085 0.000852189 0)
(-0.0174663 0.000796538 0)
(-0.0178924 0.000738074 0)
(-0.0182852 0.00067701 0)
(-0.0186434 0.000613568 0)
(-0.0189657 0.000547976 0)
(-0.019251 0.000480449 0)
(-0.0194983 0.000411205 0)
(-0.0197066 0.000340473 0)
(-0.0198753 0.00026848 0)
(-0.0200036 0.00019546 0)
(-0.0200912 0.000121645 0)
(-0.0201376 4.72652e-05 0)
(-0.0201426 -2.74398e-05 0)
(-0.020106 -0.000102221 0)
(-0.020028 -0.000176834 0)
(-0.0199087 -0.000251034 0)
(-0.0197485 -0.000324566 0)
(-0.0195477 -0.000397169 0)
(-0.019307 -0.00046858 0)
(-0.0190271 -0.000538532 0)
(-0.0187089 -0.000606759 0)
(-0.0183535 -0.000672993 0)
(-0.017962 -0.000736967 0)
(-0.0175358 -0.000798409 0)
(-0.0170763 -0.000857045 0)
(-0.0165852 -0.000912607 0)
(-0.0160643 -0.000964829 0)
(-0.0155154 -0.00101344 0)
(-0.0149408 -0.00105818 0)
(-0.0143425 -0.00109878 0)
(-0.0137229 -0.00113498 0)
(-0.0130845 -0.00116656 0)
(-0.0124301 -0.00119324 0)
(-0.0117622 -0.0012148 0)
(-0.0110839 -0.00123101 0)
(-0.0103981 -0.00124163 0)
(-0.00970789 -0.00124648 0)
(-0.00901654 -0.00124535 0)
(-0.00832732 -0.00123808 0)
(-0.00764361 -0.00122452 0)
(-0.00696885 -0.00120453 0)
(-0.00630653 -0.00117802 0)
(-0.0056602 -0.00114491 0)
(-0.00503339 -0.00110516 0)
(-0.00442963 -0.00105879 0)
(-0.00385241 -0.00100584 0)
(-0.00330514 -0.000946432 0)
(-0.00279116 -0.000880747 0)
(-0.00231361 -0.000809068 0)
(-0.00187547 -0.000731779 0)
(-0.00147943 -0.000649399 0)
(-0.0011278 -0.000562626 0)
(-0.000822444 -0.000472394 0)
(-0.00056462 -0.000379959 0)
(-0.000354835 -0.000287002 0)
(-0.000192636 -0.000195784 0)
(-7.63425e-05 -0.000109353 0)
(-2.74199e-06 -3.18192e-05 0)
(3.31964e-05 3.12865e-05 0)
(3.8709e-05 7.26581e-05 0)
(2.47309e-05 8.2701e-05 0)
(7.28669e-06 4.79861e-05 0)
(6.1046e-06 -6.27503e-05 0)
(1.29234e-05 -8.97487e-05 0)
(3.03687e-06 -5.09715e-05 0)
(-3.81962e-05 2.83085e-05 0)
(-0.000120673 0.00013538 0)
(-0.000250973 0.000261071 0)
(-0.000433821 0.000398104 0)
(-0.000672108 0.00054099 0)
(-0.00096708 0.000685404 0)
(-0.00131887 0.000828193 0)
(-0.00172641 0.000966888 0)
(-0.00218795 0.00109969 0)
(-0.00270107 0.00122521 0)
(-0.0032628 0.00134248 0)
(-0.00386985 0.00145073 0)
(-0.00451862 0.00154946 0)
(-0.00520526 0.00163831 0)
(-0.00592584 0.00171709 0)
(-0.00667631 0.00178567 0)
(-0.00745256 0.00184406 0)
(-0.00825047 0.00189231 0)
(-0.00906591 0.00193052 0)
(-0.00989482 0.00195887 0)
(-0.0107332 0.00197757 0)
(-0.011577 0.00198684 0)
(-0.0124225 0.00198695 0)
(-0.0132658 0.00197817 0)
(-0.0141034 0.00196079 0)
(-0.0149316 0.0019351 0)
(-0.015747 0.00190143 0)
(-0.0165464 0.00186009 0)
(-0.0173265 0.00181143 0)
(-0.0180844 0.00175576 0)
(-0.0188171 0.00169343 0)
(-0.0195219 0.00162478 0)
(-0.0201963 0.00155015 0)
(-0.0208376 0.00146989 0)
(-0.0214437 0.00138436 0)
(-0.0220124 0.00129389 0)
(-0.0225416 0.00119884 0)
(-0.0230294 0.00109957 0)
(-0.0234742 0.000996438 0)
(-0.0238744 0.000889801 0)
(-0.0242286 0.000780025 0)
(-0.0245355 0.000667467 0)
(-0.024794 0.000552497 0)
(-0.0250032 0.000435493 0)
(-0.0251624 0.000316825 0)
(-0.0252708 0.000196873 0)
(-0.0253281 7.60226e-05 0)
(-0.025334 -4.5334e-05 0)
(-0.0252883 -0.000166801 0)
(-0.0251912 -0.000287977 0)
(-0.0250427 -0.00040846 0)
(-0.0248434 -0.00052784 0)
(-0.0245938 -0.000645693 0)
(-0.0242946 -0.000761591 0)
(-0.0239468 -0.000875108 0)
(-0.0235515 -0.000985817 0)
(-0.02311 -0.00109329 0)
(-0.0226238 -0.00119707 0)
(-0.0220944 -0.00129674 0)
(-0.0215238 -0.00139185 0)
(-0.020914 -0.00148197 0)
(-0.0202672 -0.00156666 0)
(-0.0195857 -0.0016455 0)
(-0.0188722 -0.00171805 0)
(-0.0181294 -0.00178389 0)
(-0.0173601 -0.00184261 0)
(-0.0165676 -0.00189381 0)
(-0.0157549 -0.00193711 0)
(-0.0149257 -0.00197211 0)
(-0.0140833 -0.00199846 0)
(-0.0132314 -0.0020158 0)
(-0.012374 -0.00202383 0)
(-0.0115149 -0.00202224 0)
(-0.0106582 -0.00201079 0)
(-0.00980797 -0.00198922 0)
(-0.00896844 -0.00195736 0)
(-0.00814387 -0.00191506 0)
(-0.00733855 -0.00186224 0)
(-0.00655675 -0.00179885 0)
(-0.00580273 -0.00172494 0)
(-0.00508069 -0.00164063 0)
(-0.00439473 -0.00154613 0)
(-0.00374879 -0.00144178 0)
(-0.00314662 -0.00132808 0)
(-0.0025917 -0.00120569 0)
(-0.00208718 -0.00107548 0)
(-0.00163572 -0.000938621 0)
(-0.00123945 -0.000796633 0)
(-0.000899783 -0.000651512 0)
(-0.00061728 -0.000505871 0)
(-0.000391436 -0.000363126 0)
(-0.000220438 -0.00022775 0)
(-0.000100904 -0.000105592 0)
(-2.76243e-05 -4.27811e-06 0)
(6.78044e-06 6.63833e-05 0)
(1.28508e-05 9.37299e-05 0)
(5.19839e-06 5.96422e-05 0)
(3.14632e-06 -6.71344e-05 0)
(-3.28837e-06 -7.99436e-05 0)
(-3.92347e-05 -1.09566e-05 0)
(-0.000116644 0.000109245 0)
(-0.000244043 0.000265094 0)
(-0.00042789 0.000445252 0)
(-0.000672612 0.000640532 0)
(-0.00098089 0.000843688 0)
(-0.00135401 0.00104907 0)
(-0.00179178 0.0012523 0)
(-0.00229314 0.00144998 0)
(-0.00285605 0.00163951 0)
(-0.00347777 0.00181894 0)
(-0.00415507 0.00198677 0)
(-0.00488417 0.00214189 0)
(-0.00566101 0.00228354 0)
(-0.00648129 0.00241113 0)
(-0.00734048 0.00252433 0)
(-0.00823395 0.00262295 0)
(-0.00915698 0.00270693 0)
(-0.0101048 0.00277632 0)
(-0.0110728 0.00283125 0)
(-0.0120561 0.00287193 0)
(-0.01305 0.00289862 0)
(-0.01405 0.00291164 0)
(-0.0150516 0.00291134 0)
(-0.0160504 0.00289811 0)
(-0.0170421 0.00287236 0)
(-0.0180225 0.0028345 0)
(-0.0189876 0.002785 0)
(-0.0199336 0.00272432 0)
(-0.0208567 0.00265291 0)
(-0.0217534 0.00257128 0)
(-0.0226202 0.0024799 0)
(-0.023454 0.00237928 0)
(-0.0242516 0.00226991 0)
(-0.0250102 0.0021523 0)
(-0.025727 0.00202695 0)
(-0.0263994 0.00189439 0)
(-0.0270252 0.00175513 0)
(-0.027602 0.00160969 0)
(-0.0281279 0.00145859 0)
(-0.028601 0.00130237 0)
(-0.0290196 0.00114154 0)
(-0.0293823 0.000976656 0)
(-0.0296878 0.00080825 0)
(-0.029935 0.000636873 0)
(-0.0301229 0.000463075 0)
(-0.0302509 0.00028741 0)
(-0.0303184 0.000110444 0)
(-0.0303251 -6.72417e-05 0)
(-0.0302708 -0.000245067 0)
(-0.0301557 -0.000422451 0)
(-0.0299799 -0.0005988 0)
(-0.029744 -0.000773509 0)
(-0.0294487 -0.000945962 0)
(-0.0290948 -0.00111554 0)
(-0.0286834 -0.00128162 0)
(-0.0282159 -0.00144358 0)
(-0.0276938 -0.00160078 0)
(-0.0271189 -0.00175259 0)
(-0.026493 -0.00189837 0)
(-0.0258184 -0.00203747 0)
(-0.0250974 -0.00216928 0)
(-0.0243327 -0.00229315 0)
(-0.0235271 -0.00240845 0)
(-0.0226835 -0.00251456 0)
(-0.0218052 -0.00261088 0)
(-0.0208957 -0.00269681 0)
(-0.0199586 -0.00277177 0)
(-0.0189976 -0.00283519 0)
(-0.0180168 -0.00288653 0)
(-0.0170203 -0.00292527 0)
(-0.0160125 -0.00295092 0)
(-0.0149977 -0.00296304 0)
(-0.0139807 -0.00296121 0)
(-0.012966 -0.00294507 0)
(-0.0119586 -0.00291431 0)
(-0.0109632 -0.00286866 0)
(-0.00998489 -0.00280795 0)
(-0.00902853 -0.00273208 0)
(-0.00809908 -0.00264104 0)
(-0.00720145 -0.0025349 0)
(-0.00634044 -0.0024139 0)
(-0.00552075 -0.00227838 0)
(-0.00474688 -0.0021289 0)
(-0.00402307 -0.00196619 0)
(-0.00335326 -0.00179126 0)
(-0.00274097 -0.00160543 0)
(-0.00218919 -0.0014104 0)
(-0.00170031 -0.00120836 0)
(-0.00127593 -0.00100214 0)
(-0.000916731 -0.000795355 0)
(-0.000622299 -0.000592627 0)
(-0.000390899 -0.000399869 0)
(-0.000219268 -0.000224628 0)
(-0.000102382 -7.65191e-05 0)
(-3.31522e-05 3.23443e-05 0)
(-2.1538e-06 8.65408e-05 0)
(2.57536e-06 6.40475e-05 0)
(-6.5749e-08 -6.24562e-05 0)
(-2.12407e-05 -4.77177e-05 0)
(-8.64571e-05 6.23469e-05 0)
(-0.000203885 0.000233089 0)
(-0.000380659 0.000446639 0)
(-0.000622387 0.000689618 0)
(-0.000933096 0.000951155 0)
(-0.0013151 0.00122236 0)
(-0.00176921 0.00149627 0)
(-0.0022952 0.00176731 0)
(-0.0028916 0.0020311 0)
(-0.00355615 0.00228428 0)
(-0.00428587 0.00252417 0)
(-0.00507711 0.00274878 0)
(-0.00592576 0.0029566 0)
(-0.00682737 0.00314649 0)
(-0.00777715 0.00331769 0)
(-0.00877008 0.00346965 0)
(-0.00980102 0.00360208 0)
(-0.0108647 0.00371483 0)
(-0.0119559 0.00380795 0)
(-0.0130692 0.00388158 0)
(-0.0141994 0.00393596 0)
(-0.0153411 0.00397142 0)
(-0.0164893 0.00398834 0)
(-0.0176388 0.00398719 0)
(-0.0187846 0.00396847 0)
(-0.019922 0.00393271 0)
(-0.0210461 0.00388048 0)
(-0.0221525 0.00381239 0)
(-0.0232368 0.00372904 0)
(-0.0242946 0.00363108 0)
(-0.0253221 0.00351915 0)
(-0.0263152 0.00339392 0)
(-0.0272703 0.00325605 0)
(-0.028184 0.00310623 0)
(-0.0290528 0.00294516 0)
(-0.0298737 0.00277351 0)
(-0.0306438 0.00259199 0)
(-0.0313603 0.00240132 0)
(-0.0320207 0.00220219 0)
(-0.0326228 0.00199534 0)
(-0.0331643 0.00178147 0)
(-0.0336436 0.00156131 0)
(-0.0340587 0.00133562 0)
(-0.0344083 0.00110512 0)
(-0.0346911 0.000870567 0)
(-0.0349061 0.000632714 0)
(-0.0350524 0.000392328 0)
(-0.0351295 0.000150188 0)
(-0.0351369 -9.29203e-05 0)
(-0.0350746 -0.000336205 0)
(-0.0349426 -0.000578864 0)
(-0.0347412 -0.000820082 0)
(-0.034471 -0.00105903 0)
(-0.0341327 -0.00129488 0)
(-0.0337275 -0.00152678 0)
(-0.0332565 -0.00175388 0)
(-0.0327212 -0.00197534 0)
(-0.0321234 -0.00219028 0)
(-0.0314652 -0.00239783 0)
(-0.0307486 -0.00259714 0)
(-0.0299763 -0.00278733 0)
(-0.0291509 -0.00296754 0)
(-0.0282754 -0.00313691 0)
(-0.027353 -0.00329458 0)
(-0.0263872 -0.00343972 0)
(-0.0253815 -0.00357151 0)
(-0.02434 -0.00368912 0)
(-0.0232667 -0.00379179 0)
(-0.0221659 -0.00387874 0)
(-0.0210422 -0.00394925 0)
(-0.0199003 -0.00400263 0)
(-0.0187451 -0.00403824 0)
(-0.0175816 -0.00405547 0)
(-0.016415 -0.00405379 0)
(-0.0152506 -0.00403272 0)
(-0.0140938 -0.00399187 0)
(-0.0129501 -0.00393091 0)
(-0.0118251 -0.00384963 0)
(-0.0107244 -0.00374793 0)
(-0.00965333 -0.00362582 0)
(-0.00861751 -0.00348346 0)
(-0.00762227 -0.00332121 0)
(-0.00667283 -0.00313958 0)
(-0.00577416 -0.00293937 0)
(-0.00493098 -0.00272162 0)
(-0.00414761 -0.00248773 0)
(-0.00342795 -0.0022395 0)
(-0.00277531 -0.00197923 0)
(-0.00219233 -0.00170985 0)
(-0.00168088 -0.00143505 0)
(-0.00124184 -0.00115947 0)
(-0.00087503 -0.00088894 0)
(-0.000578977 -0.000630774 0)
(-0.000350781 -0.000394115 0)
(-0.000185891 -0.000190388 0)
(-7.78454e-05 -3.37306e-05 0)
(-1.8836e-05 5.8113e-05 0)
(-2.66411e-07 6.01007e-05 0)
(-3.36395e-06 -4.81478e-05 0)
(-3.99588e-05 8.70237e-06 0)
(-0.000136139 0.000171655 0)
(-0.000296156 0.000403209 0)
(-0.000525066 0.000683546 0)
(-0.00082775 0.00099775 0)
(-0.00120741 0.00133322 0)
(-0.00166572 0.00167983 0)
(-0.00220317 0.00202919 0)
(-0.00281899 0.00237469 0)
(-0.00351146 0.00271097 0)
(-0.00427801 0.00303382 0)
(-0.00511527 0.00333991 0)
(-0.00601929 0.00362669 0)
(-0.0069856 0.00389219 0)
(-0.00800932 0.00413492 0)
(-0.00908527 0.00435385 0)
(-0.010208 0.00454824 0)
(-0.0113719 0.00471764 0)
(-0.0125712 0.00486185 0)
(-0.0138002 0.00498083 0)
(-0.0150529 0.00507474 0)
(-0.0163236 0.00514385 0)
(-0.0176066 0.00518855 0)
(-0.018896 0.00520931 0)
(-0.0201863 0.0052067 0)
(-0.021472 0.00518132 0)
(-0.0227478 0.00513387 0)
(-0.0240083 0.00506507 0)
(-0.0252487 0.00497566 0)
(-0.0264639 0.00486644 0)
(-0.0276494 0.00473823 0)
(-0.0288005 0.00459185 0)
(-0.0299131 0.00442817 0)
(-0.030983 0.00424805 0)
(-0.0320062 0.00405238 0)
(-0.0329792 0.00384204 0)
(-0.0338984 0.00361793 0)
(-0.0347606 0.00338098 0)
(-0.0355627 0.00313209 0)
(-0.0363021 0.0028722 0)
(-0.036976 0.00260224 0)
(-0.0375822 0.00232315 0)
(-0.0381185 0.00203588 0)
(-0.0385831 0.00174139 0)
(-0.0389743 0.00144066 0)
(-0.0392907 0.00113465 0)
(-0.0395312 0.000824362 0)
(-0.0396948 0.000510794 0)
(-0.039781 0.000194959 0)
(-0.0397892 -0.000122119 0)
(-0.0397193 -0.000439407 0)
(-0.0395715 -0.000755855 0)
(-0.039346 -0.0010704 0)
(-0.0390435 -0.00138197 0)
(-0.0386649 -0.00168947 0)
(-0.0382113 -0.00199182 0)
(-0.0376841 -0.0022879 0)
(-0.0370851 -0.00257661 0)
(-0.0364161 -0.00285682 0)
(-0.0356793 -0.0031274 0)
(-0.0348773 -0.00338724 0)
(-0.0340129 -0.0036352 0)
(-0.033089 -0.00387018 0)
(-0.032109 -0.00409104 0)
(-0.0310764 -0.0042967 0)
(-0.0299951 -0.00448606 0)
(-0.0288691 -0.00465806 0)
(-0.0277027 -0.00481166 0)
(-0.0265006 -0.00494585 0)
(-0.0252675 -0.00505965 0)
(-0.0240084 -0.00515214 0)
(-0.0227285 -0.00522242 0)
(-0.0214333 -0.00526969 0)
(-0.0201283 -0.00529319 0)
(-0.0188193 -0.00529224 0)
(-0.017512 -0.00526626 0)
(-0.0162126 -0.00521474 0)
(-0.0149269 -0.00513732 0)
(-0.0136612 -0.00503374 0)
(-0.0124215 -0.00490392 0)
(-0.0112139 -0.00474791 0)
(-0.0100443 -0.00456597 0)
(-0.00891862 -0.00435859 0)
(-0.00784256 -0.0041265 0)
(-0.00682155 -0.00387076 0)
(-0.00586071 -0.00359276 0)
(-0.00496475 -0.00329432 0)
(-0.00413793 -0.00297777 0)
(-0.00338389 -0.00264604 0)
(-0.0027056 -0.0023028 0)
(-0.0021052 -0.00195263 0)
(-0.00158393 -0.0016012 0)
(-0.00114194 -0.00125549 0)
(-0.000778175 -0.000924124 0)
(-0.000490308 -0.000617704 0)
(-0.000274481 -0.000349246 0)
(-0.000125107 -0.000134596 0)
(-3.62958e-05 6.65993e-06 0)
(-3.16232e-06 4.72653e-05 0)
(-6.59421e-06 -2.40892e-05 0)
(-5.88123e-05 9.01712e-05 0)
(-0.000186814 0.000318505 0)
(-0.00039071 0.000621569 0)
(-0.00067357 0.000978197 0)
(-0.00103911 0.00137197 0)
(-0.00148967 0.00178914 0)
(-0.00202621 0.00221812 0)
(-0.00264855 0.00264953 0)
(-0.00335546 0.00307563 0)
(-0.0041448 0.00349016 0)
(-0.00501359 0.0038881 0)
(-0.0059581 0.00426548 0)
(-0.006974 0.00461915 0)
(-0.00805647 0.00494666 0)
(-0.00920024 0.0052462 0)
(-0.0103997 0.00551638 0)
(-0.011649 0.00575629 0)
(-0.0129422 0.00596531 0)
(-0.014273 0.00614314 0)
(-0.0156351 0.00628969 0)
(-0.0170223 0.00640509 0)
(-0.0184283 0.00648965 0)
(-0.0198468 0.0065438 0)
(-0.0212717 0.00656811 0)
(-0.0226968 0.00656325 0)
(-0.0241162 0.00652995 0)
(-0.0255241 0.00646905 0)
(-0.0269148 0.00638143 0)
(-0.0282828 0.00626801 0)
(-0.0296227 0.00612977 0)
(-0.0309296 0.00596772 0)
(-0.0321983 0.00578289 0)
(-0.0334243 0.00557634 0)
(-0.0346031 0.00534916 0)
(-0.0357304 0.00510246 0)
(-0.0368021 0.00483733 0)
(-0.0378145 0.00455493 0)
(-0.0387641 0.00425638 0)
(-0.0396474 0.00394284 0)
(-0.0404615 0.00361547 0)
(-0.0412035 0.00327545 0)
(-0.0418709 0.00292397 0)
(-0.0424613 0.00256221 0)
(-0.0429727 0.0021914 0)
(-0.0434033 0.00181274 0)
(-0.0437516 0.00142748 0)
(-0.0440163 0.00103685 0)
(-0.0441965 0.000642108 0)
(-0.0442913 0.000244542 0)
(-0.0443003 -0.000154566 0)
(-0.0442234 -0.000553914 0)
(-0.0440607 -0.000952186 0)
(-0.0438126 -0.00134804 0)
(-0.0434797 -0.00174014 0)
(-0.043063 -0.0021271 0)
(-0.0425637 -0.00250757 0)
(-0.0419835 -0.00288015 0)
(-0.0413242 -0.00324344 0)
(-0.0405878 -0.00359605 0)
(-0.0397769 -0.00393656 0)
(-0.0388941 -0.00426356 0)
(-0.0379425 -0.00457566 0)
(-0.0369254 -0.00487144 0)
(-0.0358464 -0.00514952 0)
(-0.0347093 -0.00540852 0)
(-0.0335185 -0.00564708 0)
(-0.0322782 -0.00586389 0)
(-0.0309933 -0.00605764 0)
(-0.0296687 -0.00622708 0)
(-0.0283096 -0.006371 0)
(-0.0269215 -0.00648825 0)
(-0.0255101 -0.00657774 0)
(-0.0240812 -0.00663848 0)
(-0.0226409 -0.00666954 0)
(-0.0211955 -0.00667009 0)
(-0.0197513 -0.00663943 0)
(-0.0183147 -0.00657698 0)
(-0.0168923 -0.00648229 0)
(-0.0154908 -0.0063551 0)
(-0.0141166 -0.00619533 0)
(-0.0127764 -0.00600309 0)
(-0.0114766 -0.00577875 0)
(-0.0102235 -0.00552296 0)
(-0.00902334 -0.00523668 0)
(-0.00788187 -0.00492126 0)
(-0.00680466 -0.00457846 0)
(-0.00579681 -0.00421055 0)
(-0.00486293 -0.0038204 0)
(-0.00400704 -0.00341159 0)
(-0.00323246 -0.00298855 0)
(-0.00254173 -0.00255672 0)
(-0.00193648 -0.00212275 0)
(-0.00141731 -0.00169471 0)
(-0.000983755 -0.00128243 0)
(-0.000634189 -0.000897793 0)
(-0.000365616 -0.000555187 0)
(-0.00017349 -0.000271836 0)
(-5.39851e-05 -6.8716e-05 0)
(-6.02993e-06 2.5358e-05 0)
(-9.70612e-06 9.62718e-06 0)
(-7.74147e-05 0.000196886 0)
(-0.00023745 0.000503559 0)
(-0.000485846 0.000889304 0)
(-0.000823501 0.00133188 0)
(-0.00125302 0.00181388 0)
(-0.00177572 0.00232034 0)
(-0.00239166 0.00283869 0)
(-0.00309995 0.00335846 0)
(-0.00389882 0.00387097 0)
(-0.00478557 0.00436912 0)
(-0.00575676 0.00484713 0)
(-0.00680826 0.00530036 0)
(-0.00793536 0.0057251 0)
(-0.00913281 0.00611845 0)
(-0.010395 0.00647821 0)
(-0.0117159 0.00680269 0)
(-0.0130892 0.00709073 0)
(-0.0145086 0.00734157 0)
(-0.0159674 0.00755477 0)
(-0.017459 0.0077302 0)
(-0.0189765 0.00786796 0)
(-0.0205134 0.00796838 0)
(-0.0220628 0.00803195 0)
(-0.0236182 0.00805932 0)
(-0.025173 0.00805125 0)
(-0.026721 0.00800864 0)
(-0.0282556 0.00793246 0)
(-0.029771 0.00782375 0)
(-0.0312612 0.00768361 0)
(-0.0327205 0.00751324 0)
(-0.0341433 0.00731383 0)
(-0.0355244 0.00708664 0)
(-0.0368587 0.00683296 0)
(-0.0381413 0.0065541 0)
(-0.0393678 0.00625139 0)
(-0.0405336 0.00592619 0)
(-0.0416348 0.00557989 0)
(-0.0426675 0.00521387 0)
(-0.0436281 0.00482953 0)
(-0.0445134 0.00442831 0)
(-0.0453202 0.00401163 0)
(-0.0460458 0.00358094 0)
(-0.0466877 0.00313772 0)
(-0.0472437 0.00268343 0)
(-0.0477119 0.00221957 0)
(-0.0480905 0.00174764 0)
(-0.0483784 0.00126917 0)
(-0.0485742 0.000785706 0)
(-0.0486774 0.000298802 0)
(-0.0486873 -0.00018997 0)
(-0.0486039 -0.000679017 0)
(-0.0484272 -0.00116672 0)
(-0.0481577 -0.00165145 0)
(-0.0477961 -0.00213156 0)
(-0.0473434 -0.00260539 0)
(-0.046801 -0.00307126 0)
(-0.0461705 -0.00352747 0)
(-0.0454541 -0.00397233 0)
(-0.0446538 -0.00440412 0)
(-0.0437725 -0.00482112 0)
(-0.042813 -0.00522163 0)
(-0.0417786 -0.00560394 0)
(-0.0406728 -0.00596632 0)
(-0.0394996 -0.0063071 0)
(-0.0382631 -0.00662461 0)
(-0.0369679 -0.00691719 0)
(-0.0356187 -0.00718325 0)
(-0.0342206 -0.00742122 0)
(-0.032779 -0.00762957 0)
(-0.0312994 -0.00780685 0)
(-0.0297878 -0.00795167 0)
(-0.0282503 -0.00806274 0)
(-0.0266931 -0.00813886 0)
(-0.0251228 -0.00817891 0)
(-0.023546 -0.00818193 0)
(-0.0219696 -0.00814708 0)
(-0.0204005 -0.00807368 0)
(-0.0188458 -0.00796125 0)
(-0.0173124 -0.00780949 0)
(-0.0158074 -0.00761833 0)
(-0.0143379 -0.00738796 0)
(-0.0129107 -0.00711887 0)
(-0.0115326 -0.00681188 0)
(-0.0102101 -0.00646821 0)
(-0.00894962 -0.00608949 0)
(-0.00775699 -0.00567787 0)
(-0.00663773 -0.00523608 0)
(-0.00559684 -0.00476755 0)
(-0.00463874 -0.00427651 0)
(-0.00376718 -0.00376811 0)
(-0.00298511 -0.00324864 0)
(-0.00229465 -0.00272564 0)
(-0.00169699 -0.00220822 0)
(-0.00119234 -0.00170727 0)
(-0.000779875 -0.00123581 0)
(-0.000457589 -0.000809353 0)
(-0.000222063 -0.000446197 0)
(-7.15776e-05 -0.000168318 0)
(-8.82512e-06 -5.59388e-06 0)
(-1.26521e-05 5.27647e-05 0)
(-9.56011e-05 0.000328718 0)
(-0.000287445 0.000726956 0)
(-0.00058038 0.00120679 0)
(-0.000973138 0.0017453 0)
(-0.00146712 0.00232423 0)
(-0.00206257 0.00292774 0)
(-0.00275857 0.00354237 0)
(-0.00355347 0.0041567 0)
(-0.00444478 0.00476124 0)
(-0.00542925 0.00534812 0)
(-0.00650293 0.00591083 0)
(-0.0076612 0.0064441 0)
(-0.00889891 0.00694371 0)
(-0.0102104 0.00740631 0)
(-0.0115897 0.00782928 0)
(-0.0130303 0.00821067 0)
(-0.0145257 0.00854907 0)
(-0.0160689 0.00884353 0)
(-0.017653 0.00909351 0)
(-0.0192708 0.0092988 0)
(-0.0209153 0.0094595 0)
(-0.0225794 0.00957593 0)
(-0.0242558 0.00964864 0)
(-0.0259377 0.00967838 0)
(-0.027618 0.00966601 0)
(-0.0292899 0.00961256 0)
(-0.0309469 0.00951916 0)
(-0.0325824 0.00938703 0)
(-0.0341902 0.00921747 0)
(-0.0357641 0.00901187 0)
(-0.0372984 0.00877164 0)
(-0.0387872 0.00849827 0)
(-0.0402254 0.0081933 0)
(-0.0416076 0.00785826 0)
(-0.042929 0.00749476 0)
(-0.0441849 0.0071044 0)
(-0.0453711 0.00668882 0)
(-0.0464833 0.0062497 0)
(-0.0475178 0.0057887 0)
(-0.0484711 0.00530752 0)
(-0.0493399 0.00480787 0)
(-0.0501212 0.0042915 0)
(-0.0508123 0.00376015 0)
(-0.051411 0.00321558 0)
(-0.0519151 0.00265958 0)
(-0.0523229 0.00209395 0)
(-0.0526329 0.00152053 0)
(-0.0528439 0.000941143 0)
(-0.0529552 0.000357663 0)
(-0.0529662 -0.000228031 0)
(-0.0528768 -0.000814029 0)
(-0.052687 -0.0013984 0)
(-0.0523972 -0.0019792 0)
(-0.0520084 -0.00255446 0)
(-0.0515216 -0.0031222 0)
(-0.0509382 -0.00368041 0)
(-0.05026 -0.00422707 0)
(-0.0494892 -0.00476015 0)
(-0.0486282 -0.00527761 0)
(-0.0476798 -0.00577741 0)
(-0.0466471 -0.0062575 0)
(-0.0455337 -0.00671585 0)
(-0.0443433 -0.00715043 0)
(-0.0430801 -0.00755921 0)
(-0.0417485 -0.00794023 0)
(-0.0403534 -0.00829153 0)
(-0.0388998 -0.0086112 0)
(-0.0373932 -0.00889738 0)
(-0.0358392 -0.00914827 0)
(-0.0342439 -0.00936216 0)