/*--------------------------------*- C++ -*----------------------------------*\
  =========                 |
  \\      /  F ield         | OpenFOAM: The Open Source CFD Toolbox
   \\    /   O peration     | Website:  https://openfoam.org
    \\  /    A nd           | Version:  11
     \\/     M anipulation  |
\*---------------------------------------------------------------------------*/
FoamFile
{
    format      ascii;
    class       volScalarField;
    location    "5.2";
    object      p;
}
// * * * * * * * * * * * * * * * * * * * * * * * * * * * * * * * * * * * * * //

dimensions      [0 2 -2 0 0 0 0];

internalField   nonuniform List<scalar> 
10100
(
3.50612e-08
7.23934e-05
-0.000172472
-0.000798549
-0.00173433
-0.00290479
-0.00424979
-0.00571626
-0.00725735
-0.00883226
-0.010405
-0.0119454
-0.0134274
-0.0148288
-0.0161306
-0.0173175
-0.0183754
-0.019292
-0.0200577
-0.0206643
-0.0211059
-0.0213782
-0.0214779
-0.0214023
-0.0211495
-0.0207194
-0.0201134
-0.0193334
-0.0183815
-0.0172608
-0.0159749
-0.0145278
-0.0129242
-0.0111695
-0.00926952
-0.00723054
-0.00505883
-0.00276106
-0.00034447
0.00218313
0.00481373
0.00753907
0.0103505
0.0132389
0.0161951
0.0192103
0.0222751
0.0253795
0.0285129
0.0316649
0.0348256
0.0379852
0.0411338
0.0442607
0.047355
0.0504065
0.0534051
0.056341
0.0592039
0.061984
0.0646713
0.0672564
0.0697302
0.0720841
0.0743094
0.0763977
0.0783415
0.0801337
0.0817679
0.0832382
0.0845395
0.0856676
0.0866188
0.0873904
0.0879804
0.0883878
0.0886126
0.0886561
0.0885207
0.08821
0.0877285
0.0870823
0.0862792
0.0853288
0.0842433
0.0830373
0.0817272
0.0803316
0.0788712
0.0773695
0.0758537
0.0743546
0.0729077
0.0715528
0.0703344
0.0693009
0.068502
0.067987
0.0677992
0.0678975
-8.85821e-05
-8.23419e-05
-0.000354152
-0.000927158
-0.00174259
-0.00274997
-0.00390744
-0.00517491
-0.00651411
-0.00788963
-0.00927052
-0.0106293
-0.0119408
-0.0131841
-0.0143412
-0.0153956
-0.0163341
-0.0171458
-0.0178207
-0.0183505
-0.0187289
-0.018951
-0.0190134
-0.0189134
-0.0186488
-0.0182191
-0.0176247
-0.0168666
-0.0159469
-0.0148686
-0.0136349
-0.0122494
-0.0107163
-0.00904029
-0.00722676
-0.00528146
-0.00321041
-0.00102001
0.0012829
0.00369104
0.00619694
0.00879281
0.0114704
0.0142209
0.0170357
0.0199065
0.0228244
0.0257796
0.0287622
0.0317622
0.0347704
0.0377776
0.040774
0.0437496
0.046694
0.0495977
0.0524511
0.0552446
0.0579686
0.0606137
0.0631709
0.0656313
0.0679863
0.0702275
0.0723468
0.0743365
0.0761897
0.0779
0.0794614
0.0808684
0.0821164
0.0832015
0.0841208
0.0848719
0.0854531
0.0858638
0.0861045
0.0861768
0.0860834
0.085828
0.0854154
0.0848516
0.0841442
0.083303
0.0823401
0.0812696
0.0801074
0.0788708
0.0775793
0.076255
0.0749228
0.073611
0.0723508
0.0711767
0.0701254
0.069235
0.068542
0.0680812
0.0678981
0.0679966
8.61028e-05
4.90788e-05
-0.000241119
-0.000786537
-0.00153281
-0.00244105
-0.00347846
-0.00461257
-0.00581176
-0.00704533
-0.00828666
-0.00951024
-0.0106937
-0.0118174
-0.0128633
-0.0138159
-0.0146623
-0.0153918
-0.0159951
-0.0164643
-0.0167925
-0.0169746
-0.0170069
-0.0168866
-0.0166121
-0.0161823
-0.015597
-0.0148566
-0.013963
-0.0129189
-0.0117273
-0.0103916
-0.0089156
-0.00730364
-0.0055606
-0.00369173
-0.00170278
0.000400008
0.00261003
0.00492057
0.00732463
0.00981466
0.0123826
0.0150203
0.0177196
0.0204725
0.0232703
0.0261036
0.0289628
0.0318388
0.0347226
0.0376053
0.0404775
0.0433296
0.046152
0.0489353
0.0516705
0.0543482
0.0569592
0.0594948
0.0619465
0.0643058
0.0665644
0.0687143
0.0707479
0.072658
0.0744382
0.0760824
0.0775851
0.0789411
0.0801461
0.0811968
0.0820907
0.0828254
0.0833997
0.083813
0.0840662
0.0841612
0.0841008
0.083889
0.0835303
0.0830307
0.0823976
0.0816408
0.080772
0.0798048
0.0787543
0.0776368
0.0764704
0.0752756
0.0740757
0.0728961
0.0717647
0.0707114
0.0697673
0.0689641
0.0683316
0.0678991
0.0677165
0.0678113
0.000533407
0.000431266
0.000108116
-0.000431558
-0.00114431
-0.00199617
-0.0029605
-0.00400801
-0.00511137
-0.00624549
-0.0073853
-0.00850851
-0.00959476
-0.0106257
-0.0115848
-0.0124577
-0.0132315
-0.0138957
-0.0144415
-0.0148613
-0.0151489
-0.0152987
-0.0153065
-0.0151696
-0.0148866
-0.0144564
-0.0138784
-0.0131529
-0.0122817
-0.0112667
-0.0101107
-0.00881681
-0.00738897
-0.00583121
-0.00414784
-0.00234375
-0.000424592
0.0016036
0.0037348
0.00596265
0.00828022
0.0106801
0.0131548
0.0156965
0.0182977
0.0209504
0.023646
0.0263755
0.0291298
0.0319004
0.0346786
0.0374556
0.0402224
0.0429698
0.0456887
0.0483702
0.0510053
0.0535849
0.0561004
0.0585437
0.0609066
0.0631807
0.065358
0.067431
0.0693925
0.0712359
0.072955
0.074544
0.0759976
0.0773108
0.0784799
0.0795019
0.0803746
0.0810957
0.0816639
0.082079
0.082342
0.0824552
0.0824214
0.0822443
0.0819285
0.0814796
0.0809052
0.0802146
0.0794193
0.078532
0.0775667
0.0765387
0.075465
0.0743646
0.073259
0.0721711
0.0711258
0.0701491
0.0692679
0.0685098
0.0679009
0.0674681
0.0672581
0.067301
0.00123211
0.00102962
0.000649205
9.2083e-05
-0.000611224
-0.00143363
-0.00235023
-0.00333692
-0.00437047
-0.00542786
-0.00648787
-0.00753052
-0.00853691
-0.00949029
-0.0103758
-0.0111802
-0.0118915
-0.0124993
-0.0129951
-0.0133716
-0.0136231
-0.0137441
-0.0137305
-0.0135796
-0.0132895
-0.0128589
-0.0122876
-0.011576
-0.0107253
-0.00973736
-0.00861428
-0.00735926
-0.00597601
-0.00446823
-0.00283991
-0.00109584
0.000758512
0.0027175
0.00477554
0.00692667
0.00916401
0.0114802
0.0138682
0.016321
0.0188311
0.0213907
0.0239913
0.0266243
0.0292815
0.0319543
0.0346344
0.0373132
0.0399823
0.0426329
0.0452561
0.0478432
0.0503855
0.0528743
0.0553017
0.0576598
0.0599408
0.0621364
0.0642388
0.0662409
0.0681361
0.0699183
0.0715813
0.0731197
0.0745281
0.0758021
0.0769383
0.077934
0.0787871
0.0794954
0.0800577
0.0804739
0.0807453
0.0808742
0.0808634
0.0807164
0.0804375
0.0800324
0.0795084
0.0788746
0.0781417
0.0773215
0.0764271
0.0754727
0.0744741
0.0734489
0.0724165
0.0713977
0.0704142
0.0694886
0.0686443
0.0679053
0.0672948
0.0668368
0.0665671
0.0665076
0.00215626
0.00182385
0.00136229
0.000765586
4.71765e-05
-0.000768402
-0.00166127
-0.00261066
-0.00359609
-0.00459811
-0.00559819
-0.00657841
-0.00752196
-0.00841323
-0.00923856
-0.00998591
-0.0106445
-0.0112048
-0.0116583
-0.011998
-0.0122183
-0.0123143
-0.0122822
-0.0121194
-0.0118236
-0.0113936
-0.0108288
-0.0101301
-0.00929835
-0.00833508
-0.00724235
-0.00602313
-0.00468087
-0.00321892
-0.00164101
4.80057e-05
0.00184274
0.00373816
0.00572912
0.00780967
0.00997297
0.0122121
0.0145206
0.0168917
0.0193179
0.0217917
0.0243049
0.0268493
0.0294171
0.0320001
0.0345899
0.0371784
0.0397577
0.0423195
0.044855
0.0473556
0.0498127
0.0522184
0.054565
0.0568454
0.0590516
0.0611754
0.0632093
0.0651468
0.0669818
0.0687082
0.0703203
0.0718125
0.0731798
0.0744181
0.0755243
0.0764961
0.0773312
0.0780275
0.0785839
0.0790004
0.0792787
0.0794208
0.0794294
0.0793078
0.07906
0.0786917
0.07821
0.0776235
0.0769422
0.0761768
0.0753396
0.0744438
0.0735038
0.072536
0.0715576
0.0705869
0.0696432
0.0687461
0.0679159
0.067173
0.0665382
0.0660325
0.0656762
0.0654781
0.00326571
0.00278234
0.0022209
0.00156431
0.000810685
-1.98357e-05
-0.000910128
-0.00184311
-0.00280114
-0.0037675
-0.00472583
-0.00566046
-0.00655655
-0.0074002
-0.00817878
-0.00888091
-0.00949683
-0.0100181
-0.0104369
-0.0107464
-0.0109409
-0.0110162
-0.0109689
-0.0107962
-0.010496
-0.0100671
-0.00950919
-0.00882259
-0.00800809
-0.00706713
-0.00600202
-0.00481542
-0.00351018
-0.00208959
-0.000557566
0.00108131
0.00282215
0.00466013
0.0065902
0.00860655
0.0107026
0.0128719
0.0151082
0.0174052
0.0197553
0.0221511
0.0245848
0.0270489
0.0295357
0.0320371
0.034545
0.0370517
0.0395498
0.0420312
0.0444872
0.0469093
0.0492894
0.05162
0.0538939
0.0561042
0.0582428
0.0603018
0.0622741
0.0641535
0.0659345
0.0676111
0.0691773
0.070628
0.0719583
0.0731645
0.0742439
0.075194
0.0760127
0.0766978
0.0772483
0.0776646
0.0779481
0.0781009
0.0781252
0.0780241
0.0778016
0.0774633
0.0770158
0.0764673
0.0758267
0.0751042
0.074311
0.0734593
0.0725625
0.071635
0.0706923
0.0697507
0.0688267
0.0679375
0.0671008
0.0663338
0.0656549
0.0650824
0.0646193
0.0642592
0.00451902
0.0038703
0.00319499
0.0024638
0.00165766
0.000793927
-0.000111978
-0.00104637
-0.00199485
-0.0029429
-0.00387583
-0.00477989
-0.00564234
-0.00645108
-0.00719448
-0.00786219
-0.00844516
-0.00893559
-0.0093265
-0.00961159
-0.00978557
-0.00984445
-0.00978505
-0.00960452
-0.00930119
-0.00887426
-0.00832309
-0.00764772
-0.00684912
-0.00592874
-0.00488858
-0.00373121
-0.00245938
-0.00107614
0.000414562
0.0020082
0.00370035
0.00548658
0.00736184
0.00932017
0.0113554
0.0134616
0.0156331
0.0178632
0.0201445
0.0224698
0.024832
0.0272237
0.0296373
0.032065
0.034499
0.0369322
0.0393574
0.0417665
0.0441508
0.0465021
0.048813
0.0510763
0.0532853
0.0554326
0.0575106
0.0595115
0.0614286
0.0632564
0.0649893
0.0666213
0.0681466
0.06956
0.0708573
0.072035
0.0730904
0.0740211
0.0748247
0.0754994
0.0760442
0.0764596
0.076747
0.0769079
0.0769444
0.0768593
0.0766567
0.0763419
0.0759212
0.0754019
0.0747923
0.0741019
0.0733408
0.0725202
0.0716523
0.07075
0.0698271
0.0688976
0.0679762
0.0670776
0.0662169
0.0654089
0.0646697
0.0640152
0.0634306
0.0628945
0.00587854
0.00505549
0.00425635
0.00343936
0.00256663
0.0016552
0.000718394
-0.000232915
-0.00118696
-0.00213115
-0.00305303
-0.00394044
-0.0047819
-0.00556691
-0.00628549
-0.00692832
-0.007487
-0.00795427
-0.00832377
-0.00858983
-0.00874792
-0.00879421
-0.00872552
-0.00853948
-0.00823458
-0.00781008
-0.00726549
-0.0066007
-0.0058166
-0.0049149
-0.00389745
-0.00276629
-0.00152415
-0.000174444
0.00127898
0.00283216
0.00448098
0.00622088
0.00804671
0.00995289
0.0119337
0.0139837
0.0160971
0.0182671
0.0204866
0.0227489
0.025047
0.0273738
0.0297219
0.0320835
0.0344516
0.0368191
0.0391791
0.0415235
0.0438437
0.0461319
0.0483812
0.0505848
0.0527358
0.0548271
0.0568511
0.0588003
0.0606686
0.0624508
0.0641411
0.0657335
0.0672224
0.0686028
0.069871
0.0710234
0.0720575
0.0729707
0.0737608
0.0744259
0.0749652
0.075379
0.0756686
0.0758352
0.0758807
0.0758077
0.0756201
0.0753229
0.074922
0.0744241
0.0738368
0.0731686
0.0724288
0.0716277
0.0707761
0.0698857
0.0689684
0.0680367
0.0671031
0.0661804
0.0652814
0.0644183
0.063606
0.062858
0.062142
0.0614223
0.00731105
0.00630921
0.00537954
0.00446683
0.00351778
0.00254664
0.00156597
0.000584639
-0.000387636
-0.00134058
-0.00226369
-0.00314621
-0.00397815
-0.00474999
-0.00545314
-0.00607954
-0.00662165
-0.0070727
-0.00742684
-0.0076791
-0.00782557
-0.00786262
-0.00778719
-0.0075976
-0.00729274
-0.00687138
-0.00633294
-0.00567791
-0.00490739
-0.00402259
-0.00302511
-0.00191718
-0.000701716
0.000618028
0.00203852
0.00355597
0.0051663
0.00686489
0.0086467
0.0105066
0.0124393
0.0144394
0.0165011
0.0186176
0.0207823
0.0229886
0.02523
0.0274992
0.029789
0.0320922
0.0344018
0.0367114
0.0390137
0.0413008
0.0435642
0.0457968
0.0479919
0.0501429
0.0522429
0.0542847
0.0562611
0.058165
0.0599907
0.0617329
0.0633859
0.0649436
0.0664005
0.0677521
0.0689947
0.0701251
0.0711405
0.0720381
0.072816
0.0734722
0.0740061
0.0744178
0.0747081
0.0748783
0.0749298
0.0748651
0.074688
0.0744031
0.0740159
0.0735324
0.0729593
0.0723044
0.0715761
0.0707839
0.0699375
0.0690472
0.0681235
0.0671772
0.0662189
0.0652596
0.0643101
0.0633808
0.0624852
0.0616353
0.0607816
0.0598751
0.00878831
0.00760513
0.00653978
0.00552534
0.00449151
0.0034512
0.00241643
0.00139427
0.00039263
-0.000579985
-0.00151475
-0.00240262
-0.00323482
-0.00400294
-0.00469938
-0.00531715
-0.00584948
-0.0062903
-0.00663466
-0.00687813
-0.00701666
-0.00704729
-0.00696791
-0.00677683
-0.00647275
-0.00605483
-0.00552273
-0.00487692
-0.00411851
-0.00324868
-0.00226889
-0.00118149
1.04933e-05
0.00130391
0.00269554
0.00418172
0.00575821
0.00742037
0.00916346
0.0109828
0.0128734
0.0148297
0.0168459
0.0189154
0.021032
0.0231893
0.0253808
0.0275994
0.0298381
0.0320902
0.034349
0.0366079
0.0388598
0.0410966
0.0433106
0.0454949
0.047643
0.0497484
0.051804
0.0538027
0.0557379
0.0576028
0.0593918
0.0610996
0.0627202
0.0642479
0.0656772
0.0670039
0.0682247
0.0693361
0.0703352
0.0712194
0.0719864
0.0726346
0.0731631
0.073572
0.0738618
0.0740335
0.0740883
0.0740286
0.073858
0.0735808
0.0732017
0.0727261
0.0721599
0.07151
0.0707845
0.0699918
0.0691408
0.0682405
0.0673
0.0663282
0.0653345
0.0643282
0.0633184
0.0623138
0.0613272
0.0603693
0.0593743
0.0582807
0.010285
0.00892007
0.00771653
0.00659506
0.00546993
0.00435306
0.00325591
0.00218412
0.00114367
0.000141896
-0.000813714
-0.0017157
-0.00255653
-0.00332918
-0.00402665
-0.00464258
-0.00517135
-0.00560773
-0.00594708
-0.00618559
-0.00631982
-0.00634714
-0.00626594
-0.00607487
-0.00577258
-0.00535838
-0.00483236
-0.00419514
-0.0034476
-0.00259079
-0.00162638
-0.000556918
0.000614595
0.00188529
0.00325211
0.00471123
0.00625826
0.00788872
0.00959836
0.0113828
0.013237
0.0151553
0.017132
0.0191609
0.0212359
0.0233509
0.0254993
0.0276741
0.0298688
0.032077
0.034292
0.0365074
0.0387158
0.0409096
0.0430813
0.0452245
0.0473327
0.0493991
0.0514167
0.0533789
0.0552791
0.0571111
0.0588692
0.0605479
0.0621412
0.0636435
0.0650495
0.0663554
0.0675578
0.0686533
0.0696387
0.0705113
0.0712688
0.0719097
0.0724332
0.0728389
0.0731271
0.0732984
0.0733541
0.0732965
0.0731289
0.0728551
0.0724792
0.0720056
0.0714395
0.0707874
0.0700567
0.0692554
0.0683913
0.0674721
0.0665055
0.0654991
0.0644607
0.0633987
0.0623205
0.0612336
0.0601501
0.0590798
0.0579418
0.0566625
0.0117788
0.0102337
0.00889051
0.00765838
0.00643716
0.00523774
0.00407146
0.00294253
0.00185564
0.000816737
-0.000167861
-0.00109176
-0.00194865
-0.00273261
-0.00343776
-0.00405816
-0.00458878
-0.00502558
-0.00536446
-0.00560156
-0.00573433
-0.00576114
-0.00568033
-0.00549038
-0.00519041
-0.00478028
-0.00426025
-0.00363076
-0.00289256
-0.00204689
-0.00109576
-4.17593e-05
0.0011124
0.00236401
0.00370982
0.00514578
0.00666759
0.00827116
0.00995256
0.0117075
0.0135307
0.0154167
0.0173597
0.0193542
0.021394
0.0234731
0.0255849
0.0277227
0.0298803
0.0320516
0.0342299
0.0364085
0.0385803
0.0407381
0.0428748
0.0449838
0.0470588
0.0490928
0.0510789
0.0530108
0.0548824
0.0566876
0.0584204
0.0600753
0.0616462
0.0631276
0.0645147
0.0658039
0.0669915
0.0680741
0.0690482
0.0699111
0.0706607
0.0712954
0.0718141
0.0722163
0.072502
0.0726715
0.0727262
0.0726681
0.0725004
0.0722262
0.0718488
0.0713717
0.0707997
0.070139
0.0693964
0.0685793
0.0676945
0.0667486
0.0657479
0.0646987
0.0636081
0.062483
0.0613301
0.0601553
0.0589704
0.0577847
0.0565031
0.0550407
0.0132504
0.0115273
0.0100437
0.00869902
0.00737811
0.00609162
0.00485069
0.00365853
0.00251875
0.00143602
0.0004157
-0.000536825
-0.00141659
-0.00221805
-0.00293613
-0.00356628
-0.00410408
-0.00454554
-0.00488721
-0.00512623
-0.00526072
-0.00528922
-0.00521011
-0.00502224
-0.00472535
-0.00431959
-0.00380511
-0.00318224
-0.00245189
-0.00161571
-0.000675826
0.000365404
0.0015054
0.00274134
0.00406966
0.00548625
0.00698714
0.00856864
0.0102269
0.0119574
0.0137548
0.0156138
0.0175291
0.0194952
0.0215061
0.0235555
0.025637
0.0277443
0.0298717
0.0320128
0.0341611
0.0363097
0.0384518
0.0405806
0.0426891
0.0447709
0.0468193
0.0488272
0.0507881
0.0526961
0.0545453
0.0563296
0.0580428
0.0596789
0.0612323
0.0626975
0.0640702
0.0653467
0.0665231
0.0675958
0.0685611
0.0694164
0.0701598
0.0707895
0.0713041
0.0717027
0.0719851
0.0721516
0.0722036
0.0721431
0.0719725
0.0716944
0.0713112
0.0708258
0.0702428
0.0695679
0.0688076
0.0679683
0.0670562
0.0660765
0.0650345
0.0639358
0.0627863
0.0615925
0.0603597
0.0590926
0.0578029
0.0565
0.055075
0.0534325
0.014683
0.0127838
0.0111606
0.0097017
0.00827852
0.00690153
0.00558153
0.00432109
0.00312322
0.00199133
0.000929362
-5.77896e-05
-0.000965552
-0.00178973
-0.00252608
-0.0031706
-0.00371946
-0.00416915
-0.00451696
-0.00476101
-0.00489969
-0.00493147
-0.00485516
-0.00467037
-0.00437721
-0.00397576
-0.00346605
-0.00284864
-0.00212485
-0.00129653
-0.000365662
0.000665576
0.00179451
0.00301793
0.00433213
0.0057332
0.00721758
0.00878171
0.0104216
0.0121324
0.0139092
0.0157467
0.0176401
0.0195837
0.0215715
0.0235972
0.0256547
0.0277381
0.0298418
0.0319594
0.0340842
0.0362093
0.0383285
0.0404351
0.0425223
0.0445834
0.0466114
0.0485996
0.0505416
0.0524321
0.0542652
0.0560344
0.0577332
0.0593558
0.0608965
0.0623504
0.0637132
0.064981
0.0661498
0.0672155
0.0681746
0.0690248
0.069764
0.0703902
0.0709014
0.0712965
0.0715752
0.0717379
0.0717861
0.0717213
0.0715455
0.0712603
0.0708675
0.0703698
0.0697713
0.0690775
0.0682943
0.0674275
0.0664819
0.0654622
0.0643729
0.0632188
0.0620053
0.0607379
0.059421
0.0580582
0.0566613
0.0552399
0.0536724
0.051853
0.016061
0.0139891
0.0122272
0.010653
0.0091254
0.00765482
0.00625272
0.00492016
0.0036593
0.0024734
0.0013655
0.000339129
-0.000601507
-0.00145297
-0.00221185
-0.00287461
-0.00343785
-0.00389893
-0.00425604
-0.00450765
-0.00465222
-0.00468856
-0.00461625
-0.00443545
-0.00414628
-0.00374867
-0.00324285
-0.00262987
-0.00191136
-0.00108907
-0.000164777
0.000859259
0.00197997
0.00319388
0.00449738
0.00588695
0.00735923
0.0089105
0.0105364
0.0122324
0.0139936
0.0158151
0.0176922
0.019619
0.0215893
0.0235972
0.0256369
0.0277029
0.0297894
0.0318898
0.0339972
0.0361054
0.0382083
0.0402996
0.042372
0.0444187
0.0464326
0.0484073
0.050337
0.0522163
0.0540392
0.0557988
0.0574886
0.0591027
0.060636
0.0620836
0.063441
0.0647041
0.0658687
0.0669305
0.0678866
0.0687343
0.0694715
0.0700957
0.0706046
0.0709967
0.0712717
0.0714303
0.0714738
0.0714033
0.0712201
0.0709251
0.0705196
0.0700062
0.0693886
0.0686719
0.0678614
0.066962
0.0659777
0.0649126
0.0637707
0.0625564
0.0612746
0.0599298
0.0585254
0.0570641
0.0555581
0.0540175
0.0523087
0.0503154
0.0173716
0.01513
0.01323
0.0115402
0.00990686
0.00834064
0.00685328
0.00544537
0.00411811
0.00287416
0.00171621
0.00064697
-0.000330521
-0.00121319
-0.00199805
-0.00268212
-0.00326279
-0.00373828
-0.00410724
-0.0043682
-0.00451994
-0.00456209
-0.00449493
-0.00431865
-0.00403321
-0.00363875
-0.00313606
-0.00252657
-0.00181185
-0.000993431
-7.31763e-05
0.000946237
0.00206139
0.00326886
0.00456534
0.00594756
0.00741199
0.00895458
0.0105709
0.0122568
0.0140076
0.0158187
0.0176849
0.0196002
0.0215586
0.0235547
0.025583
0.0276378
0.0297131
0.0318022
0.0338986
0.0359964
0.0380899
0.0401722
0.0422361
0.0442743
0.0462803
0.048248
0.0501717
0.052046
0.0538644
0.0556199
0.0573059
0.058917
0.0604481
0.0618944
0.063251
0.0645134
0.0656774
0.066739
0.0676952
0.0685434
0.069281
0.069905
0.0704127
0.0708026
0.0710746
0.0712293
0.0712676
0.0711902
0.0709977
0.0706906
0.0702701
0.0697383
0.0690986
0.0683556
0.0675139
0.0665775
0.06555
0.0644349
0.0632361
0.0619578
0.060604
0.0591785
0.0576837
0.0561216
0.054505
0.052845
0.0509958
0.0488317
0.0186031
0.0161934
0.0141569
0.0123515
0.0106113
0.00894769
0.00737297
0.0058871
0.00449057
0.00318549
0.00197411
0.000858576
-0.000158995
-0.00107593
-0.00188955
-0.00259762
-0.00319856
-0.00369099
-0.00407357
-0.00434513
-0.00450534
-0.00455462
-0.00449333
-0.00432145
-0.0040392
-0.00364732
-0.00314707
-0.00253986
-0.00182704
-0.00101019
-9.16017e-05
0.000925583
0.00203792
0.00324231
0.00453569
0.00591459
0.00737511
0.00891306
0.0105244
0.0122051
0.0139508
0.0157567
0.0176171
0.0195262
0.0214785
0.0234689
0.0254919
0.0275415
0.0296115
0.0316954
0.0337871
0.0358811
0.0379715
0.0400511
0.0421124
0.0441483
0.0461527
0.0481197
0.0500438
0.0519189
0.0537385
0.0554952
0.057183
0.0587966
0.0603309
0.0617808
0.0631409
0.0644068
0.0655741
0.0666393
0.0675992
0.0684509
0.0691913
0.0698171
0.0703252
0.0707143
0.0709843
0.0711356
0.0711685
0.0710834
0.0708803
0.0705596
0.0701222
0.0695698
0.0689057
0.0681334
0.067257
0.0662799
0.0652053
0.0640365
0.0627773
0.0614316
0.0600027
0.0584935
0.0569056
0.0552409
0.0535128
0.051733
0.0497446
0.047412
0.0197445
0.0171691
0.0149963
0.0130754
0.0112281
0.00946575
0.00780181
0.00623591
0.00476789
0.00339927
0.00213174
0.000966893
-9.33158e-05
-0.0010468
-0.00189166
-0.00262643
-0.00324993
-0.0037609
-0.00415828
-0.00444178
-0.00461186
-0.0046691
-0.00461367
-0.00444579
-0.00416628
-0.00377651
-0.00327774
-0.00267114
-0.00195806
-0.00114059
-0.000221547
0.000795883
0.00190856
0.00311358
0.00440767
0.00578695
0.00724737
0.00878496
0.010396
0.0120767
0.0138225
0.015628
0.0174877
0.0193963
0.0213485
0.0233392
0.0253628
0.0274129
0.0294834
0.0315683
0.0336618
0.0357584
0.0378518
0.0399346
0.0419992
0.044039
0.0460482
0.048021
0.0499514
0.0518331
0.0536591
0.0554228
0.0571181
0.0587398
0.0602826
0.0617408
0.063109
0.0643826
0.0655575
0.0666303
0.0675975
0.0684559
0.0692018
0.0698315
0.0703421
0.0707321
0.0710014
0.07115
0.0711778
0.0710846
0.0708701
0.0705346
0.0700789
0.0695044
0.0688137
0.0680097
0.0670957
0.0660748
0.06495
0.0637246
0.0624021
0.0609859
0.0594789
0.0578833
0.0562002
0.0544312
0.0525907
0.0506912
0.0485644
0.0460653
0.0207864
0.018047
0.0157384
0.0137017
0.011747
0.00988519
0.00813052
0.00648289
0.00494158
0.00350726
0.00218128
0.000965082
-0.000139743
-0.00113195
-0.00201042
-0.002774
-0.00342154
-0.00395215
-0.0043656
-0.00466241
-0.00484327
-0.00490852
-0.00485855
-0.00469432
-0.00441729
-0.00402885
-0.00353002
-0.00292201
-0.00220671
-0.00138672
-0.00046495
0.000555677
0.0016722
0.00288147
0.00417977
0.00556303
0.00702739
0.00856929
0.0101851
0.0118707
0.0136213
0.0154314
0.0172958
0.0192096
0.0211676
0.0231646
0.0251943
0.0272506
0.0293277
0.03142
0.0335217
0.035627
0.0377293
0.0398211
0.0418952
0.0439453
0.0459658
0.0479505
0.0498929
0.0517866
0.0536249
0.0554012
0.0571097
0.0587451
0.0603015
0.061773
0.0631539
0.0644398
0.0656268
0.0667112
0.0676894
0.0685576
0.0693116
0.0699478
0.0704632
0.0708563
0.0711265
0.0712735
0.0712967
0.0711954
0.0709692
0.0706183
0.0701434
0.0695454
0.0688264
0.0679887
0.0670348
0.0659676
0.0647902
0.0635056
0.0621172
0.0606279
0.0590401
0.0573557
0.0555755
0.0537009
0.0517471
0.0497277
0.0474631
0.0447991
0.0217197
0.0188178
0.0163743
0.0142212
0.0121582
0.0101966
0.00835044
0.00661953
0.00500305
0.00350134
0.00211534
0.000846229
-0.00030513
-0.00133811
-0.00225197
-0.00304563
-0.00371819
-0.0042696
-0.00470047
-0.0050115
-0.00520316
-0.00527604
-0.0052313
-0.00507056
-0.00479536
-0.00440682
-0.00390606
-0.00329481
-0.00257554
-0.00175096
-0.000823725
0.000203399
0.0013272
0.00254404
0.00384995
0.00524103
0.00671379
0.00826479
0.00989016
0.0115854
0.0133455
0.0151654
0.0170402
0.0189651
0.0209347
0.0229434
0.024985
0.0270535
0.0291434
0.0312494
0.0333655
0.0354855
0.0376025
0.0397094
0.0417993
0.0438662
0.0459042
0.0479066
0.0498668
0.0517782
0.0536345
0.0554293
0.0571568
0.0588112
0.0603863
0.0618759
0.0632744
0.0645775
0.0657812
0.0668815
0.0678742
0.0687553
0.0695206
0.0701661
0.0706889
0.0710874
0.0713605
0.0715073
0.0715266
0.0714176
0.0711799
0.0708135
0.0703187
0.0696964
0.0689477
0.0680746
0.0670792
0.065964
0.064732
0.0633861
0.0619294
0.0603645
0.0586936
0.0569182
0.0550391
0.0530576
0.0509898
0.0488502
0.0464482
0.0436201
0.0225356
0.0194724
0.0168947
0.0146252
0.0124533
0.0103912
0.00845269
0.00663727
0.0049442
0.00337385
0.00192663
0.000603028
-0.000596664
-0.00167195
-0.00262218
-0.0034467
-0.00414538
-0.00471887
-0.00516793
-0.00549315
-0.00569526
-0.00577559
-0.00573597
-0.00557814
-0.00530343
-0.00491305
-0.00440866
-0.00379259
-0.00306743
-0.00223568
-0.00129986
-0.000262983
0.000871218
0.00209882
0.00341597
0.00481912
0.00630493
0.00786971
0.00950917
0.0112187
0.0129933
0.0148284
0.0167193
0.018661
0.0206478
0.0226738
0.0247331
0.0268199
0.0289291
0.0310551
0.0331915
0.0353319
0.0374697
0.039598
0.0417102
0.0438002
0.0458617
0.0478877
0.0498713
0.0518063
0.0536866
0.0555059
0.057258
0.0589367
0.0605357
0.0620485
0.0634698
0.064795
0.06602
0.0671404
0.0681516
0.069049
0.0698286
0.0704866
0.0710199
0.0714265
0.0717046
0.0718527
0.0718694
0.0717536
0.0715048
0.0711231
0.0706084
0.0699612
0.069182
0.0682724
0.0672342
0.0660697
0.0647815
0.0633725
0.0618455
0.060203
0.0584468
0.0565786
0.0545989
0.0525091
0.0503265
0.0480663
0.0455268
0.0425351
0.0232259
0.0200021
0.0172909
0.0149053
0.012624
0.0104602
0.00842845
0.00652771
0.00475724
0.00311718
0.00160742
0.000227848
-0.00102131
-0.00213967
-0.00312699
-0.00398333
-0.0047092
-0.0053054
-0.00577262
-0.00611167
-0.00632403
-0.00641171
-0.00637666
-0.00622048
-0.00594459
-0.00555077
-0.00504127
-0.00441862
-0.00368516
-0.00284326
-0.00189575
-0.000846173
0.000301424
0.00154321
0.00287566
0.00429535
0.00579875
0.00738171
0.00903966
0.0107681
0.0125626
0.0144185
0.0163312
0.0182952
0.0203045
0.0223536
0.0244366
0.0265481
0.0286828
0.0308348
0.0329974
0.0351643
0.0373291
0.0394853
0.0416263
0.0437456
0.0458366
0.047892
0.049905
0.0518697
0.0537801
0.0556297
0.057412
0.0591205
0.0607486
0.0622901
0.0637394
0.0650919
0.066343
0.0674878
0.0685212
0.0694387
0.0702364
0.0709103
0.0714573
0.0718747
0.0721602
0.0723117
0.0723273
0.072206
0.0719472
0.0715508
0.0710164
0.0703441
0.069534
0.0685873
0.0675054
0.0662905
0.0649449
0.0634713
0.0618724
0.0601504
0.0583072
0.0563443
0.0542625
0.0520632
0.0497648
0.0473833
0.0447058
0.0415503
0.0237842
0.0203993
0.0175544
0.0150528
0.0126616
0.0103951
0.00826942
0.00628289
0.00443424
0.0027233
0.0011498
-0.000286559
-0.00158574
-0.00274777
-0.003773
-0.00466203
-0.00541555
-0.00603432
-0.00651932
-0.006872
-0.00709449
-0.00718899
-0.00715731
-0.00700115
-0.00672253
-0.00632387
-0.00580762
-0.00517609
-0.00443148
-0.00357647
-0.00261446
-0.00154936
-0.00038513
0.000874703
0.00222676
0.00366739
0.00519261
0.006798
0.00847904
0.0102316
0.0120513
0.0139336
0.0158733
0.0178649
0.0199024
0.0219804
0.0240934
0.0262358
0.0284021
0.030586
0.0327808
0.0349804
0.0371787
0.0393694
0.0415455
0.0437003
0.0458267
0.0479176
0.0499663
0.0519671
0.0539137
0.0557995
0.0576176
0.0593614
0.0610242
0.0625999
0.0640827
0.0654678
0.0667497
0.0679232
0.0689831
0.0699249
0.0707446
0.0714383
0.0720023
0.0724335
0.0727289
0.072886
0.0729027
0.0727776
0.0725102
0.0721001
0.0715467
0.0708495
0.0700084
0.0690241
0.067898
0.0666319
0.0652281
0.0636889
0.0620168
0.0602139
0.0582819
0.0562227
0.0540372
0.0517272
0.0493118
0.0468081
0.0439918
0.0406715
0.0242036
0.0206567
0.0176771
0.015059
0.0125575
0.0101881
0.00796772
0.00589461
0.0039669
0.00218423
0.000546306
-0.000947257
-0.00229693
-0.0035033
-0.00456712
-0.00548915
-0.00627013
-0.00691105
-0.00741352
-0.00777966
-0.00801174
-0.00811184
-0.00808193
-0.00792429
-0.00764161
-0.00723654
-0.00671132
-0.00606814
-0.00530951
-0.00443872
-0.00345954
-0.00237584
-0.00119127
9.07826e-05
0.00146669
0.00293236
0.00448349
0.0061157
0.00782472
0.00960657
0.0114569
0.0133708
0.0153428
0.0173673
0.0194387
0.0215518
0.023701
0.0258804
0.0280842
0.030306
0.0325392
0.034778
0.0370165
0.0392481
0.0414656
0.043662
0.04583
0.0479627
0.0500537
0.0520969
0.054086
0.0560139
0.0578736
0.0596583
0.0613617
0.0629774
0.0644995
0.0659222
0.06724
0.0684469
0.0695379
0.0705084
0.0713544
0.0720718
0.0726565
0.0731047
0.0734128
0.073578
0.073598
0.0734714
0.0731972
0.0727748
0.0722033
0.0714817
0.0706098
0.0695879
0.0684173
0.0670997
0.065637
0.0640314
0.0622851
0.0604
0.0583779
0.056221
0.0539304
0.0515083
0.0489748
0.0463475
0.0433911
0.0399047
0.0244768
0.0207667
0.0176512
0.0149158
0.0123039
0.00983101
0.00751517
0.00535455
0.00334706
0.00149222
-0.000210465
-0.00176166
-0.00316236
-0.00441355
-0.0055161
-0.00647086
-0.00727883
-0.00794159
-0.0084613
-0.00884027
-0.0090807
-0.00918481
-0.00915518
-0.00899476
-0.00870648
-0.00829282
-0.00775593
-0.0070983
-0.00632307
-0.00543392
-0.00443462
-0.00332873
-0.00211978
-0.000811394
0.000592338
0.002087
0.0036683
0.00533205
0.00707417
0.00889059
0.0107767
0.0127272
0.0147367
0.0167998
0.0189111
0.0210653
0.0232567
0.025479
0.0277262
0.0299919
0.0322701
0.0345547
0.03684
0.0391189
0.041384
0.0436282
0.0458444
0.0480256
0.0501655
0.0522578
0.0542956
0.0562717
0.0581789
0.0600107
0.0617607
0.0634224
0.0649894
0.0664553
0.067814
0.0690595
0.0701865
0.0711906
0.0720675
0.0728128
0.0734218
0.0738901
0.074214
0.0743903
0.0744165
0.0742909
0.0740122
0.0735793
0.0729908
0.0722456
0.0713433
0.070284
0.0690691
0.0676999
0.0661781
0.0645056
0.0626842
0.0607158
0.0586024
0.0563465
0.0539497
0.0514142
0.048761
0.0460086
0.0429102
0.0392556
0.0245954
0.0207216
0.0174694
0.0146156
0.0118925
0.00931549
0.00690341
0.00465456
0.00256685
0.000639494
-0.00112831
-0.00273763
-0.00418972
-0.00548572
-0.00662664
-0.00761361
-0.00844819
-0.00913246
-0.00966876
-0.0100593
-0.0103065
-0.0104131
-0.0103824
-0.0102177
-0.00992166
-0.00949672
-0.00894538
-0.00827078
-0.00747645
-0.00656607
-0.00554314
-0.00441111
-0.00317376
-0.00183517
-0.000399766
0.00112801
0.00274406
0.00444434
0.00622467
0.00808069
0.0100075
0.0119998
0.0140522
0.0161596
0.0183167
0.0205181
0.0227575
0.0250286
0.0273252
0.0296414
0.031971
0.0343082
0.0366466
0.0389792
0.0412983
0.0435969
0.0458681
0.0481048
0.0503004
0.0524483
0.0545412
0.0565718
0.058533
0.0604182
0.0622212
0.063935
0.0655526
0.0670673
0.0684725
0.0697619
0.0709304
0.0719732
0.0728857
0.0736632
0.0743004
0.0747927
0.0751358
0.0753265
0.0753621
0.0752404
0.0749596
0.0745181
0.0739141
0.0731464
0.0722145
0.0711185
0.0698597
0.0684391
0.0668582
0.0651184
0.0632212
0.0611686
0.0589631
0.0566072
0.0541029
0.0514525
0.0486778
0.0457982
0.0425555
0.0387303
0.0245517
0.0205136
0.017124
0.0141507
0.011315
0.00863305
0.00612411
0.00378655
0.00161818
-0.000382078
-0.0022154
-0.00388312
-0.00538654
-0.00672696
-0.00790573
-0.00892448
-0.00978525
-0.0104903
-0.0110418
-0.0114423
-0.0116947
-0.0118025
-0.0117692
-0.0115981
-0.0112916
-0.0108527
-0.0102844
-0.00959029
-0.00877404
-0.00783899
-0.00678854
-0.00562642
-0.00435686
-0.0029843
-0.0015132
5.21686e-05
0.00170783
0.00344965
0.00527315
0.00717365
0.00914616
0.0111855
0.0132865
0.0154441
0.017653
0.0199072
0.0222004
0.0245262
0.0268786
0.0292517
0.0316395
0.0340357
0.0364338
0.0388264
0.0412061
0.043566
0.0458992
0.0481985
0.0504568
0.0526669
0.0548215
0.0569132
0.0589351
0.0608806
0.062743
0.0645151
0.0661894
0.0677586
0.0692161
0.0705554
0.071771
0.0728579
0.0738111
0.0746253
0.075295
0.0758151
0.0761815
0.0763904
0.0764388
0.0763241
0.0760439
0.075596
0.0749783
0.0741896
0.0732293
0.0720977
0.0707957
0.0693243
0.0676843
0.0658768
0.0639034
0.061766
0.0594674
0.0570106