/*--------------------------------*- C++ -*----------------------------------*\
  =========                 |
  \\      /  F ield         | OpenFOAM: The Open Source CFD Toolbox
   \\    /   O peration     | Website:  https://openfoam.org
    \\  /    A nd           | Version:  11
     \\/     M anipulation  |
\*---------------------------------------------------------------------------*/
FoamFile
{
    format      ascii;
    class       surfaceScalarField;
    location    "5.2";
    object      phi;
}
// * * * * * * * * * * * * * * * * * * * * * * * * * * * * * * * * * * * * * //

dimensions      [0 3 -1 0 0 0 0];

internalField   nonuniform List<scalar> 
19980
(
6.65566e-07
-6.65769e-07
2.4464e-06
-1.7808e-06
4.56113e-06
-2.11455e-06
6.28582e-06
-1.72478e-06
7.23452e-06
-9.48659e-07
7.2366e-06
-2.28472e-09
6.22263e-06
1.01409e-06
4.17922e-06
2.04327e-06
1.12618e-06
3.05317e-06
-2.89846e-06
4.02455e-06
-7.84456e-06
4.9462e-06
-1.3656e-05
5.81141e-06
-2.02698e-05
6.61385e-06
-2.76224e-05
7.35271e-06
-3.56488e-05
8.02648e-06
-4.42827e-05
8.63386e-06
-5.34581e-05
9.17549e-06
-6.31093e-05
9.65105e-06
-7.31703e-05
1.0061e-05
-8.35774e-05
1.04072e-05
-9.42687e-05
1.06913e-05
-0.000105183
1.09144e-05
-0.000116262
1.1079e-05
-0.000127448
1.11865e-05
-0.000138687
1.12382e-05
-0.000149923
1.12366e-05
-0.000161107
1.11839e-05
-0.00017219
1.10822e-05
-0.000183123
1.09336e-05
-0.000193863
1.07399e-05
-0.000204366
1.0503e-05
-0.000214591
1.02254e-05
-0.000224501
9.90927e-06
-0.000234057
9.55632e-06
-0.000243226
9.16836e-06
-0.000251973
8.74744e-06
-0.000260269
8.29548e-06
-0.000268083
7.81406e-06
-0.000275387
7.30476e-06
-0.000282157
6.76976e-06
-0.000288368
6.21127e-06
-0.000293999
5.631e-06
-0.00029903
5.03075e-06
-0.000303443
4.4129e-06
-0.000307223
3.77969e-06
-0.000310355
3.13261e-06
-0.000312828
2.47324e-06
-0.000314632
1.804e-06
-0.00031576
1.12758e-06
-0.000316207
4.46542e-07
-0.00031597
-2.3699e-07
-0.000315048
-9.21397e-07
-0.000313443
-1.60478e-06
-0.000311159
-2.28455e-06
-0.000308201
-2.95798e-06
-0.000304578
-3.62268e-06
-0.000300302
-4.27649e-06
-0.000295384
-4.91734e-06
-0.000289841
-5.54293e-06
-0.000283691
-6.15064e-06
-0.000276953
-6.73756e-06
-0.000269652
-7.30097e-06
-0.000261814
-7.83864e-06
-0.000253465
-8.34845e-06
-0.000244637
-8.82786e-06
-0.000235363
-9.27408e-06
-0.000225679
-9.68449e-06
-0.000215622
-1.00566e-05
-0.000205234
-1.0388e-05
-0.000194558
-1.06764e-05
-0.000183638
-1.09198e-05
-0.000172522
-1.1116e-05
-0.000161259
-1.1263e-05
-0.0001499
-1.13585e-05
-0.0001385
-1.14003e-05
-0.000127114
-1.13863e-05
-0.000115798
-1.13151e-05
-0.000104613
-1.1185e-05
-9.36189e-05
-1.09944e-05
-8.28767e-05
-1.07421e-05
-7.24499e-05
-1.04267e-05
-6.2403e-05
-1.0047e-05
-5.28009e-05
-9.60209e-06
-4.37091e-05
-9.09171e-06
-3.51926e-05
-8.51651e-06
-2.73148e-05
-7.87783e-06
-2.01372e-05
-7.17766e-06
-1.37185e-05
-6.41868e-06
-8.11401e-06
-5.60442e-06
-3.37445e-06
-4.73958e-06
4.56488e-07
-3.83096e-06
3.34518e-06
-2.88866e-06
5.27269e-06
-1.92752e-06
6.24241e-06
-9.69772e-07
6.29167e-06
-4.92793e-08
5.51029e-06
7.81383e-07
4.07038e-06
1.43988e-06
2.27691e-06
1.7934e-06
6.59234e-07
1.61763e-06
6.59217e-07
1.37592e-06
-2.04184e-06
4.08902e-06
-4.4939e-06
6.97929e-06
-5.00484e-06
8.90614e-06
-3.65161e-06
9.08979e-06
-1.1322e-06
7.06105e-06
2.02672e-06
2.57269e-06
5.50223e-06
-4.48157e-06
9.09787e-06
-1.41147e-05
1.26861e-05
-2.6274e-05
1.61841e-05
-4.08657e-05
1.9538e-05
-5.77661e-05
2.27115e-05
-7.68323e-05
2.56801e-05
-9.79083e-05
2.84285e-05
-0.000120828
3.09458e-05
-0.00014542
3.32261e-05
-0.000171511
3.52665e-05
-0.000198925
3.70651e-05
-0.000227487
3.86235e-05
-0.000257025
3.9945e-05
-0.000287367
4.10329e-05
-0.000318345
4.18924e-05
-0.000349796
4.25297e-05
-0.000381559
4.29501e-05
-0.000413481
4.31598e-05
-0.00044541
4.31657e-05
-0.000477202
4.29756e-05
-0.000508716
4.25967e-05
-0.000539819
4.20361e-05
-0.00057038
4.13014e-05
-0.000600278
4.04004e-05
-0.000629393
3.9341e-05
-0.000657614
3.81304e-05
-0.000684834
3.67763e-05
-0.000710952
3.52862e-05
-0.000735872
3.36675e-05
-0.000759504
3.19272e-05
-0.000781762
3.00726e-05
-0.000802569
2.81113e-05
-0.00082185
2.60507e-05
-0.000839537
2.38984e-05
-0.000855568
2.1662e-05
-0.000869887
1.93494e-05
-0.000882442
1.69684e-05
-0.000893189
1.4527e-05
-0.000902089
1.20326e-05
-0.000909109
9.49279e-06
-0.000914221
6.91605e-06
-0.000917405
4.31146e-06
-0.000918646
1.68796e-06
-0.000917937
-9.46155e-07
-0.000915276
-3.58296e-06
-0.000910666
-6.21421e-06
-0.00090412
-8.83076e-06
-0.000895655
-1.14231e-05
-0.000885295
-1.39821e-05
-0.000873073
-1.6499e-05
-0.000859025
-1.89649e-05
-0.000843198
-2.13706e-05
-0.000825642
-2.37063e-05
-0.000806418
-2.59618e-05
-0.000785591
-2.81275e-05
-0.000763236
-3.01939e-05
-0.000739432
-3.21518e-05
-0.000714269
-3.39917e-05
-0.000687839
-3.57039e-05
-0.000660245
-3.72784e-05
-0.000631596
-3.87058e-05
-0.000602007
-3.99768e-05
-0.000571601
-4.10827e-05
-0.000540505
-4.20153e-05
-0.000508854
-4.27664e-05
-0.00047679
-4.33278e-05
-0.000444457
-4.36913e-05
-0.000412008
-4.38495e-05
-0.000379599
-4.37951e-05
-0.000347392
-4.35219e-05
-0.000315553
-4.30242e-05
-0.00028425
-4.22971e-05
-0.000253656
-4.13362e-05
-0.000223945
-4.01375e-05
-0.000195294
-3.86984e-05
-0.000167878
-3.70176e-05
-0.000141874
-3.50958e-05
-0.000117455
-3.29362e-05
-9.47878e-05
-3.05445e-05
-7.40357e-05
-2.79297e-05
-5.53505e-05
-2.51039e-05
-3.88715e-05
-2.20836e-05
-2.47198e-05
-1.88912e-05
-1.2993e-05
-1.55578e-05
-3.75519e-06
-1.21265e-05
2.97495e-06
-8.65769e-06
7.24201e-06
-5.23682e-06
9.17867e-06
-1.98589e-06
9.04043e-06
9.19624e-07
7.25275e-06
3.22761e-06
4.46716e-06
4.57915e-06
1.61469e-06
4.47027e-06
2.27391e-06
1.30304e-06
-3.34471e-06
3.5061e-06
-6.69696e-06
5.30846e-06
-6.80704e-06
5.47241e-06
-3.81559e-06
3.06576e-06
1.27424e-06
-2.53381e-06
7.62601e-06
-1.17042e-05
1.46727e-05
-2.46381e-05
2.20317e-05
-4.13935e-05
2.94412e-05
-6.19308e-05
3.67215e-05
-8.61414e-05
4.37486e-05
-0.000113864
5.04344e-05
-0.000144902
5.6718e-05
-0.000179031
6.25576e-05
-0.000216011
6.79259e-05
-0.000255588
7.28025e-05
-0.000297498
7.71771e-05
-0.000341478
8.10448e-05
-0.000387258
8.44038e-05
-0.000434572
8.72586e-05
-0.000483154
8.96151e-05
-0.000532743
9.14815e-05
-0.000583082
9.28685e-05
-0.000633919
9.37873e-05
-0.00068501
9.42505e-05
-0.000736117
9.42722e-05
-0.000787008
9.38668e-05
-0.000837461
9.30496e-05
-0.000887261
9.18358e-05
-0.000936201
9.02413e-05
-0.000984083
8.82823e-05
-0.00103072
8.59749e-05
-0.00107592
8.33356e-05
-0.00111953
8.03808e-05
-0.00116137
7.71264e-05
-0.00120129
7.35888e-05
-0.00123914
6.97842e-05
-0.0012748
6.57289e-05
-0.00130813
6.14392e-05
-0.00133901
5.69319e-05
-0.00136734
5.22238e-05
-0.00139301
4.73315e-05
-0.00141593
4.22721e-05
-0.00143602
3.70632e-05
-0.00145322
3.17219e-05
-0.00146745
2.62652e-05
-0.00147867
2.07104e-05
-0.00148683
1.5076e-05
-0.0014919
9.38073e-06
-0.00149385
3.64341e-06
-0.00149268
-2.11765e-06
-0.00148838
-7.884e-06
-0.00148096
-1.36367e-05
-0.00147043
-1.93563e-05
-0.00145683
-2.50229e-05
-0.0014402
-3.06165e-05
-0.00142058
-3.61172e-05
-0.00139804
-4.15052e-05
-0.00137265
-4.67602e-05
-0.00134449
-5.1861e-05
-0.00131367
-5.67863e-05
-0.00128028
-6.15151e-05
-0.00124445
-6.60267e-05
-0.0012063
-7.03004e-05
-0.00116598
-7.43153e-05
-0.00112363
-7.80506e-05
-0.00107942
-8.14854e-05
-0.00103353
-8.45992e-05
-0.000986135
-8.73723e-05
-0.000937432
-8.97853e-05
-0.000887628
-9.182e-05
-0.000836936
-9.34582e-05
-0.000785581
-9.46826e-05
-0.000733795
-9.54765e-05
-0.000681821
-9.58239e-05
-0.000629906
-9.57102e-05
-0.000578305
-9.51223e-05
-0.000527281
-9.40487e-05
-0.000477099
-9.24792e-05
-0.000428029
-9.04057e-05
-0.000380344
-8.78221e-05
-0.000334318
-8.47246e-05
-0.000290223
-8.11129e-05
-0.000248328
-7.69908e-05
-0.000208897
-7.23671e-05
-0.000172185
-6.72561e-05
-0.000138436
-6.16789e-05
-0.000107875
-5.5665e-05
-8.07047e-05
-4.92539e-05
-5.70969e-05
-4.2499e-05
-3.71828e-05
-3.54719e-05
-2.104e-05
-2.82693e-05
-8.67524e-06
-2.10224e-05
-2.44111e-09
-1.39096e-05
5.1866e-06
-7.17499e-06
7.25886e-06
-1.15271e-06
6.7852e-06
3.70126e-06
4.58808e-06
6.77626e-06
1.7931e-06
7.26533e-06
4.06701e-06
9.08855e-07
-4.2536e-06
1.90395e-06
-7.69211e-06
1.64735e-06
-6.55056e-06
-1.07635e-06
-1.09182e-06
-7.21762e-06
7.41572e-06
-1.74495e-05
1.78581e-05
-3.22065e-05
2.94295e-05
-5.17287e-05
4.15541e-05
-7.61075e-05
5.38199e-05
-0.000105314
6.59281e-05
-0.00013923
7.76652e-05
-0.000177673
8.88764e-05
-0.000220404
9.94492e-05
-0.000267151
0.000109305
-0.000317612
0.000118387
-0.000371466
0.000126657
-0.00042838
0.000134091
-0.000488009
0.000140674
-0.000550008
0.000146403
-0.000614028
0.000151278
-0.00067972
0.000155307
-0.00074674
0.000158502
-0.00081475
0.000160878
-0.000883415
0.000162452
-0.00095241
0.000163245
-0.00102142
0.000163279
-0.00109013
0.000162578
-0.00115824
0.000161165
-0.00122547
0.000159067
-0.00129154
0.000156311
-0.00135618
0.000152923
-0.00141914
0.000148932
-0.00148017
0.000144363
-0.00153903
0.000139246
-0.00159552
0.00013361
-0.00164941
0.000127481
-0.00170051
0.000120888
-0.00174864
0.000113859
-0.00179363
0.000106424
-0.00183531
9.86118e-05
-0.00187353
9.04504e-05
-0.00190817
8.19697e-05
-0.0019391
7.31996e-05
-0.00196621
6.41701e-05
-0.0019894
5.4911e-05
-0.00200858
4.54526e-05
-0.0020237
3.58257e-05
-0.00203468
2.60615e-05
-0.0020415
1.6192e-05
-0.0020441
6.24969e-06
-0.00204249
-3.73337e-06
-0.00203665
-1.37248e-05
-0.00202659
-2.36915e-05
-0.00201235
-3.35997e-05
-0.00199396
-4.34152e-05
-0.00197147
-5.31035e-05
-0.00194496
-6.26301e-05
-0.0019145
-7.19601e-05
-0.0018802
-8.10577e-05
-0.00184218
-8.98871e-05
-0.00180055
-9.84122e-05
-0.00175547
-0.000106597
-0.00170709
-0.000114404
-0.00165559
-0.000121799
-0.00160116
-0.000128745
-0.00154401
-0.000135207
-0.00148434
-0.000141149
-0.0014224
-0.000146536
-0.00135844
-0.000151335
-0.00129272
-0.000155511
-0.0012255
-0.000159034
-0.00115709
-0.000161873
-0.00108777
-0.000163997
-0.00101787
-0.000165379
-0.000947702
-0.000165993
-0.000877599
-0.000165814
-0.0008079
-0.000164821
-0.000738954
-0.000162995
-0.000671113
-0.00016032
-0.000604733
-0.000156785
-0.000540175
-0.00015238
-0.000477796
-0.000147103
-0.000417953
-0.000140956
-0.000360995
-0.000133949
-0.000307263
-0.000126098
-0.000257086
-0.000117433
-0.000210773
-0.000107992
-0.000168607
-9.78304e-05
-0.000130842
-8.70193e-05
-9.7686e-05
-7.56548e-05
-6.9295e-05
-6.38629e-05
-4.57546e-05
-5.18097e-05
-2.70625e-05
-3.97145e-05
-1.31049e-05
-2.78672e-05
-3.62862e-06
-1.66512e-05
1.79276e-06
-6.57406e-06
3.79828e-06
1.69575e-06
3.28247e-06
7.29199e-06
1.45276e-06
9.09506e-06
5.51975e-06
3.13554e-07
-4.56707e-06
-3.80199e-07
-6.99822e-06
-3.35069e-06
-3.58025e-06
-9.72591e-06
5.28355e-06
-2.04022e-05
1.80919e-05
-3.60355e-05
3.34912e-05
-5.70645e-05
5.04586e-05
-8.37422e-05
6.8232e-05
-0.000116165
8.62429e-05
-0.000154308
0.000104071
-0.000198043
0.0001214
-0.000247163
0.000137997
-0.000301402
0.000153688
-0.000360445
0.000168348
-0.000423942
0.000181883
-0.000491515
0.000194231
-0.000562771
0.000205347
-0.000637302
0.000215204
-0.000714691
0.000223792
-0.000794519
0.000231106
-0.000876366
0.000237155
-0.000959816
0.000241952
-0.00104445
0.000245516
-0.00112987
0.000247872
-0.00121568
0.000249048
-0.00130147
0.000249077
-0.00138689
0.00024799
-0.00147155
0.000245824
-0.0015551
0.000242618
-0.0016372
0.000238411
-0.00171751
0.000233241
-0.00179573
0.000227151
-0.00187155
0.000220182
-0.00194468
0.000212376
-0.00201485
0.000203776
-0.00208179
0.000194424
-0.00214527
0.000184364
-0.00220505
0.00017364
-0.00226092
0.000162295
-0.00231268
0.000150373
-0.00236015
0.000137919
-0.00240316
0.000124979
-0.00244155
0.000111596
-0.0024752
9.78182e-05
-0.00250398
8.36905e-05
-0.00252779
6.92595e-05
-0.00254653
5.45721e-05
-0.00256015
3.96765e-05
-0.00256858
2.46212e-05
-0.00257178
9.45518e-06
-0.00256975
-5.77243e-06
-0.00256246
-2.10116e-05
-0.00254994
-3.62114e-05
-0.00253222
-5.13207e-05
-0.00250934
-6.62877e-05
-0.00248139
-8.10597e-05
-0.00244844
-9.55836e-05
-0.00241059
-0.000109806
-0.00236797
-0.000123673
-0.00232073
-0.000137129
-0.00226902
-0.000150121
-0.00221303
-0.000162593
-0.00215294
-0.00017449
-0.00208898
-0.000185758
-0.00202139
-0.000196341
-0.00195041
-0.000206187
-0.00187632
-0.000215241
-0.0017994
-0.000223451
-0.00171997
-0.000230766
-0.00163834
-0.000237136
-0.00155487
-0.000242513
-0.00146989
-0.00024685
-0.00138378
-0.000250104
-0.00129693
-0.000252232
-0.00120972
-0.000253198
-0.00112257
-0.000252964
-0.00103589
-0.0002515
-0.00095011
-0.000248779
-0.000865651
-0.000244779
-0.00078295
-0.000239485
-0.000702444
-0.000232887
-0.000624565
-0.000224983
-0.000549741
-0.00021578
-0.000478394
-0.000205296
-0.000410931
-0.000193562
-0.00034774
-0.000180624
-0.000289186
-0.000166546
-0.000235603
-0.000151414
-0.000187282
-0.00013534
-0.000144465
-0.000118472
-0.000107327
-0.000101001
-7.59647e-05
-8.3172e-05
-5.03747e-05
-6.53045e-05
-3.04336e-05
-4.78084e-05
-1.58717e-05
-3.12131e-05
-6.24501e-06
-1.62008e-05
-9.01346e-07
-3.64793e-06
1.05602e-06
5.33457e-06
8.19198e-07
9.33184e-06
6.3389e-06
-4.30898e-07
-4.13633e-06
-3.14771e-06
-4.28114e-06
-9.29106e-06
2.56276e-06
-1.98539e-05
1.58465e-05
-3.56364e-05
3.38744e-05
-5.72341e-05
5.50887e-05
-8.50513e-05
7.82759e-05
-0.000119321
0.000102502
-0.000160131
0.000127052
-0.000207437
0.000151378
-0.000261099
0.000175061
-0.000320887
0.000197784
-0.000386503
0.000219305
-0.000457599
0.000239443
-0.000533781
0.000258066
-0.000614627
0.000275076
-0.000699687
0.000290407
-0.000788499
0.000304016
-0.000880586
0.000315879
-0.000975468
0.000325988
-0.00107266
0.000334347
-0.00117168
0.000340973
-0.00127205
0.000345887
-0.0013733
0.000349121
-0.00147496
0.000350711
-0.00157658
0.000350698
-0.00167772
0.000349128
-0.00177795
0.000346049
-0.00187684
0.000341513
-0.001974
0.000335571
-0.00206904
0.000328281
-0.00216159
0.000319697
-0.00225129
0.000309879
-0.00233779
0.000298884
-0.00242079
0.000286772
-0.00249997
0.000273603
-0.00257504
0.000259437
-0.00264574
0.000244336
-0.00271181
0.000228362
-0.00277301
0.000211577
-0.00282913
0.000194043
-0.00287998
0.000175824
-0.00292537
0.000156985
-0.00296514
0.000137588
-0.00299915
0.000117701
-0.00302728
9.73869e-05
-0.00304942
7.6714e-05
-0.00306549
5.57491e-05
-0.00307543
3.45605e-05
-0.00307919
1.32168e-05
-0.00307675
-8.21199e-06
-0.00306811
-2.96555e-05
-0.00305328
-5.10425e-05
-0.0030323
-7.23005e-05
-0.00300523
-9.33566e-05
-0.00297215
-0.000114137
-0.00293317
-0.000134567
-0.0028884
-0.000154571
-0.002838
-0.000174074
-0.00278213
-0.000192999
-0.00272098
-0.000211269
-0.00265477
-0.000228808
-0.00258372
-0.000245538
-0.0025081
-0.000261383
-0.00242817
-0.000276266
-0.00234424
-0.000290114
-0.00225663
-0.00030285
-0.00216568
-0.000314402
-0.00207175
-0.000324699
-0.00197521
-0.000333672
-0.00187647
-0.000341253
-0.00177595
-0.000347378
-0.00167406
-0.000351988
-0.00157127
-0.000355026
-0.00146803
-0.000356438
-0.00136481
-0.000356177
-0.00126211
-0.000354202
-0.00116042
-0.000350477
-0.00106022
-0.000344974
-0.000962031
-0.000337674
-0.00086635
-0.000328568
-0.000773677
-0.000317656
-0.000684504
-0.000304952
-0.000599313
-0.000290487
-0.000518569
-0.000274306
-0.000442714
-0.00025648
-0.00037216
-0.0002371
-0.000307284
-0.00021629
-0.000248413
-0.000194211
-0.000195817
-0.000171068
-0.000149694
-0.000147123
-0.000110156
-0.00012271
-7.72096e-05
-9.82507e-05
-5.07398e-05
-7.42782e-05
-3.04861e-05
-5.14668e-05
-1.602e-05
-3.06669e-05
-6.71906e-06
-1.29489e-05
-1.73852e-06
3.54034e-07
2.39777e-08
7.56924e-06
6.36285e-06
-1.26365e-06
-2.87254e-06
-6.22603e-06
6.81101e-07
-1.58489e-05
1.21857e-05
-3.09664e-05
3.09638e-05
-5.22536e-05
5.51619e-05
-8.02175e-05
8.30528e-05
-0.000115202
0.00011326
-0.000157396
0.000144697
-0.000206854
0.00017651
-0.00026351
0.000208034
-0.000327194
0.000238745
-0.00039765
0.00026824
-0.000474553
0.000296207
-0.000557516
0.000322407
-0.00064611
0.00034666
-0.000739867
0.000368833
-0.000838294
0.000388834
-0.000940877
0.000406599
-0.00104709
0.00042209
-0.00115639
0.00043529
-0.00126824
0.000446202
-0.00138211
0.000454838
-0.00149745
0.000461227
-0.00161373
0.000465404
-0.00173044
0.000467414
-0.00184705
0.000467309
-0.00196307
0.000465146
-0.002078
0.000460987
-0.00219139
0.000454897
-0.00230276
0.000446946
-0.00241169
0.000437205
-0.00251774
0.000425748
-0.00262051
0.000412651
-0.00271962
0.000397991
-0.00281469
0.000381845
-0.00290538
0.000364294
-0.00299136
0.000345418
-0.00307232
0.000325299
-0.00314798
0.000304017
-0.00321806
0.000281656
-0.00328232
0.000258301
-0.00334053
0.000234034
-0.00339248
0.000208941
-0.003438
0.000183109
-0.00347693
0.000156623
-0.00350911
0.000129572
-0.00353444
0.000102044
-0.00355282
7.41289e-05
-0.00356418
4.59173e-05
-0.00356846
1.7501e-05
-0.00356565
-1.10273e-05
-0.00355573
-3.95737e-05
-0.00353873
-6.80428e-05
-0.00351469
-9.63388e-05
-0.00348368
-0.000124365
-0.0034458
-0.000152022
-0.00340115
-0.000179211
-0.00334989
-0.000205833
-0.00329218
-0.000231786
-0.00322821
-0.000256969
-0.0031582
-0.000281281
-0.00308239
-0.00030462
-0.00300104
-0.000326883
-0.00291445
-0.000347971
-0.00282294
-0.000367781
-0.00272684
-0.000386214
-0.00262651
-0.000403174
-0.00252235
-0.000418562
-0.00241477
-0.000432286
-0.00230418
-0.000444254
-0.00219106
-0.00045438
-0.00207586
-0.000462579
-0.00195907
-0.000468772
-0.00184121
-0.000472886
-0.0017228
-0.000474853
-0.00160436
-0.000474613
-0.00148645
-0.000472112
-0.00136962
-0.000467306
-0.00125443
-0.000460162
-0.00114145
-0.000450657
-0.00103124
-0.000438782
-0.000924351
-0.000424542
-0.000821341
-0.000407962
-0.000722744
-0.000389084
-0.000629075
-0.000367975
-0.000540825
-0.00034473
-0.000458449
-0.000319475
-0.000382363
-0.000292376
-0.000312928
-0.000263645
-0.000250445
-0.000233551
-0.000195136
-0.000202432
-0.000147136
-0.00017071
-0.000106476
-0.000138911
-7.30647e-05
-0.00010769
-4.66718e-05
-7.78597e-05
-2.69124e-05
-5.04264e-05
-1.32264e-05
-2.66349e-05
-4.86146e-06
-8.01089e-06
-8.5375e-07
3.56142e-06
5.50908e-06
-2.14378e-06
-7.2891e-07
-9.48129e-06
8.01897e-06
-2.27763e-05
2.54807e-05
-4.26864e-05
5.08742e-05
-6.97454e-05
8.22209e-05
-0.000104354
0.000117661
-0.000146772
0.000155678
-0.000197131
0.000195056
-0.000255437
0.000234816
-0.000321582
0.000274179
-0.000395364
0.000312527
-0.000476495
0.000349371
-0.000564613
0.000384326
-0.0006593
0.000417094
-0.000760088
0.000447447
-0.00086647
0.000475215
-0.000977908
0.000500273
-0.00109384
0.000522535
-0.0012137
0.000541949
-0.0013369
0.000558487
-0.00146284
0.000572144
-0.00159094
0.000582934
-0.0017206
0.000590887
-0.00185124
0.000596044
-0.00198228
0.000598458
-0.00211316
0.000598191
-0.00224333
0.000595313
-0.00237224
0.000589899
-0.00249938
0.000582032
-0.00262423
0.000571797
-0.00274631
0.000559283
-0.00286514
0.000544584
-0.00298028
0.000527794
-0.0030913
0.00050901
-0.00319779
0.000488333
-0.00329936
0.000465863
-0.00339564
0.000441701
-0.0034863
0.000415953
-0.003571
0.000388721
-0.00364946
0.000360112
-0.00372139
0.000330232
-0.00378655
0.00029919
-0.0038447
0.000267094
-0.00389564
0.000234053
-0.0039392
0.00020018
-0.00397521
0.000165585
-0.00400355
0.000130382
-0.00402411
9.46868e-05
-0.0040368
5.86141e-05
-0.00404158
2.22815e-05
-0.00403842
-1.41922e-05
-0.00402731
-5.06871e-05
-0.00400827
-8.70817e-05
-0.00398135
-0.000123253
-0.00394664
-0.000159078
-0.00390423
-0.00019443
-0.00385426
-0.000229184
-0.00379688
-0.00026321
-0.00373228
-0.000296383
-0.00366068
-0.000328571
-0.00358232
-0.000359646
-0.00349746
-0.000389479
-0.0034064
-0.000417939
-0.00330947
-0.000444899
-0.00320702
-0.000470231
-0.00309943
-0.000493809
-0.00298709
-0.000515508
-0.00287045
-0.000535207
-0.00274995
-0.000552787
-0.00262607
-0.000568134
-0.00249931
-0.000581137
-0.0023702
-0.000591691
-0.00223927
-0.000599699
-0.00210709
-0.000605066
-0.00197424
-0.000607711
-0.00184129
-0.000607557
-0.00170886
-0.000604541
-0.00157756
-0.000598609
-0.001448
-0.000589722
-0.0013208
-0.000577855
-0.00119658
-0.000563
-0.00107596
-0.000545168
-0.000959525
-0.000524395
-0.00084787
-0.000500739
-0.000741557
-0.000474289
-0.000641119
-0.000445168
-0.000547053
-0.000413541
-0.000459811
-0.000379618
-0.000379792
-0.000343665
-0.000307326
-0.000306017
-0.00024267
-0.000267089
-0.000185988
-0.000227391
-0.000137345
-0.000187554
-9.66883e-05
-0.000148346
-6.38388e-05
-0.000110709
-3.84751e-05
-7.57901e-05
-2.01244e-05
-4.49857e-05
-8.15383e-06
-1.99815e-05
-1.76589e-06
-2.82659e-06
3.74315e-06
-3.0423e-06
2.31349e-06
-1.28204e-05
1.77969e-05
-2.9894e-05
4.2554e-05
-5.47367e-05
7.5717e-05
-8.77347e-05
0.000115219
-0.000129166
0.000159092
-0.000179199
0.000205712
-0.000237888
0.000253745
-0.000305179
0.000302106
-0.000380916
0.000349916
-0.000464852
0.000396463
-0.000556658
0.000441178
-0.000655939
0.000483606
-0.000762237
0.000523392
-0.000875045
0.000560256
-0.000993819
0.000593989
-0.00111798
0.000624435
-0.00124693
0.000651484
-0.00138005
0.000675065
-0.0015167
0.000695139
-0.00165625
0.000711695
-0.00179806
0.000724746
-0.00194149
0.00073432
-0.00208592
0.000740466
-0.0022307
0.000743245
-0.00237524
0.000742729
-0.00251893
0.000739
-0.00266118
0.000732151
-0.00280142
0.000722278
-0.00293911
0.000709485
-0.00307371
0.00069388
-0.0032047
0.000675578
-0.0033316
0.000654694
-0.00345394
0.000631346
-0.00357126
0.000605658
-0.00368315
0.000577753
-0.00378921
0.000547756
-0.00388905
0.000515797
-0.00398233
0.000482002
-0.00406873
0.000446504
-0.00414793
0.000409435
-0.00421967
0.000370927
-0.00428369
0.000331115
-0.00433977
0.000290135
-0.00438771
0.000248126
-0.00442735
0.000205225
-0.00445854
0.000161573
-0.00448117
0.000117312
-0.00449514
7.25863e-05
-0.0045004
2.75405e-05
-0.00449691
-1.76782e-05
-0.00448468
-6.29212e-05
-0.00446372
-0.000108038
-0.0044341
-0.000152878
-0.00439589
-0.000197286
-0.00434922
-0.000241107
-0.00429421
-0.000284186
-0.00423106
-0.000326364
-0.00415996
-0.000367484
-0.00408114
-0.000407386
-0.00399488
-0.00044591
-0.00390146
-0.000482896
-0.00380121
-0.000518187
-0.00369449
-0.000551622
-0.00358168
-0.000583045
-0.00346319
-0.000612301
-0.00333946
-0.000639238
-0.00321096
-0.000663706
-0.00307818
-0.00068556
-0.00294166
-0.000704659
-0.00280192
-0.00072087
-0.00265955
-0.000734064
-0.00251513
-0.000744121
-0.00236927
-0.000750929
-0.00222259
-0.000754388
-0.00207574
-0.000754408
-0.00192937
-0.000750912
-0.00178414
-0.000743838
-0.00164072
-0.00073314
-0.00149978
-0.000718793
-0.00136199
-0.00070079
-0.00122801
-0.00067915
-0.00109848
-0.000653919
-0.000974048
-0.000625175
-0.000855308
-0.000593029
-0.000742839
-0.000557637
-0.000637179
-0.000519201
-0.000538819
-0.000477978
-0.000448193
-0.000434291
-0.00036567
-0.000388541
-0.000291541
-0.000341218
-0.000226012
-0.00029292
-0.000169191
-0.000244375
-0.000121079
-0.000196458
-8.15599e-05
-0.000150229
-5.03929e-05
-0.000106957
-2.72096e-05
-6.8169e-05
-1.1513e-05
-3.56782e-05
-2.6841e-06
-1.16555e-05
1.059e-06
-3.94131e-06
6.25469e-06
-1.61805e-05
3.00364e-05
-3.70754e-05
6.34491e-05
-6.69193e-05
0.000105561
-0.000105944
0.000154243
-0.000154304
0.000207452
-0.00021206
0.000263468
-0.000279185
0.000320869
-0.000355551
0.000378473
-0.000440946
0.00043531
-0.00053507
0.000490587
-0.00063755
0.000543658
-0.000747947
0.000594003
-0.000865763
0.000641208
-0.000990454
0.000684947
-0.00112144
0.00072497
-0.00125809
0.000761088
-0.00139977
0.000793166
-0.00154582
0.000821117
-0.00169557
0.000844887
-0.00184834
0.000864459
-0.00200343
0.000879842
-0.00216018
0.000891067
-0.0023179
0.000898186
-0.00247592
0.00090127
-0.0026336
0.0009004
-0.00279027
0.000895674
-0.00294532
0.000887198
-0.00309812
0.000875085
-0.0032481
0.000859459
-0.00339467
0.00084045
-0.00353728
0.00081819
-0.00367541
0.000792819
-0.00380854
0.000764479
-0.0039362
0.000733316
-0.00405792
0.000699479
-0.00417329
0.00066312
-0.00428188
0.000624392
-0.00438333
0.000583449
-0.00447728
0.000540451
-0.0045634
0.000495556
-0.0046414
0.000448925
-0.004711
0.000400721
-0.00477197
0.000351107
-0.0048241
0.000300251
-0.00486719
0.00024832
-0.0049011
0.000195483
-0.00492571
0.000141913
-0.0049409
8.77822e-05
-0.00494663
3.3267e-05
-0.00494285
-2.14552e-05
-0.00492957
-7.6205e-05
-0.0049068
-0.000130801
-0.00487462
-0.00018506
-0.00483311
-0.000238796
-0.0047824
-0.000291823
-0.00472263
-0.000343951
-0.004654
-0.000394991
-0.00457674
-0.000444753
-0.00449108
-0.000493043
-0.00439732
-0.000539671
-0.00429577
-0.000584443
-0.00418679
-0.000627169
-0.00407075
-0.000667658
-0.00394808
-0.000705721
-0.00381921
-0.000741173
-0.00368461
-0.00077383
-0.0035448
-0.000803515
-0.00340031
-0.000830052
-0.0032517
-0.000853274
-0.00309955
-0.000873021
-0.00294447
-0.000889141
-0.0027871
-0.00090149
-0.00262809
-0.000909937
-0.00246812
-0.000914363
-0.00230787
-0.000914661
-0.00214803
-0.000910744
-0.00198933
-0.000902539
-0.00183248
-0.000889996
-0.00167818
-0.000873085
-0.00152717
-0.000851805
-0.00138014
-0.000826182
-0.00123778
-0.000796273
-0.00110078
-0.000762176
-0.000969783
-0.000724029
-0.000845403
-0.000682017
-0.00072822
-0.000636383
-0.000618766
-0.000587432
-0.000517514
-0.000535543
-0.000424874
-0.000481181
-0.000341181
-0.00042491
-0.000266689
-0.000367413
-0.000201559
-0.000309505
-0.000145853
-0.000252163
-9.95326e-05
-0.000196549
-6.24484e-05
-0.000144041
-3.4347e-05
-9.62704e-05
-1.48748e-05
-5.51504e-05
-3.59236e-06
-2.2938e-05
-2.53334e-06
-4.82984e-06
1.10846e-05
-1.95191e-05
4.47256e-05
-4.42348e-05
8.81647e-05
-7.90955e-05
0.000140422
-0.000124181
0.000199329
-0.000179514
0.000262785
-0.00024505
0.000329005
-0.000320666
0.000396485
-0.000406159
0.000463966
-0.000501248
0.000530399
-0.000605577
0.000594916
-0.00071872
0.000656802
-0.000840193
0.000715476
-0.000969454
0.000770469
-0.00110592
0.00082141
-0.00124895
0.000868008
-0.00139791
0.000910044
-0.0015521
0.000947359
-0.00171083
0.000979844
-0.00187338
0.00100744
-0.00203903
0.00103011
-0.00220706
0.00104787
-0.00237673
0.00106075
-0.00254735
0.0010688
-0.00271819
0.00107211
-0.00288855
0.00107077
-0.00305776
0.00106488
-0.00322514
0.00105458
-0.00339004
0.00103999
-0.00355184
0.00102125
-0.00370991
0.000998522
-0.00386367
0.000971955
-0.00401257
0.000941712
-0.00415605
0.000907961
-0.00429361
0.000870874
-0.00442475
0.000830625
-0.00454903
0.000787393
-0.00466599
0.000741359
-0.00477525
0.000692707
-0.00487642
0.000641622
-0.00496916
0.000588293
-0.00505315
0.000532911
-0.00512809
0.000475667
-0.00519374
0.000416756
-0.00524987
0.000356376
-0.00529627
0.000294724
-0.00533279
0.000232002
-0.00535929
0.000168412
-0.00537567
0.000104161
-0.00538186
3.94569e-05
-0.00537782
-2.54912e-05
-0.00536356
-9.04704e-05
-0.00533909
-0.000155266
-0.00530449
-0.000219661
-0.00525985
-0.000283436
-0.0052053
-0.00034637
-0.00514101
-0.000408239
-0.00506718
-0.000468821
-0.00498405
-0.000527888
-0.00489188
-0.000585215
-0.00479097
-0.000640575
-0.00468167
-0.00069374
-0.00456436
-0.000744486
-0.00443943
-0.000792588
-0.00430733
-0.000837823
-0.00416852
-0.000879974
-0.00402353
-0.000918823
-0.00387288
-0.000954163
-0.00371715
-0.000985787
-0.00355692
-0.0010135
-0.00339283
-0.00103711
-0.00322552
-0.00105645
-0.00305566
-0.00107134
-0.00288396
-0.00108164
-0.00271113
-0.0010872
-0.00253789
-0.0010879
-0.00236499
-0.00108364
-0.00219318
-0.00107434
-0.00202323
-0.00105995
-0.0018559
-0.00104042
-0.00169193
-0.00101577
-0.00153209
-0.000986022
-0.00137711
-0.000951253
-0.00122771
-0.000911579
-0.00108458
-0.000867162
-0.000948374
-0.000818221
-0.000819719
-0.000765038
-0.000699186
-0.000707965
-0.000587292
-0.000647436
-0.000484494
-0.000583979
-0.000391175
-0.000518229
-0.000307642
-0.000450945
-0.000234119
-0.000383028
-0.000170741
-0.000315542
-0.000117549
-0.000249741
-7.44967e-05
-0.000187094
-4.14501e-05
-0.000129317
-1.82004e-05
-7.84e-05
-4.48215e-06
-3.66562e-05
-7.01544e-06
-5.70093e-06
1.67856e-05
-2.28112e-05
6.18357e-05
-5.13177e-05
0.000116671
-9.1174e-05
0.000180278
-0.000142311
0.000250466
-0.000204623
0.000325097
-0.000277953
0.000402335
-0.000362081
0.000480613
-0.00045672
0.000558605
-0.000561516
0.000635196
-0.000676051
0.00070945
-0.000799843
0.000780593
-0.000932353
0.000847986
-0.001073
0.000911111
-0.00122114
0.000969553
-0.00137611
0.00102298
-0.00153722
0.00107115
-0.00170375
0.00111388
-0.00187494
0.00115104
-0.00205005
0.00118255
-0.00222832
0.00120838
-0.00240898
0.00122853
-0.00259128
0.00124304
-0.00277446
0.00125197
-0.00295776
0.00125541
-0.00314045
0.00125346
-0.00332181
0.00124624
-0.00350114
0.0012339
-0.00367774
0.00121659
-0.00385095
0.00119446
-0.00402013
0.0011677
-0.00418465
0.00113648
-0.00434392
0.00110098
-0.00449737
0.00106141
-0.00464446
0.00101796
-0.00478466
0.000970831
-0.0049175
0.000920233
-0.00504252
0.000866374
-0.00515928
0.000809468
-0.00526739
0.000749733
-0.00536648
0.000687385
-0.00545622
0.000622648
-0.00553629
0.000555744
-0.00560644
0.000486901
-0.00566641
0.000416347
-0.005716
0.000344314
-0.00575504
0.000271037
-0.00578337
0.00019675
-0.00580091
0.000121695
-0.00580756
4.61126e-05
-0.0058033
-2.97521e-05
-0.00578812
-0.000105652
-0.00576205
-0.000181336
-0.00572516
-0.000256554
-0.00567755
-0.000331048
-0.00561935
-0.000404562
-0.00555076
-0.000476837
-0.00547196
-0.000547612
-0.00538323
-0.000616625
-0.00528483
-0.000683613
-0.00517709
-0.000748311
-0.00506038
-0.000810457
-0.00493507
-0.00086979
-0.00480161
-0.000926048
-0.00466046
-0.000978974
-0.00451212
-0.00102831
-0.00435712
-0.00107382
-0.00419604
-0.00111525
-0.00402946
-0.00115236
-0.00385803
-0.00118494
-0.00368239
-0.00121275
-0.00350324
-0.0012356
-0.00332129
-0.0012533
-0.00313727
-0.00126566
-0.00295193
-0.00127254
-0.00276604
-0.00127378
-0.0025804
-0.00126929
-0.00239579
-0.00125895
-0.00221301
-0.00124272
-0.00203288
-0.00122056
-0.00185618
-0.00119246
-0.00168372
-0.00115849
-0.00151627
-0.00111871
-0.00135459
-0.00107326
-0.00119941
-0.00102234
-0.00105144
-0.000966188
-0.000911351
-0.000905132
-0.000779747
-0.000839568
-0.0006572
-0.000769984
-0.000544213
-0.000696966
-0.000441227
-0.000621216
-0.000348608
-0.000543564
-0.000266648
-0.000464988
-0.000195559
-0.000386632
-0.000135472
-0.000309827