/*--------------------------------*- C++ -*----------------------------------*\
  =========                 |
  \\      /  F ield         | OpenFOAM: The Open Source CFD Toolbox
   \\    /   O peration     | Website:  https://openfoam.org
    \\  /    A nd           | Version:  11
     \\/     M anipulation  |
\*---------------------------------------------------------------------------*/
FoamFile
{
    format      ascii;
    class       volVectorField;
    location    "5.2";
    object      U;
}
// * * * * * * * * * * * * * * * * * * * * * * * * * * * * * * * * * * * * * //

dimensions      [0 1 -1 0 0 0 0];

internalField   nonuniform List<vector> 
10100
(
(2.55084e-06 -3.24335e-06 0)
(1.45178e-05 -9.15742e-06 0)
(3.507e-05 -1.11418e-05 0)
(5.54505e-05 -9.69943e-06 0)
(6.95144e-05 -6.71924e-06 0)
(7.45734e-05 -3.20328e-06 0)
(6.96274e-05 4.18004e-07 0)
(5.4356e-05 3.98049e-06 0)
(2.88204e-05 7.3984e-06 0)
(-6.65635e-06 1.05931e-05 0)
(-5.16155e-05 1.35905e-05 0)
(-0.000105536 1.6342e-05 0)
(-0.000167809 1.88541e-05 0)
(-0.000237776 2.11573e-05 0)
(-0.000314825 2.32341e-05 0)
(-0.000398292 2.51017e-05 0)
(-0.000487484 2.6766e-05 0)
(-0.000581775 2.82076e-05 0)
(-0.000680492 2.94296e-05 0)
(-0.000782975 3.04572e-05 0)
(-0.000888615 3.12967e-05 0)
(-0.000996791 3.19485e-05 0)
(-0.0011069 3.24207e-05 0)
(-0.00121836 3.27174e-05 0)
(-0.00133061 3.28424e-05 0)
(-0.00144311 3.28093e-05 0)
(-0.00155534 3.26317e-05 0)
(-0.00166679 3.23187e-05 0)
(-0.00177698 3.18737e-05 0)
(-0.00188545 3.12928e-05 0)
(-0.00199177 3.05826e-05 0)
(-0.00209551 2.97566e-05 0)
(-0.00219627 2.88236e-05 0)
(-0.00229369 2.77886e-05 0)
(-0.0023874 2.66556e-05 0)
(-0.00247705 2.543e-05 0)
(-0.00256234 2.41175e-05 0)
(-0.00264296 2.27199e-05 0)
(-0.00271862 2.12398e-05 0)
(-0.00278905 1.96849e-05 0)
(-0.00285401 1.80639e-05 0)
(-0.00291327 1.63826e-05 0)
(-0.00296662 1.46438e-05 0)
(-0.00301388 1.28525e-05 0)
(-0.00305488 1.10169e-05 0)
(-0.00308948 9.14168e-06 0)
(-0.00311753 7.22954e-06 0)
(-0.00313894 5.28663e-06 0)
(-0.00315361 3.32184e-06 0)
(-0.00316149 1.34485e-06 0)
(-0.00316254 -6.37147e-07 0)
(-0.00315675 -2.62175e-06 0)
(-0.00314411 -4.60608e-06 0)
(-0.00312465 -6.58162e-06 0)
(-0.00309842 -8.5378e-06 0)
(-0.00306549 -1.04673e-05 0)
(-0.00302597 -1.2366e-05 0)
(-0.00297996 -1.42297e-05 0)
(-0.00292762 -1.60522e-05 0)
(-0.00286911 -1.78244e-05 0)
(-0.00280461 -1.95354e-05 0)
(-0.00273436 -2.11759e-05 0)
(-0.0026586 -2.27412e-05 0)
(-0.00257759 -2.42279e-05 0)
(-0.00249163 -2.56296e-05 0)
(-0.00240104 -2.69361e-05 0)
(-0.00230616 -2.81376e-05 0)
(-0.00220735 -2.92258e-05 0)
(-0.00210503 -3.01939e-05 0)
(-0.0019996 -3.10367e-05 0)
(-0.00189151 -3.17495e-05 0)
(-0.00178121 -3.2327e-05 0)
(-0.00166919 -3.27619e-05 0)
(-0.00155596 -3.30462e-05 0)
(-0.00144203 -3.31725e-05 0)
(-0.00132797 -3.31348e-05 0)
(-0.00121432 -3.29281e-05 0)
(-0.00110167 -3.2547e-05 0)
(-0.000990629 -3.19863e-05 0)
(-0.000881795 -3.12406e-05 0)
(-0.000775799 -3.03048e-05 0)
(-0.000673277 -2.91729e-05 0)
(-0.00057488 -2.78398e-05 0)
(-0.000481259 -2.63022e-05 0)
(-0.000393068 -2.45593e-05 0)
(-0.00031095 -2.26134e-05 0)
(-0.000235532 -2.04691e-05 0)
(-0.000167419 -1.81333e-05 0)
(-0.000107186 -1.56131e-05 0)
(-5.53647e-05 -1.29161e-05 0)
(-1.24341e-05 -1.00551e-05 0)
(2.12109e-05 -7.05219e-06 0)
(4.52936e-05 -3.94414e-06 0)
(5.97156e-05 -7.9478e-07 0)
(6.46496e-05 2.28661e-06 0)
(6.06849e-05 5.10965e-06 0)
(4.90294e-05 7.34483e-06 0)
(3.1946e-05 8.40577e-06 0)
(1.4003e-05 7.27435e-06 0)
(2.83839e-06 2.84166e-06 0)
(5.19091e-06 -1.3417e-05 0)
(2.58894e-05 -3.15168e-05 0)
(5.61919e-05 -3.6582e-05 0)
(8.26683e-05 -2.93897e-05 0)
(9.48254e-05 -1.5013e-05 0)
(8.64464e-05 2.81676e-06 0)
(5.42718e-05 2.22303e-05 0)
(-3.29654e-06 4.20508e-05 0)
(-8.67777e-05 6.16128e-05 0)
(-0.000195904 8.05482e-05 0)
(-0.00032992 9.85481e-05 0)
(-0.000487707 0.000115491 0)
(-0.000667879 0.000131256 0)
(-0.000868991 0.000145786 0)
(-0.00108938 0.000159047 0)
(-0.00132734 0.000171032 0)
(-0.00158119 0.000181729 0)
(-0.00184915 0.000191128 0)
(-0.00212945 0.000199252 0)
(-0.00242038 0.000206115 0)
(-0.00272019 0.000211751 0)
(-0.00302719 0.000216192 0)
(-0.00333974 0.000219474 0)
(-0.0036562 0.000221624 0)
(-0.003975 0.000222674 0)
(-0.00429462 0.000222664 0)
(-0.00461357 0.000221642 0)
(-0.00493044 0.00021965 0)
(-0.00524385 0.000216726 0)
(-0.00555249 0.000212907 0)
(-0.00585508 0.000208231 0)
(-0.00615043 0.000202744 0)
(-0.00643738 0.000196485 0)
(-0.00671484 0.000189492 0)
(-0.00698177 0.000181805 0)
(-0.00723719 0.000173461 0)
(-0.00748017 0.000164498 0)
(-0.00770982 0.000154949 0)
(-0.00792534 0.000144849 0)
(-0.00812595 0.000134238 0)
(-0.00831095 0.000123159 0)
(-0.00847969 0.000111648 0)
(-0.00863157 9.97428e-05 0)
(-0.00876606 8.74875e-05 0)
(-0.00888268 7.49231e-05 0)
(-0.008981 6.20847e-05 0)
(-0.00906067 4.90077e-05 0)
(-0.00912139 3.57371e-05 0)
(-0.00916291 2.2324e-05 0)
(-0.00918507 8.81604e-06 0)
(-0.00918774 -4.74509e-06 0)
(-0.00917088 -1.83216e-05 0)
(-0.0091345 -3.1873e-05 0)
(-0.00907869 -4.53516e-05 0)
(-0.00900358 -5.87063e-05 0)
(-0.00890939 -7.18882e-05 0)
(-0.00879639 -8.48534e-05 0)
(-0.00866494 -9.75599e-05 0)
(-0.00851545 -0.000109962 0)
(-0.00834839 -0.000122007 0)
(-0.00816434 -0.000133639 0)
(-0.00796391 -0.000144807 0)
(-0.00774781 -0.000155463 0)
(-0.00751681 -0.000165564 0)
(-0.00727175 -0.000175061 0)
(-0.00701354 -0.0001839 0)
(-0.00674316 -0.00019203 0)
(-0.00646167 -0.000199401 0)
(-0.00617018 -0.000205963 0)
(-0.0058699 -0.000211674 0)
(-0.00556207 -0.000216491 0)
(-0.005248 -0.000220373 0)
(-0.00492906 -0.000223278 0)
(-0.00460671 -0.00022516 0)
(-0.00428242 -0.000225979 0)
(-0.00395774 -0.000225696 0)
(-0.00363426 -0.000224277 0)
(-0.00331362 -0.000221692 0)
(-0.00299749 -0.000217913 0)
(-0.00268757 -0.000212913 0)
(-0.00238562 -0.000206667 0)
(-0.00209338 -0.000199156 0)
(-0.00181262 -0.000190365 0)
(-0.0015451 -0.000180295 0)
(-0.00129256 -0.000168955 0)
(-0.00105673 -0.000156373 0)
(-0.000839248 -0.000142589 0)
(-0.000641709 -0.000127659 0)
(-0.000465577 -0.00011166 0)
(-0.000312165 -9.46947e-05 0)
(-0.000182585 -7.69084e-05 0)
(-7.7668e-05 -5.85113e-05 0)
(2.13527e-06 -3.9809e-05 0)
(5.69042e-05 -2.12509e-05 0)
(8.74598e-05 -3.50812e-06 0)
(9.56573e-05 1.24078e-05 0)
(8.47163e-05 2.49646e-05 0)
(5.97716e-05 3.18383e-05 0)
(2.95234e-05 2.95517e-05 0)
(7.25185e-06 1.39875e-05 0)
(5.14726e-06 -2.74918e-05 0)
(2.37388e-05 -5.79069e-05 0)
(4.6407e-05 -6.27852e-05 0)
(5.90895e-05 -4.29605e-05 0)
(4.98768e-05 -7.14472e-06 0)
(1.10292e-05 3.79411e-05 0)
(-6.21122e-05 8.77829e-05 0)
(-0.000172367 0.00013964 0)
(-0.000320778 0.000191622 0)
(-0.000507425 0.000242459 0)
(-0.000731509 0.000291359 0)
(-0.000991598 0.000337741 0)
(-0.00128593 0.000381204 0)
(-0.00161234 0.000421495 0)
(-0.00196848 0.000458467 0)
(-0.0023519 0.00049198 0)
(-0.00275999 0.000521995 0)
(-0.0031901 0.000548498 0)
(-0.00363956 0.000571477 0)
(-0.00410569 0.000590983 0)
(-0.00458581 0.000607062 0)
(-0.00507731 0.000619778 0)
(-0.00557758 0.000629222 0)
(-0.00608408 0.000635471 0)
(-0.00659432 0.000638612 0)
(-0.00710589 0.000638743 0)
(-0.00761644 0.000635971 0)
(-0.0081237 0.000630403 0)
(-0.00862549 0.000622145 0)
(-0.00911969 0.000611309 0)
(-0.00960428 0.000598009 0)
(-0.0100773 0.000582355 0)
(-0.010537 0.000564459 0)
(-0.0109814 0.00054443 0)
(-0.011409 0.000522379 0)
(-0.0118182 0.000498418 0)
(-0.0122075 0.000472654 0)
(-0.0125754 0.000445195 0)
(-0.0129206 0.000416154 0)
(-0.0132419 0.00038564 0)
(-0.0135382 0.000353767 0)
(-0.0138084 0.000320649 0)
(-0.0140516 0.0002864 0)
(-0.0142669 0.000251139 0)
(-0.0144535 0.000214982 0)
(-0.0146108 0.000178042 0)
(-0.0147381 0.000140435 0)
(-0.0148351 0.000102283 0)
(-0.0149013 6.37184e-05 0)
(-0.0149365 2.4871e-05 0)
(-0.0149404 -1.41342e-05 0)
(-0.0149131 -5.3178e-05 0)
(-0.0148544 -9.21366e-05 0)
(-0.0147646 -0.000130875 0)
(-0.0146439 -0.000169254 0)
(-0.0144926 -0.00020714 0)
(-0.0143112 -0.0002444 0)
(-0.0141003 -0.000280901 0)
(-0.0138604 -0.000316508 0)
(-0.0135925 -0.000351074 0)
(-0.0132973 -0.000384454 0)
(-0.012976 -0.000416503 0)
(-0.0126296 -0.000447081 0)
(-0.0122593 -0.000476051 0)
(-0.0118666 -0.000503272 0)
(-0.0114529 -0.000528599 0)
(-0.0110197 -0.000551889 0)
(-0.0105687 -0.000573003 0)
(-0.0101018 -0.000591804 0)
(-0.00962083 -0.000608162 0)
(-0.00912777 -0.000621955 0)
(-0.00862474 -0.000633059 0)
(-0.00811394 -0.000641354 0)
(-0.00759765 -0.000646724 0)
(-0.00707825 -0.000649057 0)
(-0.00655818 -0.000648251 0)
(-0.00603996 -0.000644215 0)
(-0.00552618 -0.000636866 0)
(-0.00501948 -0.000626132 0)
(-0.00452255 -0.000611951 0)
(-0.0040381 -0.000594272 0)
(-0.00356888 -0.000573062 0)
(-0.00311761 -0.000548309 0)
(-0.002687 -0.000520029 0)
(-0.00227973 -0.000488273 0)
(-0.0018984 -0.000453131 0)
(-0.00154551 -0.000414738 0)
(-0.00122344 -0.000373282 0)
(-0.000934321 -0.000329019 0)
(-0.000680061 -0.000282294 0)
(-0.000462197 -0.000233582 0)
(-0.000281808 -0.000183533 0)
(-0.000139364 -0.000133049 0)
(-3.45309e-05 -8.33874e-05 0)
(3.4086e-05 -3.63068e-05 0)
(6.92749e-05 5.71621e-06 0)
(7.55357e-05 3.92123e-05 0)
(5.95449e-05 5.94009e-05 0)
(3.18727e-05 5.98061e-05 0)
(8.386e-06 3.18995e-05 0)
(4.19395e-06 -3.91772e-05 0)
(1.57506e-05 -7.55906e-05 0)
(2.22686e-05 -7.27941e-05 0)
(1.01392e-05 -3.27762e-05 0)
(-3.20856e-05 3.30585e-05 0)
(-0.000112599 0.000114808 0)
(-0.000236757 0.000205629 0)
(-0.000407714 0.000300691 0)
(-0.000627174 0.000396672 0)
(-0.000895289 0.000491196 0)
(-0.00121127 0.000582632 0)
(-0.0015736 0.000669778 0)
(-0.00198009 0.000751819 0)
(-0.0024282 0.000828177 0)
(-0.00291501 0.000898426 0)
(-0.00343739 0.000962312 0)
(-0.00399207 0.00101967 0)
(-0.00457564 0.00107042 0)
(-0.00518464 0.00111454 0)
(-0.0058156 0.00115206 0)
(-0.00646502 0.00118305 0)
(-0.00712943 0.00120761 0)
(-0.00780541 0.00122588 0)
(-0.0084896 0.00123799 0)
(-0.00917871 0.00124411 0)
(-0.0098695 0.00124442 0)
(-0.0105588 0.0012391 0)
(-0.0112437 0.00122834 0)
(-0.0119211 0.00121235 0)
(-0.0125883 0.00119133 0)
(-0.0132425 0.0011655 0)
(-0.0138811 0.00113507 0)
(-0.0145016 0.00110025 0)
(-0.0151017 0.00106125 0)
(-0.015679 0.00101829 0)
(-0.0162313 0.000971587 0)
(-0.0167568 0.000921351 0)
(-0.0172534 0.0008678 0)
(-0.0177194 0.000811152 0)
(-0.0181531 0.000751631 0)
(-0.018553 0.000689455 0)
(-0.0189176 0.000624844 0)
(-0.0192457 0.000558026 0)
(-0.0195362 0.000489233 0)
(-0.0197879 0.000418692 0)
(-0.0199999 0.00034663 0)
(-0.0201716 0.000273276 0)
(-0.0203023 0.000198873 0)
(-0.0203913 0.000123668 0)
(-0.0204385 4.79067e-05 0)
(-0.0204435 -2.81681e-05 0)
(-0.0204062 -0.00010431 0)
(-0.0203266 -0.000180268 0)
(-0.0202051 -0.000255786 0)
(-0.0200418 -0.000330601 0)
(-0.0198372 -0.00040445 0)
(-0.019592 -0.000477072 0)
(-0.019307 -0.0005482 0)
(-0.0189829 -0.000617564 0)
(-0.018621 -0.000684888 0)
(-0.0182224 -0.000749895 0)
(-0.0177885 -0.000812307 0)
(-0.0173208 -0.00087185 0)
(-0.016821 -0.000928249 0)
(-0.0162908 -0.000981228 0)
(-0.0157324 -0.00103051 0)
(-0.0151477 -0.00107583 0)
(-0.0145391 -0.00111692 0)
(-0.013909 -0.00115351 0)
(-0.0132598 -0.00118535 0)
(-0.0125944 -0.0012122 0)
(-0.0119156 -0.00123382 0)
(-0.0112262 -0.00124998 0)
(-0.0105293 -0.00126047 0)
(-0.00982813 -0.00126507 0)
(-0.00912593 -0.0012636 0)
(-0.00842607 -0.0012559 0)
(-0.00773197 -0.0012418 0)
(-0.00704715 -0.00122118 0)
(-0.00637516 -0.00119395 0)
(-0.00571958 -0.00116002 0)
(-0.00508401 -0.00111935 0)
(-0.00447203 -0.00107197 0)
(-0.00388717 -0.00101791 0)
(-0.00333289 -0.000957313 0)
(-0.00281255 -0.000890371 0)
(-0.00232936 -0.000817374 0)
(-0.0018863 -0.00073872 0)
(-0.00148608 -0.000654947 0)
(-0.00113102 -0.000566772 0)
(-0.000822988 -0.000475154 0)
(-0.000563222 -0.000381374 0)
(-0.000352195 -0.00028715 0)
(-0.000189392 -0.000194791 0)
(-7.30497e-05 -0.000107408 0)
(1.50505e-07 -2.91879e-05 0)
(3.53689e-05 3.42519e-05 0)
(4.00145e-05 7.55197e-05 0)
(2.52589e-05 8.49507e-05 0)
(7.36726e-06 4.90202e-05 0)
(2.51762e-06 -4.56368e-05 0)
(3.9771e-06 -7.7996e-05 0)
(-1.1601e-05 -5.79646e-05 0)
(-5.57921e-05 1.11788e-05 0)
(-0.000139062 0.0001155 0)
(-0.000269292 0.000242543 0)
(-0.00045172 0.000383133 0)
(-0.00068986 0.000530535 0)
(-0.000985272 0.000679815 0)
(-0.0013383 0.000827439 0)
(-0.00174811 0.000970721 0)
(-0.00221297 0.00110778 0)
(-0.00273049 0.00123719 0)
(-0.00329773 0.00135795 0)
(-0.00391133 0.00146934 0)
(-0.00456765 0.00157085 0)
(-0.00526279 0.00166217 0)
(-0.00599275 0.00174309 0)
(-0.00675338 0.00181354 0)
(-0.00754051 0.00187353 0)
(-0.00834993 0.00192313 0)
(-0.00917745 0.00196247 0)
(-0.0100189 0.00199172 0)
(-0.0108702 0.0020111 0)
(-0.0117273 0.00202084 0)
(-0.0125862 0.00202121 0)
(-0.0134432 0.00201251 0)
(-0.0142945 0.00199501 0)
(-0.0151364 0.00196905 0)
(-0.0159655 0.00193494 0)
(-0.0167784 0.00189301 0)
(-0.0175718 0.00184361 0)
(-0.0183428 0.00178706 0)
(-0.0190882 0.00172373 0)
(-0.0198054 0.00165395 0)
(-0.0204915 0.00157807 0)
(-0.0211442 0.00149645 0)
(-0.0217611 0.00140943 0)
(-0.0223398 0.00131737 0)
(-0.0228785 0.00122064 0)
(-0.023375 0.00111959 0)
(-0.0238278 0.00101458 0)
(-0.0242352 0.000905996 0)
(-0.0245958 0.000794194 0)
(-0.0249082 0.000679552 0)
(-0.0251713 0.000562444 0)
(-0.0253843 0.000443253 0)
(-0.0255463 0.000322367 0)
(-0.0256566 0.000200181 0)
(-0.0257149 7.70924e-05 0)
(-0.0257207 -4.64995e-05 0)
(-0.0256741 -0.000170191 0)
(-0.025575 -0.000293569 0)
(-0.0254237 -0.000416218 0)
(-0.0252206 -0.000537716 0)
(-0.0249662 -0.000657637 0)
(-0.0246614 -0.000775551 0)
(-0.0243072 -0.000891024 0)
(-0.0239045 -0.00100362 0)
(-0.0234549 -0.00111288 0)
(-0.0229597 -0.00121838 0)
(-0.0224207 -0.00131966 0)
(-0.0218398 -0.00141627 0)
(-0.021219 -0.00150777 0)
(-0.0205606 -0.00159372 0)
(-0.0198671 -0.00167367 0)
(-0.019141 -0.00174719 0)
(-0.0183852 -0.00181385 0)
(-0.0176027 -0.00187322 0)
(-0.0167966 -0.00192491 0)
(-0.0159702 -0.00196852 0)
(-0.015127 -0.00200367 0)
(-0.0142707 -0.00202999 0)
(-0.0134049 -0.00204715 0)
(-0.0125336 -0.00205482 0)
(-0.0116608 -0.00205271 0)
(-0.0107906 -0.00204056 0)
(-0.00992726 -0.00201813 0)
(-0.00907497 -0.00198526 0)
(-0.00823809 -0.00194179 0)
(-0.00742098 -0.00188763 0)
(-0.00662798 -0.00182275 0)
(-0.00586342 -0.0017472 0)
(-0.00513154 -0.0016611 0)
(-0.0044365 -0.00156469 0)
(-0.00378228 -0.00145833 0)
(-0.00317269 -0.00134252 0)
(-0.00261123 -0.00121795 0)
(-0.00210104 -0.00108552 0)
(-0.00164484 -0.000946417 0)
(-0.00124472 -0.000802218 0)
(-0.000902095 -0.000654959 0)
(-0.000617482 -0.000507308 0)
(-0.000390305 -0.000362754 0)
(-0.000218664 -0.000225856 0)
(-9.90609e-05 -0.000102571 0)
(-2.61413e-05 -6.48293e-07 0)
(7.66936e-06 6.99782e-05 0)
(1.31783e-05 9.65413e-05 0)
(5.222e-06 6.09051e-05 0)
(3.11374e-07 -4.53042e-05 0)
(-1.0616e-05 -6.15743e-05 0)
(-5.22669e-05 -1.3309e-05 0)
(-0.000133721 9.48011e-05 0)
(-0.00026366 0.000246593 0)
(-0.000449315 0.000427525 0)
(-0.000695627 0.000626246 0)
(-0.00100566 0.000834279 0)
(-0.00138101 0.0010452 0)
(-0.00182183 0.00125412 0)
(-0.00232714 0.00145739 0)
(-0.00289505 0.00165226 0)
(-0.00352288 0.00183666 0)
(-0.00420736 0.00200908 0)
(-0.00494477 0.0021684 0)
(-0.00573099 0.00231384 0)
(-0.00656166 0.00244484 0)
(-0.00743219 0.00256108 0)
(-0.00833787 0.00266237 0)
(-0.00927392 0.00274867 0)
(-0.0102355 0.00282004 0)
(-0.0112178 0.00287665 0)
(-0.0122159 0.00291868 0)
(-0.0132252 0.00294643 0)
(-0.0142409 0.00296022 0)
(-0.0152584 0.0029604 0)
(-0.0162733 0.00294738 0)
(-0.0172812 0.00292157 0)
(-0.0182778 0.00288341 0)
(-0.019259 0.00283336 0)
(-0.020221 0.0027719 0)
(-0.0211598 0.00269949 0)
(-0.0220719 0.00261665 0)
(-0.0229538 0.00252387 0)
(-0.0238021 0.00242164 0)
(-0.0246137 0.00231048 0)
(-0.0253856 0.00219091 0)
(-0.0261151 0.00206344 0)
(-0.0267996 0.00192858 0)
(-0.0274365 0.00178688 0)
(-0.0280236 0.00163885 0)
(-0.028559 0.00148504 0)
(-0.0290406 0.00132598 0)
(-0.0294667 0.00116221 0)
(-0.029836 0.000994295 0)
(-0.0301469 0.000822774 0)
(-0.0303985 0.000648214 0)
(-0.0305898 0.000471183 0)
(-0.03072 0.000292257 0)
(-0.0307885 0.000112018 0)
(-0.0307952 -6.89472e-05 0)
(-0.0307398 -0.000250045 0)
(-0.0306223 -0.000430671 0)
(-0.0304431 -0.000610215 0)
(-0.0302027 -0.000788058 0)
(-0.0299018 -0.00096358 0)
(-0.0295412 -0.00113615 0)
(-0.0291221 -0.00130513 0)
(-0.0286459 -0.00146988 0)
(-0.0281141 -0.00162975 0)
(-0.0275285 -0.00178409 0)
(-0.0268911 -0.00193226 0)
(-0.0262042 -0.00207359 0)
(-0.0254702 -0.00220744 0)
(-0.0246917 -0.00233317 0)
(-0.0238717 -0.00245013 0)
(-0.0230131 -0.0025577 0)
(-0.0221195 -0.00265525 0)
(-0.0211941 -0.00274217 0)
(-0.0202408 -0.00281788 0)
(-0.0192634 -0.00288181 0)
(-0.018266 -0.00293341 0)
(-0.0172529 -0.00297216 0)
(-0.0162283 -0.00299758 0)
(-0.015197 -0.00300921 0)
(-0.0141636 -0.00300664 0)
(-0.0131328 -0.00298951 0)
(-0.0121095 -0.00295752 0)
(-0.0110988 -0.0029104 0)
(-0.0101056 -0.00284799 0)
(-0.00913505 -0.00277019 0)
(-0.00819205 -0.00267698 0)
(-0.0072816 -0.00256847 0)
(-0.00640861 -0.00244489 0)
(-0.0055778 -0.00230662 0)
(-0.00479373 -0.00215423 0)
(-0.0040607 -0.00198848 0)
(-0.00338268 -0.00181042 0)
(-0.0027632 -0.00162138 0)
(-0.00220528 -0.00142313 0)
(-0.00171129 -0.00121792 0)
(-0.00128283 -0.00100863 0)
(-0.000920533 -0.000798953 0)
(-0.000623912 -0.000593613 0)
(-0.000391141 -0.000398635 0)
(-0.000218838 -0.000221707 0)
(-0.000101827 -7.26075e-05 0)
(-3.28075e-05 3.63732e-05 0)
(-2.07144e-06 8.96736e-05 0)
(2.53633e-06 6.54075e-05 0)
(-2.22114e-06 -3.70085e-05 0)
(-2.6889e-05 -2.36151e-05 0)
(-9.74209e-05 6.49388e-05 0)
(-0.000219532 0.000222435 0)
(-0.000400046 0.000431167 0)
(-0.00064524 0.000674478 0)
(-0.000959323 0.000939462 0)
(-0.00134493 0.00121591 0)
(-0.0018032 0.00149596 0)
(-0.00233408 0.00177352 0)
(-0.00293632 0.0020439 0)
(-0.00360775 0.00230346 0)
(-0.00434543 0.00254946 0)
(-0.00514578 0.00277978 0)
(-0.00600468 0.00299289 0)
(-0.00691763 0.00318765 0)
(-0.00787981 0.00336326 0)
(-0.00888616 0.0035192 0)
(-0.00993146 0.00365516 0)
(-0.0110104 0.00377103 0)
(-0.0121175 0.00386684 0)
(-0.0132474 0.00394274 0)
(-0.0143948 0.00399898 0)
(-0.0155542 0.00403591 0)
(-0.0167205 0.00405393 0)
(-0.0178883 0.00405349 0)
(-0.0190527 0.00403512 0)
(-0.0202086 0.00399935 0)
(-0.0213514 0.00394678 0)
(-0.0224763 0.003878 0)
(-0.0235789 0.00379366 0)
(-0.0246548 0.00369439 0)
(-0.0256999 0.00358087 0)
(-0.0267102 0.00345376 0)
(-0.027682 0.00331374 0)
(-0.0286117 0.00316152 0)
(-0.0294959 0.00299778 0)
(-0.0303313 0.00282325 0)
(-0.0311151 0.00263862 0)
(-0.0318444 0.00244462 0)
(-0.0325167 0.00224198 0)
(-0.0331296 0.00203142 0)
(-0.0336809 0.00181369 0)
(-0.0341687 0.00158953 0)
(-0.0345913 0.0013597 0)
(-0.0349471 0.00112495 0)
(-0.035235 0.000886055 0)
(-0.0354538 0.000643792 0)
(-0.0356026 0.00039895 0)
(-0.0356809 0.000152323 0)
(-0.0356883 -9.52852e-05 0)
(-0.0356246 -0.000343057 0)
(-0.0354899 -0.000590165 0)
(-0.0352846 -0.000835777 0)
(-0.0350091 -0.00107905 0)
(-0.0346644 -0.00131913 0)
(-0.0342515 -0.00155516 0)
(-0.0337715 -0.00178626 0)
(-0.0332262 -0.00201156 0)
(-0.0326173 -0.00223018 0)
(-0.0319468 -0.00244124 0)
(-0.0312171 -0.00264384 0)
(-0.0304306 -0.00283711 0)
(-0.0295902 -0.00302015 0)
(-0.0286988 -0.00319209 0)
(-0.0277599 -0.00335207 0)
(-0.0267768 -0.00349923 0)
(-0.0257534 -0.00363272 0)
(-0.0246936 -0.00375174 0)
(-0.0236017 -0.00385547 0)
(-0.022482 -0.00394316 0)
(-0.0213391 -0.00401408 0)
(-0.020178 -0.00406752 0)
(-0.0190035 -0.00410285 0)
(-0.0178208 -0.00411946 0)
(-0.0166352 -0.00411681 0)
(-0.0154521 -0.00409443 0)
(-0.014277 -0.00405193 0)
(-0.0131155 -0.003989 0)
(-0.0119732 -0.00390542 0)
(-0.0108559 -0.0038011 0)
(-0.00976898 -0.00367608 0)
(-0.00871814 -0.00353052 0)
(-0.0077088 -0.0033648 0)
(-0.00674621 -0.00317947 0)
(-0.00583543 -0.00297534 0)
(-0.00498122 -0.0027535 0)
(-0.00418794 -0.00251539 0)
(-0.0034595 -0.00226286 0)
(-0.00279926 -0.00199827 0)
(-0.00220984 -0.00172462 0)
(-0.00169309 -0.00144569 0)
(-0.00124986 -0.00116621 0)
(-0.00087989 -0.000892134 0)
(-0.000581623 -0.000630924 0)
(-0.000352041 -0.000391895 0)
(-0.000186435 -0.000186679 0)
(-7.81291e-05 -2.9649e-05 0)
(-1.9022e-05 6.12812e-05 0)
(-3.69125e-07 6.14132e-05 0)
(-4.89027e-06 -2.00663e-05 0)
(-4.41202e-05 3.76393e-05 0)
(-0.000145141 0.000179128 0)
(-0.000310145 0.000397149 0)
(-0.000543799 0.000672339 0)
(-0.000851301 0.000986798 0)
(-0.00123595 0.00132592 0)
(-0.00169968 0.00167818 0)
(-0.00224313 0.00203437 0)
(-0.00286578 0.00238724 0)
(-0.00356603 0.00273107 0)
(-0.00434141 0.00306139 0)
(-0.00518864 0.00337472 0)
(-0.00610378 0.00366836 0)
(-0.00708236 0.0039403 0)
(-0.00811951 0.004189 0)
(-0.00920998 0.0044134 0)
(-0.0103483 0.00461275 0)
(-0.0115287 0.0047866 0)
(-0.0127454 0.00493474 0)
(-0.0139926 0.00505714 0)
(-0.0152643 0.00515397 0)
(-0.0165545 0.00522549 0)
(-0.0178575 0.0052721 0)
(-0.0191673 0.00529429 0)
(-0.0204783 0.00529263 0)
(-0.0217849 0.00526774 0)
(-0.0230817 0.00522033 0)
(-0.0243632 0.00515111 0)
(-0.0256243 0.00506086 0)
(-0.0268602 0.00495038 0)
(-0.0280659 0.00482051 0)
(-0.0292369 0.0046721 0)
(-0.0303687 0.004506 0)
(-0.0314573 0.00432311 0)
(-0.0324985 0.00412432 0)
(-0.0334887 0.00391053 0)
(-0.0344242 0.00368268 0)
(-0.0353017 0.00344168 0)
(-0.0361182 0.00318848 0)
(-0.0368708 0.00292401 0)
(-0.0375569 0.00264923 0)
(-0.038174 0.00236512 0)
(-0.0387199 0.00207263 0)
(-0.0391928 0.00177275 0)
(-0.039591 0.00146648 0)
(-0.0399131 0.00115482 0)
(-0.0401578 0.000838784 0)
(-0.0403242 0.000519398 0)
(-0.0404117 0.000197701 0)
(-0.0404199 -0.000125255 0)
(-0.0403484 -0.000448405 0)
(-0.0401976 -0.000770675 0)
(-0.0399677 -0.00109098 0)
(-0.0396593 -0.00140822 0)
(-0.0392734 -0.00172128 0)
(-0.0388111 -0.00202903 0)
(-0.0382739 -0.00233036 0)
(-0.0376636 -0.00262412 0)
(-0.036982 -0.00290916 0)
(-0.0362315 -0.00318434 0)
(-0.0354147 -0.0034485 0)
(-0.0345344 -0.00370051 0)
(-0.0335936 -0.0039392 0)
(-0.0325958 -0.00416346 0)
(-0.0315446 -0.00437215 0)
(-0.0304439 -0.00456417 0)
(-0.0292979 -0.00473845 0)
(-0.028111 -0.00489391 0)
(-0.0268879 -0.00502954 0)
(-0.0256335 -0.00514435 0)
(-0.0243528 -0.00523741 0)
(-0.0230512 -0.00530784 0)
(-0.0217343 -0.00535479 0)
(-0.0204076 -0.00537753 0)
(-0.0190771 -0.00537536 0)
(-0.0177487 -0.00534772 0)
(-0.0164285 -0.00529411 0)
(-0.0151227 -0.00521416 0)
(-0.0138374 -0.00510764 0)
(-0.0125787 -0.00497447 0)
(-0.011353 -0.00481471 0)
(-0.0101662 -0.00462867 0)
(-0.00902437 -0.00441684 0)
(-0.00793316 -0.00418001 0)
(-0.00689811 -0.00391924 0)
(-0.0059244 -0.003636 0)
(-0.0050168 -0.00333215 0)
(-0.00417958 -0.00301008 0)
(-0.00341642 -0.00267281 0)
(-0.00273028 -0.0023241 0)
(-0.00212329 -0.00196862 0)
(-0.00159665 -0.00161215 0)
(-0.00115043 -0.00126184 0)
(-0.00078352 -0.000926482 0)
(-0.000493459 -0.000616884 0)
(-0.000276241 -0.000346312 0)
(-0.000126062 -0.000130907 0)
(-3.67499e-05 9.54993e-06 0)
(-3.32098e-06 4.83853e-05 0)
(-7.59351e-06 5.81973e-06 0)
(-6.17619e-05 0.000123099 0)
(-0.000194125 0.000330804 0)
(-0.00040328 0.000620636 0)
(-0.000691667 0.000972327 0)
(-0.00106319 0.00136664 0)
(-0.00152025 0.00178784 0)
(-0.00206388 0.00222309 0)
(-0.00269404 0.00266207 0)
(-0.00340969 0.00309645 0)
(-0.00420878 0.00351956 0)
(-0.0050884 0.00392608 0)
(-0.0060449 0.00431184 0)
(-0.007074 0.00467354 0)
(-0.00817085 0.00500867 0)
(-0.00933016 0.0053153 0)
(-0.0105463 0.00559205 0)
(-0.0118134 0.00583794 0)
(-0.0131253 0.00605236 0)
(-0.0144757 0.00623497 0)
(-0.0158583 0.0063857 0)
(-0.0172667 0.00650468 0)
(-0.0186945 0.00659221 0)
(-0.0201354 0.00664874 0)
(-0.021583 0.00667482 0)
(-0.0230311 0.00667114 0)
(-0.0244737 0.00663847 0)
(-0.0259048 0.00657762 0)
(-0.0273187 0.00648949 0)
(-0.0287098 0.00637504 0)
(-0.0300725 0.00623524 0)
(-0.0314017 0.00607112 0)
(-0.0326924 0.00588374 0)
(-0.0339397 0.00567417 0)
(-0.0351391 0.00544352 0)
(-0.0362862 0.00519291 0)
(-0.0373769 0.00492347 0)
(-0.0384073 0.00463635 0)
(-0.0393737 0.00433271 0)
(-0.0402729 0.00401374 0)
(-0.0411016 0.00368062 0)
(-0.0418569 0.00333455 0)
(-0.0425363 0.00297675 0)
(-0.0431373 0.00260843 0)
(-0.0436579 0.00223083 0)
(-0.0440963 0.00184521 0)
(-0.0444507 0.00145282 0)
(-0.0447201 0.00105495 0)
(-0.0449032 0.000652889 0)
(-0.0449995 0.000247936 0)
(-0.0450084 -0.000158581 0)
(-0.0449298 -0.000565324 0)
(-0.0447637 -0.000970942 0)
(-0.0445107 -0.00137407 0)
(-0.0441712 -0.00177332 0)
(-0.0437465 -0.00216731 0)
(-0.0432377 -0.00255461 0)
(-0.0426465 -0.00293382 0)
(-0.0419746 -0.0033035 0)
(-0.0412244 -0.00366222 0)
(-0.0403983 -0.00400855 0)
(-0.0394992 -0.00434103 0)
(-0.03853 -0.00465824 0)
(-0.0374942 -0.00495874 0)
(-0.0363955 -0.00524112 0)
(-0.0352379 -0.00550397 0)
(-0.0340257 -0.00574593 0)
(-0.0327634 -0.00596563 0)
(-0.0314557 -0.00616177 0)
(-0.0301079 -0.00633307 0)
(-0.0287252 -0.00647832 0)
(-0.0273132 -0.00659635 0)
(-0.0258778 -0.00668607 0)
(-0.0244248 -0.00674648 0)
(-0.0229605 -0.00677663 0)
(-0.0214913 -0.00677572 0)
(-0.0200235 -0.00674304 0)
(-0.0185638 -0.00667802 0)
(-0.0171189 -0.00658022 0)
(-0.0156955 -0.0064494 0)
(-0.0143002 -0.00628548 0)
(-0.0129397 -0.00608862 0)
(-0.0116206 -0.0058592 0)
(-0.0103492 -0.00559791 0)
(-0.00913185 -0.00530576 0)
(-0.00797442 -0.00498413 0)
(-0.00688249 -0.00463484 0)
(-0.00586124 -0.00426023 0)
(-0.0049153 -0.00386326 0)
(-0.00404872 -0.00344759 0)
(-0.00326483 -0.00301776 0)
(-0.00256614 -0.00257933 0)
(-0.00195425 -0.00213907 0)
(-0.00142973 -0.00170525 0)
(-0.000992012 -0.0012879 0)
(-0.000639369 -0.000899154 0)
(-0.000368659 -0.000553671 0)
(-0.000175126 -0.000269031 0)
(-5.46902e-05 -6.64341e-05 0)
(-6.22945e-06 2.61514e-05 0)
(-1.03015e-05 4.07318e-05 0)
(-7.94249e-05 0.000233168 0)
(-0.000243496 0.000520584 0)
(-0.000497345 0.000893964 0)
(-0.000841217 0.00133229 0)
(-0.00127782 0.00181542 0)
(-0.00180836 0.00232658 0)
(-0.00243297 0.00285196 0)
(-0.00315085 0.00338019 0)
(-0.00396031 0.00390198 0)
(-0.00485874 0.0044098 0)
(-0.00584278 0.00489754 0)
(-0.00690834 0.00536034 0)
(-0.00805071 0.00579432 0)
(-0.00926466 0.00619648 0)
(-0.0105445 0.00656449 0)
(-0.0118843 0.00689665 0)
(-0.0132776 0.00719173 0)
(-0.0147179 0.00744892 0)
(-0.0161986 0.00766779 0)
(-0.0177129 0.00784818 0)
(-0.0192539 0.0079902 0)
(-0.0208148 0.00809416 0)
(-0.0223888 0.00816055 0)
(-0.0239692 0.00819004 0)
(-0.0255493 0.00818339 0)
(-0.0271226 0.00814151 0)
(-0.0286828 0.00806536 0)
(-0.0302236 0.00795602 0)
(-0.0317389 0.00781462 0)
(-0.033223 0.00764234 0)
(-0.0346703 0.00744041 0)
(-0.0360753 0.0072101 0)
(-0.0374328 0.00695272 0)
(-0.0387379 0.00666961 0)
(-0.039986 0.00636212 0)
(-0.0411725 0.00603164 0)
(-0.0422932 0.00567956 0)
(-0.0433444 0.00530731 0)
(-0.0443222 0.00491633 0)
(-0.0452233 0.00450806 0)
(-0.0460446 0.00408397 0)
(-0.0467833 0.00364554 0)
(-0.0474367 0.00319427 0)
(-0.0480027 0.00273168 0)
(-0.0484792 0.00225928 0)
(-0.0488646 0.00177863 0)
(-0.0491574 0.00129129 0)
(-0.0493566 0.000798844 0)
(-0.0494613 0.000302882 0)
(-0.0494711 -0.000194973 0)
(-0.0493858 -0.000693086 0)
(-0.0492054 -0.00118981 0)
(-0.0489305 -0.00168346 0)
(-0.0485618 -0.00217237 0)
(-0.0481003 -0.00265482 0)
(-0.0475475 -0.00312908 0)
(-0.046905 -0.00359344 0)
(-0.046175 -0.00404615 0)
(-0.0453597 -0.00448546 0)
(-0.0444618 -0.00490961 0)
(-0.0434845 -0.00531686 0)
(-0.0424309 -0.00570545 0)
(-0.0413048 -0.00607365 0)
(-0.0401102 -0.00641974 0)
(-0.0388513 -0.00674201 0)
(-0.0375328 -0.00703879 0)
(-0.0361595 -0.00730844 0)
(-0.0347366 -0.00754938 0)
(-0.0332696 -0.00776007 0)
(-0.0317643 -0.00793903 0)
(-0.0302266 -0.00808488 0)
(-0.0286628 -0.00819629 0)
(-0.0270792 -0.00827206 0)
(-0.0254826 -0.00831109 0)
(-0.0238798 -0.00831239 0)
(-0.0222776 -0.00827515 0)
(-0.0206831 -0.00819869 0)
(-0.0191036 -0.00808254 0)
(-0.017546 -0.00792642 0)
(-0.0160177 -0.00773029 0)
(-0.0145257 -0.00749437 0)
(-0.0130771 -0.00721917 0)
(-0.0116787 -0.00690557 0)
(-0.0103371 -0.00655483 0)
(-0.00905868 -0.00616863 0)
(-0.00784948 -0.0057492 0)
(-0.00671504 -0.00529936 0)
(-0.0056604 -0.00482261 0)
(-0.00469001 -0.00432329 0)
(-0.0038076 -0.00380668 0)
(-0.00301616 -0.0032792 0)
(-0.00231776 -0.00274856 0)
(-0.00171355 -0.00222407 0)
(-0.00120365 -0.00171686 0)
(-0.00078717 -0.00124021 0)
(-0.000461948 -0.000809956 0)
(-0.000224373 -0.000444809 0)
(-7.25106e-05 -0.000166987 0)
(-9.05196e-06 -5.24769e-06 0)
(-1.29358e-05 8.46146e-05 0)
(-9.69443e-05 0.000367849 0)
(-0.000292602 0.000748655 0)
(-0.000591213 0.0012175 0)
(-0.000990857 0.0017528 0)
(-0.00149291 0.00233381 0)
(-0.00209747 0.00294296 0)
(-0.00280364 0.00356557 0)
(-0.00360979 0.0041894 0)
(-0.0045135 0.00480434 0)
(-0.00551157 0.00540204 0)
(-0.00660007 0.0059757 0)
(-0.00777444 0.00651979 0)
(-0.00902951 0.00702988 0)
(-0.0103597 0.0075025 0)
(-0.0117588 0.00793492 0)
(-0.0132204 0.00832511 0)
(-0.0147379 0.00867161 0)
(-0.0163042 0.00897341 0)
(-0.0179124 0.00922994 0)
(-0.0195552 0.00944099 0)
(-0.0212254 0.00960662 0)
(-0.0229157 0.00972716 0)
(-0.024619 0.00980315 0)
(-0.026328 0.00983533 0)
(-0.0280358 0.00982459 0)
(-0.0297353 0.00977195 0)
(-0.0314199 0.00967856 0)
(-0.0330829 0.00954565 0)
(-0.034718 0.00937454 0)
(-0.0363188 0.00916663 0)
(-0.0378794 0.00892336 0)
(-0.0393941 0.00864625 0)
(-0.0408573 0.00833683 0)
(-0.0422637 0.00799669 0)
(-0.0436084 0.00762745 0)
(-0.0448866 0.00723075 0)
(-0.0460939 0.00680825 0)
(-0.047226 0.00636166 0)
(-0.048279 0.00589268 0)
(-0.0492494 0.00540305 0)
(-0.0501337 0.00489453 0)
(-0.0509291 0.00436887 0)
(-0.0516327 0.00382787 0)
(-0.0522421 0.00327334 0)
(-0.0527552 0.00270711 0)
(-0.0531701 0.00213103 0)
(-0.0534855 0.00154697 0)
(-0.0537001 0.000956806 0)
(-0.0538131 0.000362467 0)
(-0.0538239 -0.000234119 0)
(-0.0537324 -0.000830998 0)
(-0.0535386 -0.0014262 0)
(-0.0532431 -0.00201771 0)
(-0.0528466 -0.00260353 0)
(-0.0523503 -0.00318162 0)
(-0.0517557 -0.00374991 0)
(-0.0510645 -0.00430636 0)
(-0.0502791 -0.00484888 0)
(-0.0494018 -0.00537538 0)
(-0.0484356 -0.00588377 0)
(-0.0473837 -0.00637197 0)
(-0.0462497 -0.00683789 0)
(-0.0450374 -0.00727946 0)
(-0.0437511 -0.00769465 0)
(-0.0423954 -0.00808141 0)
(-0.0409751 -0.00843778 0)
(-0.0394955 -0.00876181 0)
(-0.0379621 -0.00905161 0)
(-0.0363808 -0.00930537 0)
(-0.0347576 -0.00952135 0)