/*--------------------------------*- C++ -*----------------------------------*\
  =========                 |
  \\      /  F ield         | OpenFOAM: The Open Source CFD Toolbox
   \\    /   O peration     | Website:  https://openfoam.org
    \\  /    A nd           | Version:  11
     \\/     M anipulation  |
\*---------------------------------------------------------------------------*/
FoamFile
{
    format      ascii;
    class       volScalarField;
    location    "1.1";
    object      p;
}
// * * * * * * * * * * * * * * * * * * * * * * * * * * * * * * * * * * * * * //

dimensions      [0 2 -2 0 0 0 0];

internalField   nonuniform List<scalar> 
10100
(
-2.11363e-07
0.0146731
0.0352256
0.0535954
0.0673494
0.0784608
0.0878505
0.0961214
0.103594
0.11051
0.117039
0.123328
0.129419
0.135272
0.140834
0.146086
0.151044
0.155699
0.160022
0.164003
0.167659
0.171038
0.174204
0.17722
0.180157
0.183089
0.18608
0.189166
0.192358
0.195647
0.19903
0.202514
0.206084
0.209698
0.21332
0.216965
0.22067
0.224447
0.228266
0.232092
0.235924
0.239794
0.243723
0.247694
0.251661
0.255591
0.259482
0.263361
0.267251
0.271162
0.27509
0.279036
0.283015
0.287059
0.291196
0.295435
0.29976
0.304139
0.30853
0.312902
0.317243
0.321553
0.325839
0.330107
0.334351
0.338554
0.342689
0.346724
0.350628
0.354367
0.357907
0.361218
0.364279
0.367084
0.369632
0.371927
0.373974
0.37578
0.377354
0.378708
0.379851
0.380786
0.381506
0.382004
0.382268
0.382295
0.382094
0.381686
0.381094
0.380343
0.379454
0.378451
0.377366
0.376239
0.375118
0.374061
0.373144
0.372474
0.37217
0.372292
0.0143542
0.0282322
0.0446794
0.0596432
0.0720705
0.0824976
0.0914696
0.0994346
0.106704
0.113424
0.11972
0.125713
0.131478
0.137021
0.14232
0.147352
0.152112
0.156603
0.160807
0.164719
0.168367
0.171778
0.174981
0.178042
0.181051
0.184069
0.187128
0.190257
0.193472
0.196769
0.200149
0.203614
0.207149
0.210713
0.214284
0.217881
0.221542
0.225269
0.229027
0.23279
0.236567
0.240393
0.244282
0.248207
0.252122
0.256004
0.259862
0.263724
0.26761
0.27152
0.275442
0.279373
0.283329
0.287339
0.291429
0.295604
0.29985
0.304132
0.308413
0.312666
0.316882
0.321063
0.32522
0.329354
0.33346
0.33752
0.34151
0.345402
0.349168
0.352777
0.356196
0.359398
0.362364
0.36509
0.367576
0.369824
0.371836
0.373616
0.375176
0.376529
0.377682
0.378638
0.379392
0.379936
0.380263
0.380371
0.380275
0.379996
0.37956
0.378987
0.378296
0.377508
0.37665
0.375755
0.374862
0.374011
0.373256
0.372684
0.372391
0.372429
0.035264
0.0449047
0.0561944
0.0676249
0.0781062
0.0874064
0.095646
0.103061
0.109917
0.116325
0.122352
0.128056
0.133514
0.138761
0.143797
0.148621
0.153206
0.15753
0.161607
0.165448
0.169057
0.172449
0.17566
0.17875
0.181796
0.184857
0.18796
0.191125
0.194363
0.197677
0.201066
0.204526
0.208035
0.211561
0.215096
0.218664
0.222293
0.225976
0.229681
0.233392
0.237129
0.240921
0.244775
0.248656
0.252524
0.256363
0.260188
0.26403
0.267902
0.271796
0.275697
0.279603
0.283528
0.287502
0.291546
0.295668
0.299848
0.304054
0.308249
0.312407
0.316522
0.320599
0.324648
0.328671
0.332665
0.336612
0.34049
0.344274
0.347935
0.35144
0.35476
0.357869
0.360755
0.363416
0.365854
0.368066
0.370054
0.371821
0.373377
0.374734
0.375903
0.376886
0.377679
0.378274
0.378663
0.378847
0.378844
0.378676
0.378367
0.377936
0.377399
0.376775
0.376086
0.375357
0.374614
0.373886
0.373207
0.372649
0.372288
0.372163
0.0544863
0.0604925
0.0681559
0.076672
0.0851397
0.0931171
0.10043
0.107155
0.113436
0.119393
0.125071
0.130471
0.135629
0.140589
0.145358
0.149939
0.154327
0.1585
0.162449
0.166191
0.169742
0.173108
0.176314
0.179421
0.182501
0.185595
0.188722
0.191904
0.195164
0.198501
0.201902
0.205354
0.20884
0.21234
0.215851
0.219395
0.222992
0.226636
0.230301
0.233977
0.237682
0.241442
0.245258
0.249096
0.252922
0.256722
0.260517
0.264335
0.268188
0.272066
0.275952
0.279839
0.283737
0.287674
0.291673
0.295739
0.299856
0.303992
0.308108
0.312181
0.316206
0.320189
0.32414
0.328064
0.331957
0.335805
0.339586
0.343275
0.346841
0.350254
0.353484
0.356512
0.359331
0.361942
0.364344
0.366534
0.368509
0.370272
0.371834
0.373206
0.374396
0.375409
0.37624
0.376882
0.377328
0.377583
0.377662
0.37759
0.377387
0.377069
0.376652
0.376152
0.375589
0.374979
0.374336
0.373674
0.373014
0.372416
0.371942
0.371614
0.0694214
0.0738056
0.0793655
0.0858118
0.0925453
0.0991947
0.105547
0.111546
0.117229
0.122674
0.12792
0.13299
0.137866
0.142549
0.147065
0.151423
0.155611
0.159625
0.163466
0.167128
0.170611
0.173932
0.177128
0.180254
0.183358
0.186465
0.189598
0.19279
0.196064
0.199411
0.202809
0.206247
0.209712
0.213188
0.216673
0.220187
0.22375
0.227358
0.230989
0.234632
0.238304
0.242029
0.245803
0.249597
0.253377
0.257135
0.260893
0.264682
0.268514
0.272378
0.27625
0.280116
0.283983
0.287877
0.291824
0.295833
0.299886
0.303951
0.307989
0.311978
0.315913
0.319804
0.323663
0.327494
0.331294
0.33505
0.338742
0.342341
0.345819
0.349145
0.352295
0.355254
0.358019
0.360592
0.362969
0.365143
0.36711
0.368873
0.370444
0.371834
0.373048
0.37409
0.374956
0.375641
0.37614
0.376459
0.376615
0.376626
0.376512
0.376287
0.375966
0.375564
0.375097
0.374574
0.373997
0.373367
0.372692
0.372027
0.371417
0.370872
0.0819225
0.0852872
0.089527
0.0945527
0.0999129
0.105339
0.11075
0.11602
0.121114
0.126063
0.130882
0.135585
0.140164
0.144599
0.148886
0.153032
0.157043
0.16092
0.164657
0.168238
0.17166
0.174947
0.178136
0.181265
0.18437
0.187475
0.19061
0.193808
0.197085
0.200426
0.20381
0.207226
0.210665
0.214113
0.217569
0.221054
0.224585
0.228157
0.231749
0.235357
0.238996
0.242688
0.246423
0.250168
0.253895
0.257602
0.26132
0.265082
0.268898
0.272749
0.276603
0.280441
0.284269
0.288117
0.292013
0.295967
0.299959
0.303955
0.307915
0.311818
0.315666
0.31947
0.323242
0.326986
0.330701
0.334374
0.337984
0.341503
0.344899
0.348146
0.351226
0.354128
0.356851
0.359393
0.361748
0.363907
0.365866
0.367629
0.369208
0.370612
0.371848
0.372917
0.373816
0.374541
0.375091
0.375472
0.375697
0.37578
0.375739
0.375588
0.375342
0.375013
0.374614
0.374149
0.37361
0.372988
0.372279
0.37153
0.370778
0.370017
0.092814
0.095416
0.0987097
0.102685
0.107009
0.111456
0.11597
0.12051
0.125032
0.129503
0.133922
0.13827
0.142534
0.146709
0.150781
0.154743
0.158597
0.162343
0.16597
0.169467
0.172838
0.176101
0.179278
0.182395
0.185486
0.188582
0.191713
0.194912
0.198184
0.201513
0.204877
0.208265
0.211673
0.215093
0.218523
0.22198
0.225476
0.229007
0.232558
0.236131
0.239742
0.243402
0.247096
0.250787
0.254454
0.258109
0.261789
0.265529
0.269331
0.273167
0.276997
0.280799
0.284586
0.28839
0.292242
0.296147
0.300082
0.304009
0.307891
0.311712
0.315474
0.319195
0.322886
0.32655
0.330187
0.333784
0.33732
0.340763
0.344084
0.347261
0.350281
0.353136
0.355823
0.358337
0.360669
0.362811
0.364759
0.36652
0.368103
0.369519
0.370773
0.371867
0.372797
0.373563
0.374166
0.374609
0.374899
0.375045
0.375063
0.374971
0.374783
0.37451
0.374158
0.373726
0.373202
0.37257
0.371815
0.370981
0.370088
0.36912
0.102618
0.104577
0.107099
0.110243
0.113742
0.117404
0.121161
0.125024
0.128983
0.132991
0.137014
0.141014
0.144971
0.148883
0.152738
0.156522
0.160226
0.163839
0.167356
0.170773
0.174093
0.177326
0.180481
0.183575
0.186647
0.189731
0.19286
0.196055
0.199317
0.202626
0.205964
0.209326
0.212709
0.216105
0.219509
0.222932
0.226386
0.229874
0.233389
0.236934
0.240519
0.244145
0.24779
0.251421
0.255029
0.258635
0.262284
0.266004
0.26979
0.273603
0.2774
0.281163
0.28491
0.288678
0.292494
0.296357
0.300239
0.304097
0.307902
0.311641
0.315324
0.318967
0.322583
0.326177
0.329743
0.33327
0.336734
0.340106
0.343358
0.346474
0.349444
0.352263
0.35492
0.357407
0.359715
0.361838
0.363776
0.365534
0.367121
0.368548
0.369819
0.370935
0.371895
0.372702
0.373356
0.373857
0.374205
0.374404
0.374468
0.374419
0.374275
0.374046
0.373731
0.373319
0.372796
0.372141
0.371337
0.370419
0.369395
0.368238
0.111591
0.113024
0.114914
0.117338
0.120126
0.123116
0.126256
0.129539
0.132963
0.136514
0.14014
0.143792
0.147455
0.151114
0.154747
0.15834
0.161881
0.16536
0.168771
0.172109
0.175372
0.178559
0.181674
0.184739
0.187794
0.190874
0.194001
0.197185
0.200427
0.203712
0.207029
0.210373
0.213739
0.217112
0.220483
0.223864
0.227275
0.230726
0.234214
0.237737
0.241295
0.24488
0.248468
0.252039
0.255592
0.259158
0.262779
0.266479
0.270241
0.274021
0.277779
0.281503
0.285218
0.288959
0.292748
0.296574
0.300402
0.304193
0.307923
0.311586
0.315196
0.31877
0.322322
0.325852
0.329354
0.332815
0.336211
0.339515
0.342705
0.345771
0.348704
0.351494
0.354128
0.356593
0.358882
0.360992
0.362923
0.36468
0.366273
0.367711
0.368998
0.370134
0.371121
0.371962
0.37266
0.373208
0.373601
0.373839
0.373937
0.373919
0.373807
0.37361
0.373322
0.372927
0.372401
0.371721
0.370868
0.369874
0.368732
0.367406
0.119909
0.120854
0.12222
0.124048
0.12621
0.128606
0.131202
0.133987
0.136943
0.140051
0.143276
0.146593
0.149973
0.153378
0.15678
0.160169
0.16354
0.166884
0.170188
0.173438
0.176624
0.179746
0.182814
0.185853
0.188896
0.191971
0.195086
0.198252
0.201471
0.204737
0.208041
0.211374
0.214721
0.218063
0.221396
0.224736
0.228111
0.231534
0.235001
0.238502
0.242027
0.245565
0.249097
0.252611
0.256118
0.259652
0.263249
0.266924
0.270653
0.274392
0.27811
0.281802
0.285495
0.289221
0.292989
0.29678
0.300556
0.304283
0.307943
0.311538
0.315086
0.318604
0.322102
0.325577
0.329021
0.332418
0.335748
0.338989
0.342126
0.345152
0.348059
0.350831
0.353449
0.355898
0.358174
0.360277
0.362207
0.363968
0.365568
0.367015
0.368315
0.369467
0.370473
0.37134
0.372067
0.372649
0.373073
0.373339
0.373461
0.373466
0.373377
0.373203
0.372934
0.372551
0.372023
0.371322
0.370425
0.369364
0.368119
0.366647
0.127696
0.128147
0.129047
0.130378
0.131995
0.133871
0.135988
0.138323
0.140855
0.143555
0.146413
0.149411
0.152505
0.155644
0.158809
0.161998
0.165203
0.168405
0.171584
0.174723
0.177816
0.180868
0.183892
0.186905
0.189933
0.192988
0.19608
0.199221
0.202422
0.205678
0.208974
0.21229
0.215609
0.218914
0.222208
0.225516
0.228866
0.23227
0.235717
0.239191
0.242679
0.24617
0.249652
0.253122
0.256595
0.260102
0.263675
0.26732
0.271011
0.27471
0.278393
0.282065
0.28575
0.289468
0.293221
0.296979
0.300707
0.304375
0.307975
0.311515
0.315015
0.31849
0.321946
0.325374
0.328763
0.332098
0.335365
0.338547
0.341638
0.344632
0.347519
0.350278
0.352884
0.355322
0.35759
0.359692
0.361624
0.363389
0.364993
0.366446
0.367753
0.368915
0.369934
0.370817
0.371565
0.37217
0.372618
0.372904
0.373045
0.373068
0.372998
0.37284
0.372584
0.372206
0.371675
0.370955
0.370021
0.368903
0.367572
0.365975
0.135056
0.134988
0.135421
0.136302
0.137472
0.138896
0.140582
0.142507
0.144649
0.146992
0.149527
0.152218
0.155014
0.157887
0.160828
0.163828
0.166863
0.169905
0.172937
0.175949
0.178945
0.181929
0.184907
0.187886
0.19088
0.193901
0.196963
0.200081
0.203269
0.206515
0.209795
0.213084
0.216367
0.219635
0.222899
0.226185
0.229519
0.232907
0.236333
0.239778
0.243231
0.246683
0.250129
0.253569
0.257019
0.260506
0.264055
0.267667
0.271322
0.274989
0.278652
0.282318
0.286004
0.289723
0.293463
0.297192
0.300876
0.304495
0.308048
0.311549
0.315017
0.318464
0.321887
0.325274
0.328609
0.331882
0.335086
0.338213
0.341261
0.344225
0.347095
0.349841
0.352436
0.354863
0.357124
0.359223
0.361157
0.362923
0.364528
0.365981
0.36729
0.368457
0.369487
0.370383
0.371148
0.371772
0.372241
0.372549
0.372709
0.372748
0.372691
0.372543
0.372293
0.371917
0.37138
0.370641
0.369675
0.36851
0.367106
0.365407
0.142003
0.141422
0.141395
0.14184
0.142609
0.14365
0.144955
0.146512
0.14831
0.150339
0.152572
0.154962
0.157476
0.160105
0.162838
0.165646
0.168494
0.171359
0.174234
0.177122
0.180023
0.182936
0.185855
0.18878
0.191725
0.194705
0.197736
0.200834
0.204004
0.207229
0.210478
0.213731
0.216977
0.220216
0.223461
0.226734
0.230056
0.233428
0.236833
0.240254
0.243682
0.24711
0.250536
0.25396
0.257396
0.260868
0.264395
0.267981
0.27161
0.275258
0.278917
0.282589
0.286286
0.290008
0.293738
0.297442
0.301089
0.30467
0.308191
0.31167
0.315121
0.318551
0.321949
0.325297
0.328579
0.331791
0.334933
0.338007
0.341014
0.343948
0.346796
0.349526
0.352107
0.354522
0.356773
0.358865
0.360796
0.362561
0.364164
0.365616
0.366925
0.368097
0.369136
0.370047
0.370828
0.371472
0.371963
0.372292
0.372471
0.372526
0.372478
0.372334
0.372085
0.371704
0.371158
0.3704
0.369405
0.368201
0.366738
0.364953
0.148489
0.147437
0.146982
0.147023
0.147406
0.148104
0.149082
0.150323
0.151821
0.153559
0.155502
0.157611
0.159877
0.162287
0.164813
0.167415
0.170063
0.172749
0.175478
0.178248
0.181053
0.18388
0.186722
0.18958
0.192469
0.195409
0.19841
0.201482
0.204622
0.207809
0.211017
0.214229
0.217444
0.220664
0.223898
0.227164
0.230474
0.23383
0.23722
0.240627
0.244043
0.247463
0.250883
0.254301
0.257731
0.261191
0.264704
0.268273
0.27189
0.275536
0.279203
0.282891
0.286602
0.290329
0.294051
0.297733
0.301353
0.304908
0.308414
0.311886
0.315335
0.318756
0.322134
0.325447
0.328679
0.331832
0.334916
0.337941
0.340907
0.343812
0.346635
0.349346
0.351911
0.354311
0.356551
0.358633
0.360558
0.362319
0.36392
0.36537
0.366681
0.367859
0.368911
0.369836
0.370634
0.371294
0.371803
0.372152
0.372349
0.372416
0.372373
0.372229
0.371975
0.371586
0.371024
0.370245
0.369223
0.367987
0.366476
0.364621
0.154474
0.153007
0.152168
0.151848
0.15188
0.152256
0.152944
0.153915
0.155148
0.156616
0.158288
0.160151
0.162196
0.164394
0.166703
0.169091
0.171546
0.17407
0.176664
0.179317
0.182015
0.184745
0.187502
0.190292
0.19313
0.196031
0.198997
0.202029
0.205122
0.20826
0.211422
0.2146
0.217791
0.220999
0.224225
0.227481
0.23078
0.234125
0.237507
0.240911
0.244329
0.247752
0.251173
0.254592
0.258019
0.261474
0.264981
0.268548
0.272167
0.275823
0.279507
0.283215
0.28694
0.290672
0.294385
0.298051
0.301654
0.305199
0.308705
0.312185
0.315642
0.319062
0.322426
0.325709
0.328898
0.332002
0.335038
0.33802
0.340952
0.343829
0.346629
0.34932
0.351867
0.354254
0.35648
0.358551
0.360467
0.362223
0.363822
0.365271
0.366583
0.367771
0.368836
0.369775
0.370585
0.371256
0.371778
0.372141
0.372352
0.372426
0.372384
0.372235
0.371971
0.371568
0.370985
0.370182
0.369136
0.367873
0.366323
0.364408
0.159956
0.158124
0.156956
0.156302
0.156026
0.156107
0.156534
0.157265
0.158258
0.159479
0.160914
0.162559
0.164392
0.166372
0.168461
0.170647
0.17293
0.175309
0.177773
0.180305
0.18289
0.185523
0.188202
0.190933
0.193726
0.196584
0.199502
0.20248
0.205517
0.208602
0.211722
0.21487
0.218044
0.221238
0.224453
0.227698
0.230986
0.234326
0.23771
0.241122
0.244548
0.247978
0.251404
0.254825
0.258255
0.261715
0.265228
0.268805
0.272438
0.276113
0.279819
0.283547
0.287286
0.291021
0.294729
0.298385
0.301982
0.30553
0.309051
0.312551
0.316024
0.319451
0.322808
0.32607
0.32923
0.332299
0.335299
0.33825
0.341157
0.344012
0.346793
0.349464
0.351994
0.354365
0.356576
0.358633
0.360538
0.362288
0.363882
0.365328
0.366643
0.367838
0.368916
0.369867
0.370685
0.371362
0.37189
0.372263
0.372483
0.372561
0.372514
0.372352
0.372073
0.37165
0.371043
0.370213
0.369144
0.36786
0.366276
0.36431
0.164948
0.162789
0.161325
0.160376
0.159819
0.159647
0.159842
0.160353
0.161125
0.162127
0.163354
0.164795
0.166414
0.168176
0.170061
0.17207
0.174201
0.176443
0.178778
0.181189
0.183669
0.186218
0.188836
0.191518
0.194265
0.197072
0.199931
0.202847
0.205825
0.208862
0.211945
0.215067
0.21822
0.221397
0.224595
0.227827
0.23111
0.234452
0.237845
0.241269
0.244706
0.248143
0.251574
0.255003
0.258444
0.26192
0.265452
0.269051
0.272707
0.276406
0.280135
0.283881
0.287632
0.29137
0.295076
0.298732
0.302335
0.305899
0.309445
0.312974
0.31647
0.319911
0.323269
0.326525
0.329671
0.332721
0.335703
0.338637
0.341529
0.344369
0.347131
0.349783
0.352295
0.354647
0.35684
0.358879
0.360768
0.362507
0.364093
0.365535
0.36685
0.368051
0.369138
0.370098
0.37092
0.371599
0.372129
0.372508
0.372735
0.372815
0.372759
0.372581
0.372281
0.371834
0.371199
0.370341
0.369249
0.367945
0.366332
0.364322
0.169428
0.166994
0.165255
0.16405
0.163246
0.162861
0.162851
0.163157
0.163728
0.164539
0.165579
0.16682
0.16823
0.169789
0.171496
0.173351
0.175342
0.17745
0.179658
0.18196
0.184355
0.186841
0.18941
0.192047
0.194742
0.197488
0.200284
0.203139
0.206066
0.209061
0.212111
0.215204
0.218331
0.221484
0.224665
0.227887
0.23117
0.234522
0.237929
0.241366
0.244813
0.248257
0.251698
0.255142
0.258606
0.26211
0.265674
0.269304
0.272988
0.276713
0.280463
0.284226
0.287987
0.291731
0.29544
0.299103
0.302721
0.30631
0.309887
0.313448
0.316972
0.320431
0.323801
0.327064
0.330213
0.333264
0.336242
0.339172
0.342058
0.344887
0.347633
0.350266
0.352757
0.35509
0.357261
0.359278
0.361147
0.36287
0.364445
0.365881
0.367196
0.368402
0.369494
0.370456
0.371278
0.371954
0.372485
0.372868
0.3731
0.373179
0.373114
0.372917
0.372592
0.372116
0.371451
0.370564
0.369449
0.368127
0.366488
0.364439
0.173359
0.170701
0.168741
0.167311
0.166302
0.165728
0.165532
0.165656
0.166054
0.166699
0.167564
0.168615
0.169832
0.171216
0.172769
0.174483
0.176338
0.178316
0.180412
0.182626
0.184957
0.187394
0.189917
0.192503
0.195139
0.197824
0.200562
0.203366
0.206251
0.209209
0.212225
0.215285
0.218381
0.221511
0.224677
0.227897
0.231189
0.234555
0.237978
0.241429
0.244886
0.248341
0.251798
0.255269
0.258769
0.262316
0.265921
0.269587
0.273301
0.277049
0.280818
0.284597
0.28837
0.292122
0.295839
0.299515
0.303153
0.30677
0.310379
0.313972
0.317523
0.321003
0.324392
0.327672
0.330839
0.333903
0.336892
0.339829
0.342716
0.345539
0.348272
0.350887
0.35336
0.355675
0.357827
0.359823
0.361672
0.363379
0.364943
0.366373
0.367689
0.368898
0.36999
0.370948
0.371761
0.37243
0.372958
0.373342
0.373575
0.37365
0.373572
0.373354
0.373001
0.372493
0.371794
0.370876
0.369737
0.368397
0.366735
0.364651
0.176725
0.17389
0.171769
0.170154
0.168969
0.168223
0.167867
0.167842
0.168099
0.168598
0.169298
0.170176
0.171229
0.172465
0.17388
0.175458
0.177183
0.179046
0.18105
0.183198
0.185478
0.18787
0.190342
0.19287
0.195449
0.198079
0.200771
0.203537
0.206386
0.209308
0.212287
0.215311
0.218377
0.221486
0.224647
0.227874
0.231181
0.234565
0.238003
0.241466
0.244935
0.248407
0.251891
0.255402
0.258951
0.26255
0.266202
0.269906
0.273649
0.27742
0.281208
0.285003
0.28879
0.292555
0.296285
0.299977
0.303637
0.307281
0.310919
0.314539
0.318113
0.321615
0.325026
0.328332
0.331525
0.334614
0.337623
0.340574
0.343469
0.346291
0.349016
0.351619
0.354083
0.356388
0.358528
0.36051
0.362346
0.364041
0.365598
0.367026
0.368344
0.369556
0.370645
0.371592
0.37239
0.373043
0.37356
0.373938
0.374163
0.374226
0.37413
0.373888
0.373503
0.372958
0.37222
0.371268
0.370104
0.368747
0.367063
0.364948
0.179536
0.176575
0.174323
0.172567
0.171231
0.170339
0.169857
0.169719
0.169861
0.170227
0.17078
0.171512
0.172431
0.17354
0.174826
0.176275
0.177882
0.17965
0.181584
0.183679
0.185912
0.188252
0.190667
0.193139
0.195668
0.198259
0.200918
0.203654
0.206469
0.209354
0.212294
0.215283
0.218323
0.221421
0.224584
0.227824
0.231149
0.23455
0.238002
0.241477
0.244962
0.248459
0.251981
0.255543
0.259151
0.262808
0.26651
0.270252
0.274024
0.277818
0.281628
0.285445
0.289253
0.293036
0.296783
0.300494
0.304175
0.307843
0.311505
0.315145
0.318738
0.32226
0.325695
0.329031
0.332257
0.335376
0.338411
0.341382
0.34429
0.347118
0.349843
0.352447
0.354911
0.357218
0.359357
0.361335
0.363166
0.364859
0.366417
0.36785
0.369174
0.370386
0.371469
0.372401
0.373176
0.373806
0.374303
0.374664
0.374871
0.374912
0.374789
0.374515
0.374091
0.373503
0.372722
0.371732
0.370543
0.36917
0.367467
0.365322
0.181822
0.178773
0.176408
0.174545
0.173091
0.172095
0.171522
0.171295
0.171336
0.171585
0.172017
0.172635
0.173444
0.174438
0.175603
0.176936
0.178446
0.18014
0.182018
0.184063
0.186243
0.188526
0.190884
0.193309
0.195802
0.198366
0.201
0.203708
0.206489
0.209335
0.212237
0.215195
0.218218
0.221313
0.224486
0.227742
0.231084
0.2345
0.237963
0.241452
0.244959
0.24849
0.252062
0.255684
0.259357
0.263073
0.266826
0.270606
0.27441
0.278234
0.282074
0.285921
0.289759
0.293568
0.297338
0.30107
0.304774
0.308464
0.312143
0.315799
0.319406
0.322946
0.326406
0.329774
0.333034
0.336188
0.339251
0.342245
0.34517
0.348011
0.350747
0.353364
0.355842
0.358161
0.360308
0.362291
0.364126
0.365824
0.36739
0.368834
0.370166
0.371378
0.372449
0.373361
0.37411
0.374712
0.375182
0.375518
0.375698
0.375707
0.375549
0.375234
0.374766
0.374129
0.373301
0.372274
0.37106
0.369671
0.36795
0.365777
0.183622
0.180505
0.178058
0.176114
0.174584
0.173521
0.172879
0.172573
0.172522
0.172675
0.173017
0.173547
0.17426
0.175147
0.176205
0.177444
0.17888
0.180517
0.182345
0.184336
0.186457
0.188682
0.190993
0.193383
0.195853
0.198397
0.201008
0.203686
0.20643
0.209237
0.212106
0.215041
0.218055
0.221153
0.224338
0.22761
0.230966
0.234394
0.23787
0.241378
0.244913
0.248489
0.252117
0.255803
0.259541
0.263318
0.26712
0.270943
0.274785
0.278648
0.28253
0.28642
0.290298
0.294142
0.297943
0.301703
0.305434
0.309147
0.312845
0.316515
0.320137
0.323696
0.327183
0.330583
0.333879
0.337066
0.340159
0.343178
0.346124
0.348985
0.35174
0.354378
0.356877
0.359214
0.361375
0.363368
0.365213
0.366922
0.3685
0.369958
0.371298
0.372508
0.373565
0.374455
0.375177
0.37575
0.37619
0.376493
0.376638
0.376609
0.376408
0.376048
0.375531
0.374845
0.373972
0.372908
0.371669
0.370264
0.368526
0.366323
0.184989
0.18183
0.179335
0.17734
0.175766
0.174651
0.173944
0.173563
0.173433
0.173514
0.173789
0.174245
0.17487
0.175663
0.176634
0.177803
0.179183
0.180771
0.182546
0.184479
0.186543
0.188718
0.190993
0.19336
0.195812
0.198336
0.20092
0.203564
0.206272
0.209045
0.211886
0.214807
0.217819
0.220925
0.224123
0.227409
0.230778
0.234218
0.237711
0.241245
0.244818
0.248443
0.252131
0.255881
0.259682
0.263517
0.267371
0.271241
0.275131
0.279045
0.282981
0.286925
0.290854
0.294744
0.298586
0.302384
0.306149
0.309894
0.313618
0.317309
0.320951
0.324536
0.328054
0.331489
0.334819
0.338038
0.34116
0.344205
0.347175
0.350058
0.352836
0.355496
0.358018
0.360374
0.362551
0.36456
0.366419
0.368141
0.369735
0.371208
0.372557
0.373764
0.374807
0.375674
0.376369
0.376913
0.37732
0.377585
0.377689
0.377617
0.377372
0.376966
0.376402
0.375669
0.374754
0.373655
0.372391
0.370967
0.369208
0.366973
0.186
0.182836
0.180318
0.178297
0.176686
0.175515
0.174742
0.174293
0.174102
0.174128
0.174346
0.174732
0.175277
0.175992
0.176898
0.178015
0.179347
0.180884
0.182601
0.184475
0.186487
0.188623
0.190871
0.193218
0.19565
0.198147
0.2007
0.203311
0.205986
0.208733
0.211557
0.214474
0.217491
0.22061
0.223823
0.227126
0.230512
0.233972
0.237492
0.24106
0.244678
0.248356
0.252103
0.255914
0.259774
0.263664
0.267572
0.271496
0.275441
0.279414
0.283413
0.28742
0.291408
0.295354
0.299248
0.303095
0.306908
0.310697
0.314459
0.318183
0.321857
0.325477
0.329033
0.332506
0.335873
0.339124
0.342275
0.345345
0.348339
0.351244
0.354044
0.356726
0.359268
0.361643
0.363839
0.365868
0.367748
0.369489
0.371101
0.37259
0.373947
0.375151
0.37618
0.377025
0.377694
0.378207
0.378576
0.3788
0.378859
0.378742
0.378454
0.378006
0.377399
0.376623
0.375667
0.374532
0.373239
0.371793
0.370008
0.367738
0.186744
0.183593
0.181064
0.179024
0.17737
0.17614
0.175304
0.174798
0.174559
0.174537
0.174695
0.175012
0.175489
0.176145
0.177002
0.178072
0.179354
0.180832
0.182489
0.184307
0.186275
0.188378
0.190601
0.192925
0.195328
0.197795
0.200317
0.202898
0.20555
0.208281
0.211102
0.214026
0.217058
0.220195
0.223429
0.226754
0.230168
0.233659
0.237216
0.240827
0.244494
0.248226
0.252028
0.255895
0.259811
0.263756
0.267719
0.271699
0.275705
0.279743
0.283809
0.287883
0.291937
0.295947
0.299903
0.303813
0.30769
0.311538
0.315355
0.319128
0.322849
0.326516
0.33012
0.333639
0.337047
0.340334
0.343516
0.346614
0.349631
0.352557
0.355377
0.358079
0.360641
0.363036
0.365255
0.367309
0.369214
0.370979
0.372611
0.374115
0.37548
0.37668
0.377696
0.378521
0.379164
0.379645
0.379976
0.380155
0.380167
0.380007
0.379679
0.379192
0.378545
0.377726
0.376727
0.375553
0.374227
0.372753
0.37094
0.368631
0.187287
0.184142
0.181605
0.179538
0.177838
0.176555
0.175665
0.175111
0.174826
0.17475
0.174844
0.175096
0.175518
0.176127
0.176939
0.177958
0.17918
0.180595
0.182193
0.183962
0.185892
0.187965
0.190159
0.192451
0.194822
0.197257
0.199751
0.202313
0.204953
0.207683
0.210512
0.213451
0.216505
0.219667
0.22293
0.22629
0.229743
0.233279
0.236883
0.240544
0.244262
0.248046
0.251901
0.255821
0.25979
0.26379
0.26781
0.271851
0.27592
0.280026
0.284161
0.288304
0.292427
0.296506
0.300535
0.30452
0.308475
0.312402
0.316291
0.320131
0.323917
0.327647
0.331312
0.334888
0.338346
0.341677
0.344896
0.348023
0.351064
0.354009
0.356849
0.359571
0.362155
0.364574
0.36682
0.368903
0.370835
0.372624
0.374276
0.375795
0.377165
0.378362
0.379366
0.380172
0.380791
0.381242
0.381535
0.38167
0.381638
0.381435
0.381069
0.380544
0.379855
0.378993
0.377949
0.376732
0.375369
0.373863
0.372017
0.369665
0.18766
0.184503
0.181952
0.179856
0.178119
0.176793
0.175856
0.175251
0.174909
0.174771
0.174802
0.174999
0.175374
0.175939
0.176698
0.177656
0.178812
0.180164
0.181708
0.183435
0.185328
0.187367
0.189525
0.19178
0.194116
0.196522
0.198996
0.201547
0.204188
0.206927
0.209774
0.212738
0.215821
0.219017
0.22232
0.225729
0.229237
0.232832
0.236494
0.240211
0.243983
0.24782
0.251729
0.255705
0.259731
0.26379
0.267873
0.271979
0.276116
0.280289
0.284493
0.288704
0.292894
0.297043
0.301148
0.305218
0.309262
0.313278
0.317255
0.321177
0.325043
0.328852
0.332595
0.336242
0.339762
0.343146
0.34641
0.349572
0.352639
0.355606
0.358467
0.361215
0.363826
0.366275
0.368553
0.370668
0.37263
0.374444
0.376117
0.377649
0.379023
0.380214
0.381206
0.381995
0.382592
0.383013
0.38327
0.383364
0.383289
0.383045
0.38264
0.382075
0.381344
0.380435
0.379344
0.378083
0.37668
0.375137
0.373247
0.370845
0.187857
0.184678
0.18211
0.179993
0.178227
0.17686
0.175874
0.175211
0.174804
0.174601
0.174577
0.174727
0.175057
0.175569
0.176265
0.177154
0.178243
0.179538
0.181036
0.182722
0.184577
0.186574
0.188689
0.190903
0.193205
0.195587
0.198048
0.200598
0.20325
0.206008
0.20888
0.211875
0.214996
0.21824
0.221601
0.225076
0.228656
0.232322
0.236051
0.239832
0.243665
0.247563
0.251535
0.255574
0.259666
0.263793
0.267946
0.272124
0.276331
0.280573
0.284841
0.289114
0.293366
0.297582
0.301762
0.305916
0.310051
0.314161
0.31823
0.322243
0.3262
0.330103
0.333937
0.33767
0.341267
0.344717
0.348036
0.351242
0.354344
0.357342
0.360235
0.363018
0.365666
0.368154
0.370471
0.372626
0.374622
0.376464
0.378158
0.379703
0.38108
0.382264
0.383241
0.384011
0.384584
0.384976
0.385197
0.38525
0.385133
0.384848
0.384403
0.383796
0.383019
0.382061
0.380921
0.379613
0.378163
0.376572
0.374626
0.372164
0.187857
0.184652
0.182068
0.179938
0.178141
0.176728
0.175686
0.17496
0.174487
0.174226
0.174156
0.174264
0.174543
0.174992
0.175619
0.17644
0.177471
0.178718
0.180175
0.181821
0.183632
0.185583
0.187652
0.189826
0.192098
0.194462
0.196919
0.199478
0.202148
0.204931
0.207835
0.210871
0.214045
0.217352
0.220788
0.224343
0.228007
0.231754
0.235559
0.23941
0.243312
0.24728
0.251324
0.255437
0.259604
0.26381
0.268043
0.272298
0.276579
0.280889
0.285218
0.289547
0.293856
0.298134
0.302385
0.306619
0.310842
0.315043
0.319202
0.323308
0.327364
0.331371
0.335312
0.339146
0.342834
0.346366
0.349755
0.35302
0.356171
0.359214
0.362154
0.364985
0.367682
0.370217
0.372582
0.374782
0.376818
0.378692
0.380411
0.38197
0.383349
0.384524
0.385486
0.386235
0.386784
0.387145
0.387329
0.387341
0.387182
0.386855
0.386368
0.385715
0.384887
0.383875
0.38268
0.381315
0.379806
0.378152
0.376135
0.373602
0.187652
0.184413
0.181809
0.17966
0.177823
0.176356
0.175254
0.174465
0.173935
0.173627
0.173515
0.173575
0.173795
0.174176
0.174737
0.175502
0.176487
0.177696
0.179116
0.180721
0.182488
0.184392
0.186419
0.188561
0.190813
0.19317
0.195634
0.19821
0.200905
0.203722
0.206668
0.209757
0.212997
0.216383
0.219904
0.22355
0.227301
0.231132
0.235015
0.238941
0.242918
0.246963
0.251086
0.255281
0.259533
0.263825
0.268146
0.272486
0.276845
0.281223
0.285613
0.29
0.294366
0.298705
0.303025
0.307337
0.311643
0.315929
0.320176
0.324376
0.328535
0.332656
0.336715
0.340664
0.34446
0.348089
0.351564
0.354905
0.358123
0.361226
0.364224
0.367112
0.369864
0.372451
0.374867
0.377117
0.379199
0.381111
0.382858
0.384435
0.385817
0.386987
0.387935
0.388665
0.389192
0.389525
0.389674
0.389647
0.389445
0.389074
0.388539
0.387833
0.386946
0.385869
0.384606
0.383169
0.381586
0.379853
0.377753
0.375138
0.187244
0.183955
0.181314
0.179127
0.177242
0.175718
0.174555
0.173709
0.173131
0.172781
0.172622
0.172625
0.17278
0.173098
0.173604
0.174326
0.175277
0.176455
0.177841
0.179408
0.181134
0.183001
0.184999
0.187122
0.189368
0.191733
0.194213
0.196816
0.199546
0.202407
0.205408
0.208565
0.211885
0.215359
0.218971
0.222706
0.226544
0.230457
0.234419
0.238421
0.242474
0.246599
0.250806
0.25509
0.259434
0.263821
0.268236
0.272667
0.27711
0.281564
0.286024
0.290476
0.294908
0.299318
0.303711
0.3081
0.312485
0.316853
0.321185
0.325479
0.329745
0.333985
0.33817
0.342242
0.346155
0.349893
0.35347
0.356902
0.360199
0.363373
0.366435
0.369383
0.372188
0.374826
0.377294
0.379596
0.381728
0.383684
0.385467
0.387066
0.388459
0.389629
0.390571
0.39129
0.3918
0.392111
0.39223
0.392165
0.391921
0.391503
0.390913
0.390144
0.389184
0.388028
0.386681
0.385157
0.383484
0.381663
0.379473
0.376767
0.186617
0.183259
0.180555
0.178313
0.176378
0.1748
0.173581
0.172685
0.172063
0.171665
0.171448
0.171387
0.17148
0.171744
0.17221
0.172901
0.173827
0.174979
0.176334
0.17787
0.179566
0.181411
0.183397
0.185518
0.187774
0.190158
0.192666
0.195306
0.198082
0.201
0.204071
0.20731
0.21072
0.214287
0.217989
0.221811
0.225731
0.229722
0.23376
0.237837
0.241969
0.246176
0.25047
0.254847
0.259289
0.263777
0.268293
0.272822
0.277359
0.281901
0.286445
0.29098
0.295497
0.299991
0.304468
0.30894
0.313407
0.317857
0.322274
0.326661
0.331033
0.335392
0.339701
0.343897
0.34793
0.351784
0.355471
0.359004
0.362389
0.365639
0.368767
0.371772
0.374628
0.377314
0.379834
0.382192
0.38438
0.386389
0.388216
0.389848
0.391261
0.392442
0.393386
0.394101
0.394602
0.394897
0.394992
0.394893
0.394605
0.394134
0.39348
0.392635