/*--------------------------------*- C++ -*----------------------------------*\
  =========                 |
  \\      /  F ield         | OpenFOAM: The Open Source CFD Toolbox
   \\    /   O peration     | Website:  https://openfoam.org
    \\  /    A nd           | Version:  11
     \\/     M anipulation  |
\*---------------------------------------------------------------------------*/
FoamFile
{
    format      ascii;
    class       surfaceScalarField;
    location    "1.1";
    object      phi;
}
// * * * * * * * * * * * * * * * * * * * * * * * * * * * * * * * * * * * * * //

dimensions      [0 3 -1 0 0 0 0];

internalField   nonuniform List<scalar> 
19980
(
1.21947e-06
-1.21885e-06
-4.05406e-06
5.27345e-06
-4.60777e-06
5.53776e-07
-6.70336e-06
2.09561e-06
-9.76261e-06
3.05926e-06
-1.38775e-05
4.11486e-06
-1.90281e-05
5.15044e-06
-2.49294e-05
5.90137e-06
-3.14011e-05
6.47171e-06
-3.8172e-05
6.77084e-06
-4.50107e-05
6.83862e-06
-5.16388e-05
6.62806e-06
-5.79323e-05
6.29341e-06
-6.37945e-05
5.86226e-06
-6.9195e-05
5.40046e-06
-7.41644e-05
4.9693e-06
-7.87462e-05
4.58183e-06
-8.30247e-05
4.27842e-06
-8.71448e-05
4.12005e-06
-9.12825e-05
4.1377e-06
-9.55735e-05
4.29095e-06
-0.00010011
4.53673e-06
-0.000104984
4.87364e-06
-0.000110242
5.25755e-06
-0.000115846
5.60471e-06
-0.000121725
5.87906e-06
-0.000127797
6.07161e-06
-0.000133947
6.15006e-06
-0.000140049
6.10173e-06
-0.000146017
5.96846e-06
-0.00015181
5.79257e-06
-0.000157382
5.57287e-06
-0.000162684
5.30156e-06
-0.00016769
5.00647e-06
-0.000172419
4.72819e-06
-0.000176893
4.47465e-06
-0.000181116
4.22247e-06
-0.000185073
3.95664e-06
-0.000188763
3.69039e-06
-0.000192206
3.44359e-06
-0.00019542
3.21368e-06
-0.000198397
2.97669e-06
-0.00020111
2.71369e-06
-0.000203542
2.43169e-06
-0.000205702
2.15939e-06
-0.000207627
1.92582e-06
-0.000209371
1.74383e-06
-0.000210981
1.61025e-06
-0.000212498
1.51645e-06
-0.000213951
1.45331e-06
-0.00021536
1.4092e-06
-0.000216721
1.36083e-06
-0.000217997
1.27537e-06
-0.000219115
1.11871e-06
-0.000219982
8.67182e-07
-0.000220498
5.15497e-07
-0.000220576
7.77295e-08
-0.000220158
-4.17729e-07
-0.000219221
-9.36706e-07
-0.000217771
-1.44981e-06
-0.00021583
-1.94122e-06
-0.000213418
-2.41207e-06
-0.00021054
-2.87788e-06
-0.00020718
-3.3605e-06
-0.000203303
-3.87675e-06
-0.000198873
-4.4302e-06
-0.000193863
-5.01002e-06
-0.000188267
-5.59567e-06
-0.000182104
-6.16313e-06
-0.000175415
-6.68923e-06
-0.00016826
-7.15502e-06
-0.00016071
-7.54956e-06
-0.000152838
-7.8723e-06
-0.000144706
-8.13186e-06
-0.000136365
-8.34096e-06
-0.000127856
-8.50936e-06
-0.000119216
-8.63989e-06
-0.000110485
-8.73126e-06
-0.0001017
-8.78461e-06
-9.28934e-05
-8.80669e-06
-8.40868e-05
-8.80661e-06
-7.52981e-05
-8.78864e-06
-6.65521e-05
-8.74592e-06
-5.78928e-05
-8.65934e-06
-4.93894e-05
-8.50332e-06
-4.11339e-05
-8.25544e-06
-3.32293e-05
-7.90465e-06
-2.57768e-05
-7.45257e-06
-1.88708e-05
-6.90597e-06
-1.2604e-05
-6.26671e-06
-7.07503e-06
-5.52894e-06
-2.38921e-06
-4.68587e-06
1.34888e-06
-3.73804e-06
4.04441e-06
-2.69548e-06
5.62026e-06
-1.57589e-06
6.03279e-06
-4.12525e-07
5.30851e-06
7.24383e-07
3.61132e-06
1.69717e-06
1.39129e-06
2.21996e-06
1.39128e-06
9.3006e-06
-1.05196e-05
1.19593e-05
2.61506e-06
8.66461e-06
3.84825e-06
3.7829e-06
6.97731e-06
-3.59186e-06
1.04339e-05
-1.32802e-05
1.38031e-05
-2.50193e-05
1.68895e-05
-3.85919e-05
1.94739e-05
-5.36665e-05
2.15463e-05
-6.99315e-05
2.3036e-05
-8.70733e-05
2.39804e-05
-0.000104825
2.43794e-05
-0.000122914
2.43825e-05
-0.000141167
2.41157e-05
-0.000159447
2.36807e-05
-0.000177652
2.31741e-05
-0.000195765
2.26948e-05
-0.000213832
2.23452e-05
-0.00023189
2.21783e-05
-0.00024998
2.22276e-05
-0.000268194
2.25045e-05
-0.000286606
2.2949e-05
-0.00030521
2.3478e-05
-0.000323975
2.40219e-05
-0.00034287
2.44996e-05
-0.000361811
2.48203e-05
-0.000380654
2.49142e-05
-0.000399257
2.47536e-05
-0.000417513
2.43567e-05
-0.000435312
2.37682e-05
-0.000452545
2.30254e-05
-0.000469123
2.21504e-05
-0.000484992
2.11711e-05
-0.000500118
2.01323e-05
-0.000514465
1.90752e-05
-0.000528005
1.80149e-05
-0.000540729
1.69466e-05
-0.000552642
1.58688e-05
-0.000563744
1.47928e-05
-0.000574028
1.37278e-05
-0.00058348
1.2665e-05
-0.000592086
1.1583e-05
-0.000599841
1.0469e-05
-0.000606744
9.33512e-06
-0.000612801
8.21627e-06
-0.000618027
7.15144e-06
-0.00062245
6.16692e-06
-0.000626111
5.27172e-06
-0.000629055
4.4606e-06
-0.000631317
3.71464e-06
-0.000632905
2.99778e-06
-0.000633801
2.25619e-06
-0.000633952
1.42637e-06
-0.000633284
4.509e-07
-0.00063171
-7.06048e-07
-0.000629145
-2.05028e-06
-0.00062551
-3.55745e-06
-0.000620747
-5.17994e-06
-0.000614825
-6.85908e-06
-0.000607734
-8.54074e-06
-0.000599484
-1.01906e-05
-0.000590094
-1.18027e-05
-0.000579575
-1.3397e-05
-0.000567929
-1.50064e-05
-0.000555148
-1.66576e-05
-0.000541223
-1.83555e-05
-0.000526153
-2.00793e-05
-0.00050996
-2.17896e-05
-0.000492685
-2.34383e-05
-0.000474395
-2.49783e-05
-0.000455179
-2.63712e-05
-0.000435136
-2.75935e-05
-0.000414367
-2.86408e-05
-0.000392974
-2.95249e-05
-0.000371051
-3.0264e-05
-0.000348689
-3.08715e-05
-0.000325978
-3.13501e-05
-0.000303013
-3.16963e-05
-0.00027989
-3.19081e-05
-0.000256706
-3.19911e-05
-0.000233558
-3.19541e-05
-0.000210549
-3.17979e-05
-0.00018779
-3.15044e-05
-0.000165416
-3.1034e-05
-0.000143583
-3.0336e-05
-0.000122473
-2.9365e-05
-0.000102283
-2.80948e-05
-8.32161e-05
-2.65195e-05
-6.548e-05
-2.46421e-05
-4.92851e-05
-2.24616e-05
-3.48416e-05
-1.99724e-05
-2.23549e-05
-1.71725e-05
-1.20182e-05
-1.40747e-05
-3.99485e-06
-1.07189e-05
1.60694e-06
-7.17764e-06
4.76622e-06
-3.57168e-06
5.6005e-06
-1.09896e-07
4.43381e-06
2.86398e-06
1.9733e-06
4.68072e-06
3.36451e-06
3.55506e-06
-1.40746e-05
9.72112e-06
-3.55122e-06
9.26983e-06
4.29952e-06
4.43063e-06
1.18164e-05
-4.21341e-06
1.90781e-05
-1.63793e-05
2.59688e-05
-3.16871e-05
3.21973e-05
-4.99543e-05
3.7741e-05
-7.08177e-05
4.24096e-05
-9.40608e-05
4.6279e-05
-0.000119341
4.92608e-05
-0.000146445
5.14828e-05
-0.000175085
5.30225e-05
-0.00020498
5.40111e-05
-0.000235903
5.46034e-05
-0.000267656
5.49277e-05
-0.000300043
5.50818e-05
-0.000332869
5.51703e-05
-0.000366005
5.53147e-05
-0.000399344
5.55663e-05
-0.000432727
5.58881e-05
-0.000466022
5.62435e-05
-0.000499149
5.66055e-05
-0.000532019
5.68916e-05
-0.000564505
5.69858e-05
-0.000596494
5.68092e-05
-0.000627901
5.63208e-05
-0.000658641
5.54938e-05
-0.000688612
5.43281e-05
-0.000717706
5.28619e-05
-0.000745827
5.1147e-05
-0.0007729
4.92232e-05
-0.000798854
4.71253e-05
-0.00082362
4.48978e-05
-0.000847132
4.25876e-05
-0.000869342
4.02249e-05
-0.000890216
3.78207e-05
-0.000909728
3.53802e-05
-0.000927848
3.29132e-05
-0.000944549
3.04288e-05
-0.000959809
2.79247e-05
-0.000973614
2.53883e-05
-0.000985958
2.28128e-05
-0.000996834
2.02106e-05
-0.00100623
1.76144e-05
-0.00101414
1.50633e-05
-0.00102056
1.25881e-05
-0.0010255
1.02022e-05
-0.00102894
7.90107e-06
-0.00103088
5.66109e-06
-0.00103132
3.43885e-06
-0.00103024
1.17486e-06
-0.00102762
-1.19658e-06
-0.00102344
-3.73254e-06
-0.00101767
-6.46755e-06
-0.00101032
-9.40629e-06
-0.00100135
-1.25234e-05
-0.000990763
-1.5769e-05
-0.000978541
-1.90811e-05
-0.000964681
-2.24004e-05
-0.000949186
-2.56858e-05
-0.000932066
-2.89226e-05
-0.000913341
-3.21217e-05
-0.000893041
-3.53067e-05
-0.000871203
-3.84961e-05
-0.00084787
-4.16881e-05
-0.000823093
-4.48562e-05
-0.000796927
-4.79558e-05
-0.000769433
-5.09318e-05
-0.000740683
-5.37283e-05
-0.000710758
-5.6297e-05
-0.000679745
-5.86058e-05
-0.000647745
-6.0641e-05
-0.000614865
-6.24047e-05
-0.000581223
-6.3906e-05
-0.000546944
-6.51512e-05
-0.000512156
-6.61374e-05
-0.000476998
-6.68542e-05
-0.000441615
-6.72916e-05
-0.000406162
-6.74442e-05
-0.000370809
-6.73069e-05
-0.000335742
-6.68651e-05
-0.00030116
-6.60861e-05
-0.000267275
-6.49188e-05
-0.00023431
-6.33016e-05
-0.000202497
-6.11779e-05
-0.000172083
-5.85091e-05
-0.000143326
-5.52762e-05
-0.000116496
-5.14717e-05
-9.18672e-05
-4.70907e-05
-6.9706e-05
-4.21337e-05
-5.02637e-05
-3.66148e-05
-3.37625e-05
-3.05758e-05
-2.03773e-05
-2.41041e-05
-1.02109e-05
-1.73439e-05
-3.25398e-06
-1.05287e-05
6.55037e-07
-4.0189e-06
1.89073e-06
1.62837e-06
1.1535e-06
5.418e-06
4.51798e-06
3.38982e-06
-1.74643e-05
7.36e-06
-7.52149e-06
5.9385e-06
5.72086e-06
-6.11824e-07
1.83666e-05
-1.18405e-05
3.03067e-05
-2.73592e-05
4.14875e-05
-4.69796e-05
5.18176e-05
-7.03875e-05
6.11491e-05
-9.73369e-05
6.9359e-05
-0.000127555
7.64974e-05
-0.000160792
8.24975e-05
-0.000196741
8.74314e-05
-0.000235091
9.13723e-05
-0.00027554
9.44606e-05
-0.000317768
9.68306e-05
-0.000361432
9.85922e-05
-0.000406249
9.98988e-05
-0.000451956
0.000100878
-0.000498235
0.000101593
-0.000544778
0.00010211
-0.000591362
0.000102472
-0.000637782
0.000102663
-0.000683813
0.000102637
-0.000729259
0.000102338
-0.000773979
0.000101706
-0.000817855
0.000100685
-0.000860767
9.92329e-05
-0.00090261
9.73372e-05
-0.000943296
9.50138e-05
-0.000982733
9.22994e-05
-0.00102082
8.92362e-05
-0.00105747
8.58664e-05
-0.00109258
8.22376e-05
-0.00112608
7.84026e-05
-0.0011579
7.44093e-05
-0.00118797
7.02907e-05
-0.00121622
6.60672e-05
-0.00124259
6.17559e-05
-0.00126705
5.73744e-05
-0.00128956
5.29358e-05
-0.00131008
4.84427e-05
-0.00132858
4.38908e-05
-0.00134505
3.92808e-05
-0.00135947
3.46288e-05
-0.00137182
2.99648e-05
-0.00138208
2.53235e-05
-0.00139022
2.07322e-05
-0.00139622
1.62046e-05
-0.00140006
1.17369e-05
-0.00140171
7.308e-06
-0.00140115
2.87917e-06
-0.00139837
-1.60058e-06
-0.00139338
-6.18583e-06
-0.00138619
-1.09224e-05
-0.00137682
-1.58374e-05
-0.0013653
-2.09324e-05
-0.00135164
-2.61833e-05
-0.00133586
-3.15446e-05
-0.00131798
-3.69588e-05
-0.00129801
-4.23702e-05
-0.00127596
-4.7736e-05
-0.00125185
-5.30338e-05
-0.00122571
-5.82611e-05
-0.00119759
-6.34252e-05
-0.00116756
-6.85287e-05
-0.00113569
-7.35594e-05
-0.00110206
-7.84867e-05
-0.00106675
-8.32644e-05
-0.00102985
-8.78366e-05
-0.000991429
-9.21456e-05
-0.000951588
-9.61386e-05
-0.000910419
-9.97746e-05
-0.000868032
-0.000103028
-0.000824549
-0.000105887
-0.000780111
-0.000108345
-0.00073487
-0.000110392
-0.000688994
-0.000112013
-0.000642661
-0.000113188
-0.000596059
-0.000113894
-0.000549395
-0.000114108
-0.000502898
-0.000113805
-0.000456813
-0.00011295
-0.000411402
-0.000111497
-0.000366938
-0.000109383
-0.000323698
-0.000106541
-0.000281971
-0.000102905
-0.000242051
-9.84293e-05
-0.000204244
-9.30833e-05
-0.000168866
-8.68493e-05
-0.000136236
-7.97205e-05
-0.000106662
-7.17077e-05
-8.04272e-05
-6.285e-05
-5.77743e-05
-5.32287e-05
-3.88937e-05
-4.29846e-05
-2.38907e-05
-3.23468e-05
-1.27559e-05
-2.16634e-05
-5.32283e-06
-1.14519e-05
-1.23187e-06
-2.46262e-06
1.45247e-07
4.04089e-06
4.66326e-06
2.46618e-06
-1.99305e-05
4.58569e-06
-9.64103e-06
8.42208e-07
9.4645e-06
-8.64604e-06
2.78547e-05
-2.35021e-05
4.51628e-05
-4.33799e-05
6.13653e-05
-6.80343e-05
7.64721e-05
-9.71812e-05
9.0296e-05
-0.000130615
0.000102793
-0.000167985
0.000113868
-0.000209024
0.000123536
-0.000253415
0.000131822
-0.000300823
0.00013878
-0.000350861
0.000144498
-0.000403157
0.000149127
-0.000457357
0.000152793
-0.000513062
0.000155603
-0.000569874
0.000157689
-0.000627445
0.000159164
-0.000685433
0.000160098
-0.000743488
0.000160527
-0.000801299
0.000160474
-0.000858609
0.000159946
-0.00091519
0.000158919
-0.000970836
0.000157353
-0.00102537
0.000155223
-0.00107866
0.000152522
-0.00113058
0.000149258
-0.00118102
0.000145451
-0.00122986
0.000141139
-0.00127699
0.000136368
-0.00132232
0.000131189
-0.00136573
0.000125657
-0.00140715
0.000119823
-0.00144648
0.000113737
-0.00148363
0.000107439
-0.00151852
0.000100959
-0.00155109
9.43249e-05
-0.00158128
8.75623e-05
-0.00160903
8.06887e-05
-0.0016343
7.3713e-05
-0.00165705
6.66399e-05
-0.00167725
5.9479e-05
-0.00169487
5.22502e-05
-0.00170989
4.49821e-05
-0.00172227
3.77049e-05
-0.00173198
3.04427e-05
-0.00173898
2.32084e-05
-0.00174325
1.60011e-05
-0.00174475
8.80548e-06
-0.00174346
1.5932e-06
-0.00173939
-5.67332e-06
-0.00173254
-1.30333e-05
-0.00172294
-2.05184e-05
-0.00171064
-2.81455e-05
-0.00169566
-3.5912e-05
-0.00167805
-4.37941e-05
-0.00165784
-5.17503e-05
-0.00163507
-5.97284e-05
-0.00160976
-6.76765e-05
-0.00158195
-7.55514e-05
-0.00155166
-8.33236e-05
-0.00151894
-9.09771e-05
-0.00148386
-9.85029e-05
-0.00144651
-0.000105889
-0.00140695
-0.00011311
-0.00136531
-0.00012013
-0.00132168
-0.000126901
-0.00127615
-0.000133366
-0.00122883
-0.000139465
-0.00117983
-0.000145139
-0.00112926
-0.000150341
-0.00107725
-0.000155033
-0.00102396
-0.000159185
-0.00096953
-0.000162772
-0.000914156
-0.000165766
-0.000858033
-0.000168136
-0.000801376
-0.000169845
-0.000744416
-0.000170853
-0.000687404
-0.00017112
-0.000630612
-0.000170597
-0.000574331
-0.000169231
-0.000518869
-0.000166959
-0.000464546
-0.000163706
-0.00041169
-0.000159397
-0.000360633
-0.000153961
-0.00031172
-0.000147342
-0.000265303
-0.000139501
-0.000221737
-0.000130415
-0.000181377
-0.000120081
-0.000144563
-0.000108522
-0.000111609
-9.5804e-05
-8.27862e-05
-8.20514e-05
-5.83066e-05
-6.74641e-05
-3.82942e-05
-5.23593e-05
-2.27647e-05
-3.71929e-05
-1.15881e-05
-2.26285e-05
-4.46231e-06
-9.58852e-06
-8.63307e-07
4.41971e-07
3.79992e-06
1.62184e-06
-2.15523e-05
1.50941e-06
-9.52868e-06
-5.16133e-06
1.6135e-05
-1.83349e-05
4.10283e-05
-3.74423e-05
6.42704e-05
-6.21666e-05
8.60896e-05
-9.22067e-05
0.000106512
-0.000127354
0.000125443
-0.000167305
0.000142744
-0.000211749
0.000158312
-0.000260365
0.000172153
-0.000312768
0.000184225
-0.000368594
0.000194607
-0.000427469
0.000203374
-0.000488945
0.000210603
-0.000552575
0.000216423
-0.000617947
0.000220976
-0.000684642
0.000224384
-0.000752225
0.000226748
-0.000820286
0.000228159
-0.000888451
0.000228692
-0.000956376
0.000228399
-0.00102374
0.00022731
-0.00109026
0.000225438
-0.00115569
0.000222787
-0.00121984
0.000219371
-0.00128253
0.000215209
-0.00134359
0.000210322
-0.00140289
0.000204746
-0.00146028
0.000198533
-0.00151565
0.000191738
-0.00156888
0.000184419
-0.00161986
0.000176632
-0.00166847
0.000168434
-0.00171461
0.000159879
-0.00175819
0.000151015
-0.00179911
0.000141882
-0.0018373
0.000132515
-0.00187268
0.000122948
-0.0019052
0.000113204
-0.00193479
0.0001033
-0.0019614
9.32515e-05
-0.00198499
8.30745e-05
-0.00200554
7.27932e-05
-0.00202299
6.24366e-05
-0.00203732
5.20334e-05
-0.00204848
4.16067e-05
-0.00205645
3.117e-05
-0.00206117
2.07263e-05
-0.00206263
1.02681e-05
-0.00206082
-2.21119e-07
-0.00205573
-1.07638e-05
-0.00204738
-2.13832e-05
-0.0020358
-3.20968e-05
-0.00202103
-4.29111e-05
-0.00200313
-5.38177e-05
-0.00198213
-6.47915e-05
-0.00195809
-7.57925e-05
-0.00193105
-8.67717e-05
-0.00190104
-9.76789e-05
-0.00186813
-0.000108469
-0.00183234
-0.000119107
-0.00179375
-0.000129565
-0.00175244
-0.000139817
-0.00170849
-0.000149838
-0.00166201
-0.000159593
-0.0016131
-0.000169037
-0.00156188
-0.000178116
-0.00150848
-0.000186772
-0.001453
-0.000194939
-0.00139559
-0.000202553
-0.00133638
-0.000209555
-0.00127552
-0.000215895
-0.00121317
-0.000221527
-0.00114954
-0.000226406
-0.00108482
-0.000230482
-0.00101925
-0.000233706
-0.000953076
-0.000236022
-0.000886557
-0.000237373
-0.000819983
-0.000237693
-0.000753665
-0.000236915
-0.000687931
-0.000234965
-0.000623126
-0.000231764
-0.000559607
-0.000227225
-0.000497743
-0.000221261
-0.000437911
-0.000213793
-0.000380494
-0.000204758
-0.000325884
-0.000194112
-0.000274471
-0.000181828
-0.000226642
-0.000167909
-0.000182771
-0.000152393
-0.000143201
-0.000135374
-0.000108235
-0.000117018
-7.81128e-05
-9.75863e-05
-5.30036e-05
-7.74684e-05
-3.2968e-05
-5.72285e-05
-1.79405e-05
-3.7656e-05
-7.7e-06
-1.9829e-05
-1.85745e-06
-5.40062e-06
1.94242e-06
8.11451e-07
-2.23639e-05
-1.75479e-06
-6.96239e-06
-1.17277e-05
2.6108e-05
-2.87962e-05
5.80966e-05
-5.24063e-05
8.78806e-05
-8.21917e-05
0.000115875
-0.000117787
0.000142108
-0.000158923
0.000166579
-0.000205298
0.000189119
-0.000256599
0.000209613
-0.000312441
0.000227995
-0.000372447
0.00024423
-0.000436182
0.000258342
-0.000503203
0.000270395
-0.00057307
0.000280469
-0.000645319
0.000288672
-0.000719473
0.00029513
-0.000795062
0.000299973
-0.000871634
0.000303319
-0.000948753
0.000305278
-0.00102601
0.000305947
-0.00110301
0.000305402
-0.00117941
0.000303709
-0.00125489
0.000300919
-0.00132918
0.000297077
-0.00140204
0.000292229
-0.00147325
0.000286418
-0.00154262
0.000279692
-0.00160998
0.000272107
-0.00167517
0.00026373
-0.00173806
0.000254627
-0.00179851
0.000244862
-0.00185637
0.000234499
-0.00191154
0.000223604
-0.0019639
0.000212238
-0.00201334
0.000200456
-0.00205977
0.000188306
-0.00210308
0.000175832
-0.00214321
0.000163073
-0.00218007
0.000150064
-0.0022136
0.00013683
-0.00224374
0.000123394
-0.00227045
0.000109781
-0.00229367
9.6018e-05
-0.00231338
8.21375e-05
-0.00232951
6.81688e-05
-0.00234204
5.41365e-05
-0.00235093
4.00568e-05
-0.00235614
2.59379e-05
-0.00235765
1.17809e-05
-0.00235546
-2.41829e-06
-0.00234955
-1.66676e-05
-0.00233996
-3.09753e-05
-0.00232671
-4.53454e-05
-0.00230985
-5.97742e-05
-0.00228942
-7.42466e-05
-0.00226548
-8.87343e-05
-0.00223807
-0.000103196
-0.00220726
-0.000117582
-0.0021731
-0.000131843
-0.00213564
-0.000145931
-0.00209494
-0.000159803
-0.00205108
-0.00017342
-0.00200415
-0.000186746
-0.00195425
-0.00019974
-0.00190149
-0.000212356
-0.00184599
-0.00022454
-0.00178787
-0.000236233
-0.00172727
-0.000247367
-0.00166434
-0.000257871
-0.00159922
-0.000267673
-0.00153207
-0.000276703
-0.00146307
-0.000284896
-0.00139241
-0.000292189
-0.0013203
-0.000298514
-0.00124698
-0.000303803
-0.0011727
-0.000307985
-0.00109774
-0.000310986
-0.00102239
-0.000312723
-0.00094697
-0.000313113
-0.00087182
-0.000312065
-0.000797299
-0.000309486
-0.000723785
-0.000305278
-0.00065167
-0.000299341
-0.000581355
-0.000291576
-0.000513252
-0.000281895
-0.000447782
-0.000270229
-0.000385367
-0.000256526
-0.000326436
-0.00024076
-0.000271404
-0.00022294
-0.000220676
-0.000203122
-0.000174626
-0.000181424
-0.000133592
-0.000158051
-9.78602e-05
-0.000133318
-6.76483e-05
-0.00010768
-4.30809e-05
-8.17958e-05
-2.4181e-05
-5.65559e-05
-1.08331e-05
-3.31769e-05
-2.79625e-06
-1.34376e-05
-8.53774e-07
-1.76093e-07
-2.21878e-05
-5.22745e-06
-1.91104e-06
-1.84915e-05
3.9372e-05
-3.9547e-05
7.91522e-05
-6.77095e-05
0.000116043
-0.000102493
0.000150659
-0.000143575
0.00018319
-0.000190597
0.000213601
-0.000243225
0.000241747
-0.000301114
0.000267502
-0.000363844
0.000290724
-0.000430999
0.000311386
-0.000502135
0.000329478
-0.000576766
0.000345026
-0.000654405
0.000358108
-0.000734566
0.000368832
-0.000816753
0.000377318
-0.000900473
0.000383693
-0.000985241
0.000388087
-0.00107059
0.000390631
-0.00115609
0.000391447
-0.00124134
0.000390643
-0.00132594
0.000388314
-0.00140957
0.000384546
-0.00149191
0.000379417
-0.00157269
0.000373007
-0.00165166
0.00036539
-0.00172861
0.000356641
-0.00180334
0.000346837
-0.00187567
0.000336061
-0.00194543
0.000324392
-0.00201248
0.000311905
-0.00207665
0.000298677
-0.00213783
0.000284782
-0.00219588
0.000270291
-0.0022507
0.000255268
-0.00230216
0.000239767
-0.00235017
0.000223843
-0.00239464
0.000207543
-0.00243548
0.00019091
-0.00247263
0.000173979
-0.00250602
0.000156782
-0.00253559
0.00013935
-0.00256129
0.000121718
-0.00258307
0.000103922
-0.0026009
8.59923e-05
-0.00261472
6.79582e-05
-0.0026245
4.98402e-05
-0.00263022
3.16531e-05
-0.00263184
1.34075e-05
-0.00262937
-4.88874e-06
-0.00262281
-2.32301e-05
-0.00261218
-4.16111e-05
-0.0025975
-6.00239e-05
-0.00257882
-7.84547e-05
-0.00255618
-9.68804e-05
-0.00252965
-0.000115267
-0.00249927
-0.000133571
-0.00246512
-0.00015174
-0.00242724
-0.000169721
-0.00238571
-0.000187462
-0.0023406
-0.000204914
-0.00229199
-0.000222027
-0.00223999
-0.000238751
-0.00218469
-0.000255036
-0.00212622
-0.000270822
-0.00206472
-0.000286047
-0.00200031
-0.000300641
-0.00193315
-0.000314527
-0.00186339
-0.000327626
-0.00179121
-0.000339855
-0.00171678
-0.000351131
-0.0016403
-0.000361374
-0.00156199
-0.000370502
-0.00148208
-0.000378427
-0.00140082
-0.00038506
-0.0013185
-0.000390306
-0.00123542
-0.000394071
-0.00115189
-0.000396252
-0.00106826
-0.00039674
-0.000984899
-0.000395425
-0.000902192
-0.000392193
-0.000820542
-0.000386928
-0.00074037
-0.000379513
-0.000662106
-0.000369839
-0.000586194
-0.000357807
-0.000513086
-0.000343338
-0.000443236
-0.000326376
-0.0003771
-0.000306896
-0.000315128
-0.000284912
-0.000257754
-0.000260496
-0.000205393
-0.000233785
-0.000158421
-0.000205023
-0.000117173
-0.000174565
-8.19256e-05
-0.000142928
-5.28862e-05
-0.000110835
-3.01698e-05
-7.92723e-05
-1.37842e-05
-4.95625e-05
-3.65001e-06
-2.35717e-05
-4.50375e-06
-1.20632e-06
-2.09815e-05
-8.79554e-06
5.67804e-06
-2.53752e-05
5.59517e-05
-5.03137e-05
0.000104091
-8.28468e-05
0.000148576
-0.000122505
0.000190316
-0.000168886
0.000229571
-0.000221589
0.000266303
-0.000280224
0.000300383
-0.000344383
0.000331662
-0.000413656
0.000359996
-0.000487578
0.000385308
-0.000565654
0.000407555
-0.000647384
0.000426755
-0.000732259
0.000442984
-0.000819765
0.000456338
-0.000909379
0.000466931
-0.00100058
0.000474898
-0.00109288
0.000480384
-0.00118579
0.00048354
-0.00127885
0.000484511
-0.00137164
0.000483431
-0.00146375
0.000480427
-0.00155482
0.000475617
-0.00164452
0.000469114
-0.00173254
0.00046103
-0.00181862
0.000451469
-0.00190252
0.000440532
-0.001984
0.000428319
-0.00206287
0.000414931
-0.00213894
0.000400463
-0.00221204
0.000385007
-0.00228201
0.00036865
-0.00234871
0.000351481
-0.002412
0.000333579
-0.00247175
0.000315016
-0.00252784
0.00029586
-0.00258017
0.000276172
-0.00262864
0.00025601
-0.00267315
0.000235427
-0.00271364
0.000214465
-0.00275002
0.000193165
-0.00278224
0.000171568
-0.00281024
0.000149716
-0.00283396
0.000127647
-0.00285337
0.0001054
-0.00286842
8.30064e-05
-0.00287907
6.04928e-05
-0.0028853
3.78824e-05
-0.00288709
1.51957e-05
-0.00288443
-7.54799e-06
-0.00287733
-3.03308e-05
-0.00286581
-5.31352e-05
-0.00284989
-7.5942e-05
-0.00282962
-9.87274e-05
-0.00280504
-0.00012146
-0.0027762
-0.0001441
-0.00274318
-0.000166596
-0.00270603
-0.000188892
-0.00266482
-0.000210933
-0.00261962
-0.000232658
-0.00257052
-0.000254012
-0.00251762
-0.000274933
-0.002461
-0.000295363
-0.0024008
-0.000315237
-0.00233714
-0.000334486
-0.00227015
-0.000353033
-0.00219999
-0.000370799
-0.00212682
-0.000387698
-0.00205082
-0.000403635
-0.00197215
-0.000418518
-0.00189103
-0.00043225
-0.00180767
-0.000444734
-0.00172231
-0.000455867
-0.00163519
-0.000465543
-0.0015466
-0.000473648
-0.00145684
-0.000480068
-0.00136623
-0.000484686
-0.0012751
-0.000487375
-0.00118384
-0.000488004
-0.00109282
-0.000486442
-0.00100246
-0.000482553
-0.000913187
-0.000476203
-0.000825442
-0.000467258
-0.000739686
-0.000455596
-0.000656387
-0.000441106
-0.000576026
-0.000423699
-0.000499085
-0.000403316
-0.000426051
-0.000379929
-0.000357406
-0.000353558
-0.000293619
-0.000324283
-0.000235141
-0.000292264
-0.000182395
-0.000257769
-0.000135775
-0.000221185
-9.56239e-05
-0.000183079
-6.22315e-05
-0.000144228
-3.58163e-05
-0.000105687
-1.65163e-05
-6.88625e-05
-4.41515e-06
-3.56729e-05
-8.91894e-06
-2.33831e-06
-1.86432e-05
-1.24446e-05
1.57843e-05
-3.21552e-05
7.56623e-05
-6.07995e-05
0.000132735
-9.75589e-05
0.000185336
-0.000141882
0.00023464
-0.000193306
0.000280995
-0.000251407
0.000324404
-0.000315767
0.000364743
-0.000385912
0.000401807
-0.00046138
0.000435464
-0.000541674
0.000465602
-0.000626281
0.000492162
-0.000714678
0.000515153
-0.000806328
0.000534633
-0.000900682
0.000550692
-0.0009972
0.000563448
-0.00109535
0.000573049
-0.00119462
0.000579657
-0.00129452
0.000583438
-0.00139457
0.000584557
-0.00149431
0.000583175
-0.00159334
0.000579451
-0.00169126
0.000573537
-0.00178772
0.000565579
-0.00188241
0.000555717
-0.00197502
0.000544084
-0.0020653
0.000530807
-0.00215299
0.000516012
-0.00223788
0.000499818
-0.00231976
0.000482342
-0.00239844
0.00046369
-0.00247376
0.000443966
-0.00254554
0.00042327
-0.00261366
0.000401694
-0.00267796
0.00037932
-0.00273833
0.000356228
-0.00279465
0.000332489
-0.00284681
0.000308172
-0.00289472
0.000283337
-0.0029383
0.000258039
-0.00297746
0.000232326
-0.00301214
0.000206248
-0.00304227
0.000179854
-0.00306782
0.00015319
-0.00308872
0.0001263
-0.00310493
9.92211e-05
-0.00311643
7.19873e-05
-0.00312317
4.46304e-05
-0.00312516
1.71811e-05
-0.00312238
-1.03301e-05
-0.00311483
-3.78739e-05
-0.00310255
-6.54222e-05
-0.00308554
-9.2945e-05
-0.00306386
-0.000120408
-0.00303755
-0.000147772
-0.00300666
-0.000174987
-0.00297126
-0.000201997
-0.00293141
-0.000228741
-0.00288719
-0.000255153
-0.00283868
-0.000281171
-0.00278596
-0.000306727
-0.00272915
-0.000331752
-0.00266833
-0.000356175
-0.00260365
-0.000379918
-0.00253524
-0.000402902
-0.00246323
-0.000425037
-0.0023878
-0.000446231
-0.00230911
-0.000466384
-0.00222736
-0.000485393
-0.00214273
-0.000503147
-0.00205544
-0.000519536
-0.00196573
-0.000534445
-0.00187385
-0.000547751
-0.00178006
-0.000559326
-0.00168468
-0.000569035
-0.001588
-0.000576742
-0.00149038
-0.000582304
-0.00139218
-0.000585575
-0.00129379
-0.0005864
-0.00119561
-0.000584624
-0.00109807
-0.000580091
-0.00100162
-0.000572647
-0.000906742
-0.000562141
-0.000813901
-0.000548437
-0.000723597
-0.00053141
-0.000636336
-0.00051096
-0.000552631
-0.000487021
-0.000472999
-0.000459562
-0.00039795
-0.000428606
-0.000327992
-0.00039424
-0.000263617
-0.00035664
-0.000205301
-0.000316084
-0.000153493
-0.000272994
-0.000108609
-0.000227963
-7.10286e-05
-0.000181808
-4.10773e-05
-0.000135639
-1.90195e-05
-9.09203e-05
-5.09718e-06
-4.95952e-05
-1.40161e-05
-3.53688e-06
-1.51063e-05
-1.61032e-05
2.83505e-05
-3.8831e-05
9.839e-05
-7.09296e-05
0.000164834
-0.000111646
0.000226052
-0.000160361
0.000283355
-0.000216585
0.000337218
-0.000279826
0.000387646
-0.000349597
0.000434514
-0.000425407
0.000477617
-0.000506743
0.000516799
-0.000593069
0.000551928
-0.000683846
0.000582938
-0.00077852
0.000609827
-0.000876526
0.000632639
-0.000977297
0.000651463
-0.00108028
0.000666429
-0.00118492
0.000677694
-0.0012907
0.000685437
-0.0013971
0.000689839
-0.00150363
0.000691088
-0.00160983
0.000689372
-0.00171526
0.000684883
-0.00181953
0.000677802
-0.00192225
0.000668306
-0.0020231
0.000656563
-0.00212175
0.000642736
-0.00221792
0.000626979
-0.00231135
0.000609442
-0.0024018
0.000590267
-0.00248905
0.00056959
-0.0025729
0.000547536
-0.00265316
0.000524225
-0.00272966
0.000499771
-0.00280224
0.000474278
-0.00287077
0.000447844
-0.0029351
0.000420559
-0.00299511
0.000392505
-0.0030507
0.000363762
-0.00310177
0.0003344
-0.00314821
0.000304484
-0.00318996
0.000274072
-0.00322693
0.000243223
-0.00325907
0.000211994
-0.00328632
0.00018044
-0.00330863
0.000148609
-0.00332596
0.000116547
-0.00333827
8.42963e-05
-0.00334553
5.18969e-05
-0.00334774
1.93902e-05
-0.00334489
-1.31829e-05
-0.00333698
-4.57826e-05
-0.00332403
-7.83701e-05
-0.00330607
-0.000110905
-0.00328314
-0.000143344
-0.00325527
-0.000175637
-0.00322253
-0.000207726
-0.00318498
-0.000239547
-0.00314269
-0.000271031
-0.00309574
-0.000302107
-0.00304421
-0.000332704
-0.00298819
-0.000362744
-0.0029278
-0.000392147
-0.00286314
-0.000420831
-0.00279435
-0.000448708
-0.00272157
-0.000475683
-0.00264495
-0.000501655
-0.00256466
-0.000526517
-0.00248089
-0.000550157
-0.00239383
-0.000572456
-0.00230369
-0.00059329
-0.00221069
-0.00061253
-0.00211509
-0.000630043
-0.00201716
-0.000645684
-0.00191718
-0.000659306
-0.00181546
-0.000670751
-0.00171235
-0.000679859
-0.00160818
-0.000686466
-0.00150336
-0.000690399
-0.00139828
-0.000691483
-0.00129336
-0.000689539
-0.00118907
-0.000684388
-0.00108586
-0.000675856
-0.000984222
-0.000663776
-0.000884665
-0.000647993
-0.000787706
-0.000628369
-0.000693876
-0.000604791
-0.000603715
-0.000577182
-0.000517768
-0.000545509
-0.000436584
-0.00050979
-0.000360707
-0.000470118
-0.000290673
-0.000426673
-0.000227009
-0.000379748
-0.000170226
-0.000329778
-0.000120815
-0.000277374
-7.92418e-05
-0.000223382
-4.59409e-05
-0.00016894
-2.12983e-05
-0.000115563
-5.70355e-06
-6.51899e-05
-1.97196e-05
-4.81973e-06
-1.02866e-05
-1.97587e-05
4.32895e-05
-4.52641e-05
0.000123895
-8.0594e-05
0.000200163
-0.000125006
0.000270465
-0.00017787
0.000336218
-0.000238608
0.000397956
-0.000306701
0.000455739
-0.0003816
0.000509412
-0.000462779
0.000558797
-0.000549677
0.000603697
-0.00064172
0.000643972
-0.000738335
0.000679553
-0.000838937
0.000710429
-0.00094294
0.000736641
-0.00104976
0.000758283
-0.00115882
0.000775494
-0.00126957
0.000788443
-0.00138146
0.00079732
-0.00149395
0.000802329
-0.00160654
0.000803681
-0.00171876
0.000801596
-0.00183017
0.00079629
-0.00194034
0.000787976
-0.0020489
0.000776858
-0.00215547
0.000763135
-0.00225973
0.000746997
-0.00236138
0.000728627
-0.00246014
0.0007082
-0.00255575
0.000685881
-0.00264799
0.000661825
-0.00273663
0.000636178
-0.00282148
0.000609076
-0.00290236
0.00058065
-0.0029791
0.00055102
-0.00305155
0.000520295
-0.00311957
0.000488578
-0.00318303
0.000455965
-0.00324182
0.000422547
-0.00329582
0.000388403
-0.00334494
0.000353609
-0.00338911
0.000318235
-0.00342823
0.000282349
-0.00346226
0.000246016
-0.00349111
0.000209299
-0.00351476
0.000172254
-0.00353315
0.000134935
-0.00354624
9.7393e-05
-0.00355402
5.96781e-05
-0.00355648
2.18416e-05
-0.00355359
-1.60657e-05
-0.00354538
-5.39941e-05
-0.00353186
-9.18947e-05
-0.00351305
-0.000129717
-0.00348898
-0.000167407
-0.00345972
-0.000204904
-0.0034253
-0.000242142
-0.0033858
-0.000279049
-0.00334128
-0.000315548
-0.00329183
-0.000351559
-0.00323753
-0.000387001
-0.00317849
-0.000421788
-0.00311481
-0.000455829
-0.00304661
-0.000489028
-0.00297403
-0.000521285
-0.00289722
-0.000552494
-0.00281634
-0.000582538
-0.00273156
-0.000611297
-0.00264307
-0.000638642
-0.00255109
-0.000664442
-0.00245582
-0.000688554
-0.00235752
-0.000710832
-0.00225644
-0.000731122
-0.00215287
-0.000749259
-0.0020471
-0.000765074
-0.00193946
-0.000778388
-0.00183031
-0.000789017
-0.00172
-0.00079677
-0.00160895
-0.000801453
-0.00149756
-0.000802867
-0.00138629
-0.000800809
-0.0012756
-0.000795078
-0.00116598
-0.000785476
-0.00105794
-0.000771819
-0.000952
-0.000753934
-0.000848702
-0.000731666
-0.000748604
-0.000704889
-0.000652276
-0.000673511
-0.000560293
-0.000637492