/*--------------------------------*- C++ -*----------------------------------*\
  =========                 |
  \\      /  F ield         | OpenFOAM: The Open Source CFD Toolbox
   \\    /   O peration     | Website:  https://openfoam.org
    \\  /    A nd           | Version:  11
     \\/     M anipulation  |
\*---------------------------------------------------------------------------*/
FoamFile
{
    format      ascii;
    class       volVectorField;
    location    "1.1";
    object      U;
}
// * * * * * * * * * * * * * * * * * * * * * * * * * * * * * * * * * * * * * //

dimensions      [0 1 -1 0 0 0 0];

internalField   nonuniform List<vector> 
10100
(
(8.9079e-05 7.58507e-05 0)
(-2.01808e-06 0.000101851 0)
(-3.47133e-08 3.35985e-05 0)
(-6.82634e-05 2.63291e-05 0)
(-8.51343e-05 2.54989e-05 0)
(-0.000119132 2.81451e-05 0)
(-0.00016432 3.09901e-05 0)
(-0.000219379 3.30958e-05 0)
(-0.000281594 3.42552e-05 0)
(-0.00034811 3.39015e-05 0)
(-0.000416806 3.09946e-05 0)
(-0.000483828 2.61268e-05 0)
(-0.000548584 2.0835e-05 0)
(-0.000609568 1.56806e-05 0)
(-0.000666154 1.10341e-05 0)
(-0.00071793 6.57314e-06 0)
(-0.000765281 2.63361e-06 0)
(-0.000809372 -2.36707e-07 0)
(-0.000851027 -2.06965e-06 0)
(-0.000892024 -2.52663e-06 0)
(-0.000934094 -1.55705e-06 0)
(-0.000977993 2.24354e-07 0)
(-0.00102481 2.47504e-06 0)
(-0.00107554 5.07381e-06 0)
(-0.00113001 7.75667e-06 0)
(-0.00118751 1.03131e-05 0)
(-0.00124737 1.2476e-05 0)
(-0.00130867 1.38006e-05 0)
(-0.00137019 1.41686e-05 0)
(-0.00143077 1.40402e-05 0)
(-0.00148964 1.38534e-05 0)
(-0.00154641 1.35277e-05 0)
(-0.00160081 1.28163e-05 0)
(-0.00165254 1.18436e-05 0)
(-0.00170139 1.10039e-05 0)
(-0.00174736 1.04638e-05 0)
(-0.00179062 1.00191e-05 0)
(-0.00183139 9.42902e-06 0)
(-0.00186971 8.72245e-06 0)
(-0.00190555 8.11709e-06 0)
(-0.00193888 7.72254e-06 0)
(-0.00196972 7.41029e-06 0)
(-0.00199804 6.97325e-06 0)
(-0.00202374 6.36378e-06 0)
(-0.00204677 5.75859e-06 0)
(-0.00206725 5.41742e-06 0)
(-0.00208554 5.49555e-06 0)
(-0.00210213 5.9753e-06 0)
(-0.00211758 6.74146e-06 0)
(-0.00213233 7.67915e-06 0)
(-0.00214669 8.68962e-06 0)
(-0.00216067 9.65609e-06 0)
(-0.00217403 1.0408e-05 0)
(-0.00218617 1.07422e-05 0)
(-0.00219623 1.04942e-05 0)
(-0.00220327 9.60358e-06 0)
(-0.00220636 8.13338e-06 0)
(-0.00220477 6.24875e-06 0)
(-0.00219809 4.16488e-06 0)
(-0.0021862 2.07265e-06 0)
(-0.00216924 7.90941e-08 0)
(-0.00214744 -1.81546e-06 0)
(-0.00212096 -3.70853e-06 0)
(-0.00208978 -5.74789e-06 0)
(-0.00205364 -8.05293e-06 0)
(-0.00201216 -1.06503e-05 0)
(-0.001965 -1.34616e-05 0)
(-0.00191195 -1.63411e-05 0)
(-0.00185307 -1.91278e-05 0)
(-0.00178868 -2.16804e-05 0)
(-0.00171932 -2.38931e-05 0)
(-0.00164567 -2.57087e-05 0)
(-0.00156845 -2.71296e-05 0)
(-0.00148831 -2.82125e-05 0)
(-0.00140584 -2.90412e-05 0)
(-0.0013215 -2.96849e-05 0)
(-0.00123568 -3.01719e-05 0)
(-0.00114874 -3.05002e-05 0)
(-0.00106107 -3.06719e-05 0)
(-0.000973015 -3.07225e-05 0)
(-0.000884868 -3.07194e-05 0)
(-0.000796818 -3.0719e-05 0)
(-0.000709054 -3.07068e-05 0)
(-0.000621902 -3.05723e-05 0)
(-0.000535928 -3.01512e-05 0)
(-0.000451946 -2.92967e-05 0)
(-0.000370927 -2.79344e-05 0)
(-0.0002939 -2.60778e-05 0)
(-0.000221862 -2.37927e-05 0)
(-0.000155765 -2.11231e-05 0)
(-9.65572e-05 -1.80488e-05 0)
(-4.52564e-05 -1.45357e-05 0)
(-2.92544e-06 -1.06076e-05 0)
(2.94302e-05 -6.31655e-06 0)
(5.08937e-05 -1.7088e-06 0)
(6.07598e-05 3.05807e-06 0)
(5.88437e-05 7.63357e-06 0)
(4.61591e-05 1.13565e-05 0)
(2.54576e-05 1.30603e-05 0)
(7.55767e-06 8.19924e-06 0)
(0.00012255 -4.69408e-05 0)
(0.000168132 9.83526e-05 0)
(0.000120469 4.47314e-05 0)
(6.56698e-05 5.09473e-05 0)
(3.45571e-06 6.5557e-05 0)
(-8.19358e-05 8.26999e-05 0)
(-0.000189117 0.000100337 0)
(-0.000315062 0.000113297 0)
(-0.000458561 0.000124226 0)
(-0.000616314 0.000130263 0)
(-0.000783821 0.000132624 0)
(-0.000958599 0.00013041 0)
(-0.001138 0.000125696 0)
(-0.00132001 0.000119162 0)
(-0.00150307 0.000112115 0)
(-0.00168586 0.000105718 0)
(-0.00186724 9.9764e-05 0)
(-0.00204787 9.50611e-05 0)
(-0.00222871 9.27075e-05 0)
(-0.00240943 9.28802e-05 0)
(-0.00259051 9.5272e-05 0)
(-0.00277369 9.93296e-05 0)
(-0.00295922 0.000104508 0)
(-0.00314606 0.000110185 0)
(-0.00333417 0.000115516 0)
(-0.00352361 0.000119758 0)
(-0.00371294 0.000122402 0)
(-0.00390033 0.00012312 0)
(-0.00408479 0.000121964 0)
(-0.00426545 0.000119397 0)
(-0.00444085 0.000115843 0)
(-0.00460985 0.00011141 0)
(-0.00477212 0.00010621 0)
(-0.00492745 0.000100649 0)
(-0.00507517 9.51906e-05 0)
(-0.00521457 8.99554e-05 0)
(-0.00534557 8.4747e-05 0)
(-0.0054686 7.94271e-05 0)
(-0.00558389 7.41205e-05 0)
(-0.00569113 6.90194e-05 0)
(-0.00578985 6.40948e-05 0)
(-0.00587991 5.90902e-05 0)
(-0.00596149 5.37875e-05 0)
(-0.00603479 4.82542e-05 0)
(-0.00609979 4.28415e-05 0)
(-0.00615635 3.79592e-05 0)
(-0.00620453 3.3854e-05 0)
(-0.00624471 3.05575e-05 0)
(-0.0062775 2.79633e-05 0)
(-0.00630346 2.58936e-05 0)
(-0.00632282 2.40767e-05 0)
(-0.00633546 2.21074e-05 0)
(-0.00634089 1.94756e-05 0)
(-0.00633844 1.56816e-05 0)
(-0.00632732 1.03812e-05 0)
(-0.00630669 3.49351e-06 0)
(-0.00627579 -4.77706e-06 0)
(-0.00623395 -1.4011e-05 0)
(-0.00618068 -2.3693e-05 0)
(-0.00611571 -3.33582e-05 0)
(-0.00603902 -4.2732e-05 0)
(-0.00595076 -5.17999e-05 0)
(-0.00585114 -6.07753e-05 0)
(-0.00574026 -6.99787e-05 0)
(-0.0056181 -7.96678e-05 0)
(-0.00548457 -8.99022e-05 0)
(-0.00533957 -0.000100513 0)
(-0.00518316 -0.000111168 0)
(-0.00501566 -0.000121472 0)
(-0.00483765 -0.000131046 0)
(-0.00464993 -0.000139592 0)
(-0.00445344 -0.000146939 0)
(-0.00424918 -0.000153074 0)
(-0.00403816 -0.000158115 0)
(-0.00382134 -0.000162239 0)
(-0.0035997 -0.000165588 0)
(-0.00337414 -0.000168211 0)
(-0.00314556 -0.000170094 0)
(-0.00291486 -0.000171246 0)
(-0.00268304 -0.000171749 0)
(-0.00245109 -0.000171723 0)
(-0.00222001 -0.000171214 0)
(-0.00199087 -0.000170104 0)
(-0.00176486 -0.000168095 0)
(-0.00154346 -0.000164792 0)
(-0.00132835 -0.000159831 0)
(-0.00112138 -0.000153008 0)
(-0.00092457 -0.000144307 0)
(-0.000740008 -0.000133799 0)
(-0.000569827 -0.0001215 0)
(-0.000416139 -0.000107338 0)
(-0.000281026 -9.12518e-05 0)
(-0.000166483 -7.32718e-05 0)
(-7.43361e-05 -5.35909e-05 0)
(-6.07948e-06 -3.26236e-05 0)
(3.75487e-05 -1.10501e-05 0)
(5.67444e-05 9.81996e-06 0)
(5.40823e-05 2.75909e-05 0)
(3.39307e-05 3.74632e-05 0)
(9.98425e-06 2.46896e-05 0)
(5.00895e-05 -8.26085e-05 0)
(9.53565e-05 5.17853e-06 0)
(0.000117489 5.19822e-05 0)
(8.11938e-05 9.9249e-05 0)
(1.0251e-05 0.000147056 0)
(-9.59843e-05 0.000194285 0)
(-0.000234469 0.000236888 0)
(-0.000402511 0.00027433 0)
(-0.000597921 0.000304247 0)
(-0.000819267 0.000328266 0)
(-0.00106265 0.000345345 0)
(-0.00132518 0.000355778 0)
(-0.00160415 0.000360721 0)
(-0.00189756 0.000361954 0)
(-0.00220206 0.000360315 0)
(-0.00251566 0.000357186 0)
(-0.00283723 0.000354075 0)
(-0.00316384 0.00035153 0)
(-0.00349368 0.000350433 0)
(-0.00382645 0.000351568 0)
(-0.0041606 0.000354593 0)
(-0.00449434 0.00035892 0)
(-0.00482682 0.000364126 0)
(-0.00515709 0.000369275 0)
(-0.00548397 0.000373141 0)
(-0.00580647 0.000374913 0)
(-0.00612363 0.000374092 0)
(-0.00643453 0.000370296 0)
(-0.00673832 0.000363552 0)
(-0.00703392 0.000354352 0)
(-0.00732014 0.000343188 0)
(-0.00759614 0.000330312 0)
(-0.00786148 0.000316005 0)
(-0.0081155 0.000300778 0)
(-0.0083572 0.000285152 0)
(-0.00858577 0.000269351 0)
(-0.008801 0.000253347 0)
(-0.00900294 0.000237132 0)
(-0.0091914 0.000220835 0)
(-0.00936578 0.00020458 0)
(-0.00952557 0.000188302 0)
(-0.00967066 0.000171785 0)
(-0.00980124 0.000154899 0)
(-0.00991743 0.000137778 0)
(-0.0100191 0.000120794 0)
(-0.0101058 0.000104371 0)
(-0.0101774 8.88036e-05 0)
(-0.010234 7.41997e-05 0)
(-0.0102758 6.05014e-05 0)
(-0.0103027 4.74881e-05 0)
(-0.0103148 3.47459e-05 0)
(-0.0103118 2.16747e-05 0)
(-0.0102934 7.57543e-06 0)
(-0.0102593 -8.17674e-06 0)
(-0.0102095 -2.59666e-05 0)
(-0.0101438 -4.58568e-05 0)
(-0.0100622 -6.75834e-05 0)
(-0.00996445 -9.0622e-05 0)
(-0.00985051 -0.000114326 0)
(-0.00972022 -0.000138096 0)
(-0.00957348 -0.000161538 0)
(-0.00941035 -0.000184556 0)
(-0.00923101 -0.000207333 0)
(-0.00903574 -0.000230184 0)
(-0.00882489 -0.000253358 0)
(-0.00859889 -0.000276881 0)
(-0.0083582 -0.00030051 0)
(-0.00810332 -0.000323803 0)
(-0.00783484 -0.000346222 0)
(-0.00755345 -0.000367238 0)
(-0.00725992 -0.000386408 0)
(-0.00695507 -0.000403441 0)
(-0.0066398 -0.000418244 0)
(-0.00631511 -0.000430898 0)
(-0.00598219 -0.000441563 0)
(-0.00564228 -0.000450356 0)
(-0.00529665 -0.000457295 0)
(-0.0049466 -0.000462327 0)
(-0.00459351 -0.000465414 0)
(-0.00423889 -0.000466582 0)
(-0.00388438 -0.000465871 0)
(-0.00353176 -0.000463224 0)
(-0.00318298 -0.000458389 0)
(-0.00284014 -0.000450902 0)
(-0.0025054 -0.000440186 0)
(-0.00218099 -0.000425719 0)
(-0.00186924 -0.000407171 0)
(-0.00157269 -0.000384424 0)
(-0.00129405 -0.000357461 0)
(-0.00103608 -0.000326248 0)
(-0.000801496 -0.000290742 0)
(-0.000592898 -0.000250973 0)
(-0.000412681 -0.000207181 0)
(-0.000262892 -0.000159992 0)
(-0.00014501 -0.000110436 0)
(-5.96522e-05 -6.02174e-05 0)
(-6.26793e-06 -1.22234e-05 0)
(1.84109e-05 2.90851e-05 0)
(1.8925e-05 5.51628e-05 0)
(5.85672e-06 4.14363e-05 0)
(3.63131e-05 -0.000173346 0)
(6.98608e-05 -6.16408e-05 0)
(8.71875e-05 4.86344e-05 0)
(4.25785e-05 0.000148949 0)
(-4.94386e-05 0.000242122 0)
(-0.00018523 0.000330388 0)
(-0.000362858 0.000410405 0)
(-0.0005785 0.000482544 0)
(-0.000830701 0.0005443 0)
(-0.00111658 0.000596719 0)
(-0.00143458 0.000639278 0)
(-0.00178169 0.000673472 0)
(-0.00215371 0.000699136 0)
(-0.00254823 0.000717652 0)
(-0.00296261 0.000730957 0)
(-0.0033927 0.000739889 0)
(-0.00383567 0.000745886 0)
(-0.00428924 0.000750491 0)
(-0.0047501 0.000754241 0)
(-0.00521478 0.000757567 0)
(-0.00568087 0.00076084 0)
(-0.00614665 0.00076375 0)
(-0.00660971 0.000765702 0)
(-0.0070674 0.000766123 0)
(-0.00751826 0.000764215 0)
(-0.00796153 0.000759047 0)
(-0.00839585 0.000750048 0)
(-0.00881975 0.000737176 0)
(-0.00923246 0.000720671 0)
(-0.0096333 0.000700806 0)
(-0.0100212 0.000677885 0)
(-0.010395 0.000652336 0)
(-0.010754 0.000624697 0)
(-0.0110975 0.000595485 0)
(-0.0114244 0.000565084 0)
(-0.0117339 0.000533753 0)
(-0.0120254 0.000501702 0)
(-0.0122986 0.00046913 0)
(-0.0125531 0.000436189 0)
(-0.0127882 0.000402917 0)
(-0.0130033 0.000369244 0)
(-0.0131982 0.000335085 0)
(-0.013373 0.000300467 0)
(-0.0135275 0.000265584 0)
(-0.0136617 0.000230746 0)
(-0.0137749 0.000196274 0)
(-0.013867 0.000162421 0)
(-0.0139376 0.000129321 0)
(-0.0139867 9.69703e-05 0)
(-0.0140142 6.51763e-05 0)
(-0.0140198 3.35215e-05 0)
(-0.0140033 1.40674e-06 0)
(-0.0139645 -3.18198e-05 0)
(-0.0139035 -6.67087e-05 0)
(-0.0138205 -0.000103571 0)
(-0.0137158 -0.00014242 0)
(-0.0135897 -0.000182991 0)
(-0.0134426 -0.0002248 0)
(-0.0132744 -0.000267248 0)
(-0.0130852 -0.000309761 0)
(-0.0128751 -0.00035192 0)
(-0.0126442 -0.000393539 0)
(-0.0123928 -0.000434661 0)
(-0.0121214 -0.000475443 0)
(-0.0118304 -0.000515993 0)
(-0.0115206 -0.000556239 0)
(-0.0111929 -0.000595898 0)
(-0.010848 -0.000634518 0)
(-0.0104867 -0.000671546 0)
(-0.0101099 -0.000706411 0)
(-0.00971845 -0.000738601 0)
(-0.00931321 -0.000767742 0)
(-0.00889516 -0.000793634 0)
(-0.00846547 -0.000816226 0)
(-0.00802548 -0.000835542 0)
(-0.00757671 -0.000851591 0)
(-0.00712074 -0.0008643 0)
(-0.00665927 -0.000873522 0)
(-0.00619409 -0.000879106 0)
(-0.00572719 -0.000880928 0)
(-0.00526075 -0.000878852 0)
(-0.00479717 -0.000872636 0)
(-0.004339 -0.000861874 0)
(-0.00388897 -0.000846003 0)
(-0.00344983 -0.00082437 0)
(-0.00302434 -0.000796369 0)
(-0.00261536 -0.000761559 0)
(-0.00222592 -0.00071969 0)
(-0.00185916 -0.00067063 0)
(-0.00151835 -0.000614321 0)
(-0.0012066 -0.000550818 0)
(-0.000926876 -0.00048036 0)
(-0.000681864 -0.000403534 0)
(-0.000473804 -0.000321487 0)
(-0.000304254 -0.000236073 0)
(-0.000173839 -0.000150269 0)
(-8.1998e-05 -6.83667e-05 0)
(-2.51959e-05 2.99025e-06 0)
(2.59344e-07 5.23985e-05 0)
(1.28559e-06 4.80258e-05 0)
(2.86149e-05 -0.000194063 0)
(4.89148e-05 -9.41473e-05 0)
(4.63821e-05 6.9431e-05 0)
(-2.2242e-05 0.000224381 0)
(-0.000146144 0.000369026 0)
(-0.00032129 0.000503024 0)
(-0.000545588 0.000628973 0)
(-0.000815543 0.000743077 0)
(-0.00112903 0.00084511 0)
(-0.00148373 0.000934517 0)
(-0.00187628 0.00101089 0)
(-0.002304 0.00107547 0)
(-0.0027643 0.00112907 0)
(-0.00325252 0.00117207 0)
(-0.0037648 0.00120602 0)
(-0.0042982 0.00123242 0)
(-0.00484889 0.00125224 0)
(-0.00541237 0.00126689 0)
(-0.00598505 0.00127764 0)
(-0.00656384 0.00128489 0)
(-0.00714503 0.00128866 0)
(-0.00772518 0.0012892 0)
(-0.00830144 0.00128663 0)
(-0.0088713 0.00128044 0)
(-0.00943279 0.00126988 0)
(-0.0099842 0.00125455 0)
(-0.0105237 0.00123436 0)
(-0.0110498 0.00120929 0)
(-0.0115617 0.00117938 0)
(-0.0120584 0.00114497 0)
(-0.0125386 0.00110658 0)
(-0.0130011 0.00106473 0)
(-0.013445 0.00101988 0)
(-0.0138696 0.000972483 0)
(-0.0142737 0.000923016 0)
(-0.0146562 0.000871892 0)
(-0.0150164 0.000819421 0)
(-0.0153538 0.000765814 0)
(-0.0156679 0.000711235 0)
(-0.0159579 0.000655808 0)
(-0.016223 0.000599601 0)
(-0.016463 0.000542645 0)
(-0.0166777 0.000485011 0)
(-0.0168669 0.000426869 0)
(-0.0170304 0.000368489 0)
(-0.0171676 0.000310172 0)
(-0.0172781 0.000252173 0)
(-0.0173616 0.00019464 0)
(-0.0174179 0.000137566 0)
(-0.0174468 8.07723e-05 0)
(-0.017448 2.39081e-05 0)
(-0.0174213 -3.35033e-05 0)
(-0.0173667 -9.19512e-05 0)
(-0.0172844 -0.000151825 0)
(-0.0171746 -0.000213332 0)
(-0.0170379 -0.000276452 0)
(-0.0168748 -0.000340938 0)
(-0.0166857 -0.000406363 0)
(-0.0164708 -0.000472197 0)
(-0.0162305 -0.000537909 0)
(-0.0159649 -0.000603068 0)
(-0.0156742 -0.000667414 0)
(-0.015359 -0.000730851 0)
(-0.0150198 -0.000793363 0)
(-0.0146573 -0.000854898 0)
(-0.0142725 -0.000915276 0)
(-0.0138663 -0.000974165 0)
(-0.0134396 -0.0010311 0)
(-0.0129935 -0.00108553 0)
(-0.0125291 -0.00113687 0)
(-0.0120473 -0.00118456 0)
(-0.0115492 -0.00122814 0)
(-0.011036 -0.0012673 0)
(-0.0105091 -0.00130183 0)
(-0.00996999 -0.0013316 0)
(-0.00942056 -0.00135642 0)
(-0.00886261 -0.00137608 0)
(-0.00829817 -0.0013903 0)
(-0.00772946 -0.00139877 0)
(-0.00715893 -0.00140116 0)
(-0.00658918 -0.00139712 0)
(-0.00602303 -0.00138623 0)
(-0.00546352 -0.00136792 0)
(-0.00491382 -0.00134155 0)
(-0.00437717 -0.00130636 0)
(-0.00385681 -0.00126168 0)
(-0.0033561 -0.00120699 0)
(-0.00287854 -0.00114194 0)
(-0.00242771 -0.00106631 0)
(-0.00200721 -0.000980059 0)
(-0.00162053 -0.000883341 0)
(-0.00127092 -0.000776683 0)
(-0.000961375 -0.000661107 0)
(-0.000694382 -0.000538287 0)
(-0.000471769 -0.000411007 0)
(-0.000294259 -0.000283287 0)
(-0.000161664 -0.000161116 0)
(-7.06664e-05 -5.28628e-05 0)
(-1.86928e-05 2.76318e-05 0)
(-3.09468e-06 4.44694e-05 0)
(2.4445e-05 -0.000212598 0)
(2.97605e-05 -0.000104475 0)
(1.58354e-06 0.000119053 0)
(-9.93116e-05 0.000335313 0)
(-0.000264111 0.000537117 0)
(-0.00048372 0.00072546 0)
(-0.000758062 0.00090132 0)
(-0.00108561 0.00106368 0)
(-0.00146183 0.0012115 0)
(-0.00188447 0.00134355 0)
(-0.00235069 0.00146025 0)
(-0.00285653 0.00156081 0)
(-0.00339857 0.00164642 0)
(-0.00397329 0.00171829 0)
(-0.00457622 0.001777 0)
(-0.00520275 0.00182373 0)
(-0.00584878 0.00186013 0)
(-0.00651011 0.00188738 0)
(-0.00718254 0.00190628 0)
(-0.00786193 0.00191773 0)
(-0.00854409 0.00192249 0)
(-0.00922538 0.0019209 0)
(-0.0099026 0.00191297 0)
(-0.0105726 0.00189862 0)
(-0.0112329 0.00187777 0)
(-0.0118813 0.00185042 0)
(-0.0125159 0.0018166 0)
(-0.0131349 0.00177641 0)
(-0.0137368 0.00173012 0)
(-0.0143207 0.00167818 0)
(-0.0148848 0.00162111 0)
(-0.0154281 0.0015594 0)
(-0.0159494 0.00149358 0)
(-0.0164477 0.00142424 0)
(-0.0169218 0.00135193 0)
(-0.0173706 0.00127708 0)
(-0.0177931 0.00120002 0)
(-0.0181888 0.001121 0)
(-0.0185571 0.00104031 0)
(-0.0188968 0.000958211 0)
(-0.0192074 0.000874863 0)
(-0.0194883 0.000790367 0)
(-0.0197393 0.000704825 0)
(-0.0199602 0.000618414 0)
(-0.0201505 0.000531409 0)
(-0.0203097 0.000444119 0)
(-0.0204371 0.000356803 0)
(-0.0205327 0.000269613 0)
(-0.020596 0.00018255 0)
(-0.020627 9.5471e-05 0)
(-0.0206254 8.12739e-06 0)
(-0.020591 -7.97903e-05 0)
(-0.0205239 -0.000168587 0)
(-0.0204241 -0.00025849 0)
(-0.0202921 -0.000349597 0)
(-0.0201284 -0.000441856 0)
(-0.0199337 -0.000535033 0)
(-0.0197085 -0.00062873 0)
(-0.0194531 -0.000722458 0)
(-0.0191679 -0.000815718 0)
(-0.0188532 -0.000908069 0)
(-0.0185095 -0.000999177 0)
(-0.0181374 -0.00108882 0)
(-0.0177376 -0.00117683 0)
(-0.017311 -0.00126299 0)
(-0.0168585 -0.00134702 0)
(-0.0163813 -0.00142851 0)
(-0.0158804 -0.00150697 0)
(-0.015357 -0.00158183 0)
(-0.0148123 -0.00165247 0)
(-0.0142476 -0.00171828 0)
(-0.0136642 -0.00177872 0)
(-0.0130634 -0.00183335 0)
(-0.0124469 -0.00188179 0)
(-0.0118165 -0.0019237 0)
(-0.0111742 -0.00195872 0)
(-0.0105223 -0.00198642 0)
(-0.00986291 -0.00200637 0)
(-0.00919872 -0.00201807 0)
(-0.00853248 -0.00202099 0)
(-0.00786719 -0.00201455 0)
(-0.00720607 -0.00199812 0)
(-0.00655251 -0.00197099 0)
(-0.00591001 -0.00193236 0)
(-0.0052822 -0.0018814 0)
(-0.00467279 -0.00181739 0)
(-0.0040856 -0.00173972 0)
(-0.00352449 -0.00164798 0)
(-0.00299338 -0.00154193 0)
(-0.0024962 -0.00142154 0)
(-0.0020368 -0.00128712 0)
(-0.00161877 -0.0011395 0)
(-0.00124532 -0.000980119 0)
(-0.000919305 -0.000811268 0)
(-0.000642844 -0.000636507 0)
(-0.000417196 -0.000460936 0)
(-0.000242742 -0.000291948 0)
(-0.000116491 -0.000139548 0)
(-3.74387e-05 -1.95495e-05 0)
(-7.26463e-06 3.08244e-05 0)
(2.07705e-05 -0.000223557 0)
(1.19215e-05 -9.0765e-05 0)
(-4.68332e-05 0.000201408 0)
(-0.000183647 0.00048487 0)
(-0.000389551 0.000749424 0)
(-0.000657839 0.000998107 0)
(-0.000985475 0.00122953 0)
(-0.00136972 0.0014451 0)
(-0.00180833 0.00164341 0)
(-0.00229763 0.00182278 0)
(-0.00283413 0.00198316 0)
(-0.00341456 0.00212409 0)
(-0.00403432 0.00224576 0)
(-0.00468917 0.0023491 0)
(-0.00537483 0.0024352 0)
(-0.0060866 0.00250512 0)
(-0.00681978 0.00255996 0)
(-0.00756959 0.00260093 0)
(-0.00833152 0.00262922 0)
(-0.00910118 0.00264595 0)
(-0.0098741 0.00265196 0)
(-0.0106463 0.00264787 0)
(-0.0114142 0.0026341 0)
(-0.0121743 0.00261094 0)
(-0.0129238 0.00257868 0)
(-0.0136602 0.00253762 0)
(-0.0143809 0.00248813 0)
(-0.0150841 0.00243056 0)
(-0.015768 0.00236535 0)
(-0.0164313 0.00229303 0)
(-0.0170721 0.00221418 0)
(-0.0176891 0.00212941 0)
(-0.018281 0.00203937 0)
(-0.0188465 0.0019447 0)
(-0.0193845 0.00184596 0)
(-0.0198937 0.00174361 0)
(-0.0203731 0.00163806 0)
(-0.0208221 0.00152971 0)
(-0.0212396 0.00141894 0)
(-0.0216248 0.0013061 0)
(-0.0219768 0.00119139 0)
(-0.0222951 0.00107498 0)
(-0.0225794 0.000957047 0)
(-0.0228293 0.000837834 0)
(-0.0230443 0.000717641 0)
(-0.0232237 0.000596784 0)
(-0.023367 0.00047552 0)
(-0.0234739 0.000354 0)
(-0.0235443 0.000232262 0)
(-0.023578 0.000110244 0)
(-0.0235748 -1.21809e-05 0)
(-0.0235345 -0.000135157 0)
(-0.023457 -0.000258816 0)
(-0.0233426 -0.000383246 0)
(-0.0231917 -0.000508451 0)
(-0.023005 -0.00063432 0)
(-0.0227829 -0.000760606 0)
(-0.0225262 -0.000886921 0)
(-0.0222351 -0.00101278 0)
(-0.0219102 -0.00113768 0)
(-0.0215519 -0.00126116 0)
(-0.0211609 -0.00138283 0)
(-0.0207379 -0.00150235 0)
(-0.0202837 -0.0016194 0)
(-0.0197992 -0.00173366 0)
(-0.0192855 -0.00184471 0)
(-0.0187439 -0.00195206 0)
(-0.0181755 -0.00205518 0)
(-0.0175816 -0.00215342 0)
(-0.0169637 -0.00224613 0)
(-0.0163231 -0.0023326 0)
(-0.0156613 -0.0024122 0)
(-0.0149801 -0.00248437 0)
(-0.0142813 -0.00254856 0)
(-0.0135669 -0.00260422 0)
(-0.0128392 -0.00265075 0)
(-0.0121006 -0.00268754 0)
(-0.0113536 -0.00271394 0)
(-0.0106013 -0.00272928 0)
(-0.00984657 -0.00273279 0)
(-0.00909283 -0.00272369 0)
(-0.00834355 -0.00270113 0)
(-0.00760243 -0.00266424 0)
(-0.0068733 -0.00261207 0)
(-0.00616014 -0.0025437 0)
(-0.00546703 -0.00245832 0)
(-0.00479814 -0.00235526 0)
(-0.00415768 -0.00223404 0)
(-0.00354989 -0.00209442 0)
(-0.00297901 -0.00193645 0)
(-0.0024492 -0.00176058 0)
(-0.00196439 -0.0015679 0)
(-0.00152812 -0.00136025 0)
(-0.00114359 -0.00114061 0)
(-0.000813425 -0.000913129 0)
(-0.000539405 -0.000683997 0)
(-0.000322704 -0.000461594 0)
(-0.000161169 -0.000257524 0)
(-5.52739e-05 -8.90497e-05 0)
(-1.10115e-05 7.47014e-06 0)
(1.67884e-05 -0.000226209 0)
(-8.61864e-06 -5.15499e-05 0)
(-9.65773e-05 0.000318117 0)
(-0.000269999 0.000675727 0)
(-0.000518592 0.00100807 0)
(-0.000834759 0.00132022 0)
(-0.00121519 0.00161347 0)
(-0.00165613 0.00188681 0)
(-0.00215525 0.00213901 0)
(-0.00270884 0.00236962 0)
(-0.00331298 0.00257697 0)
(-0.00396369 0.0027608 0)
(-0.00465628 0.00292133 0)
(-0.00538628 0.00305889 0)
(-0.00614889 0.00317429 0)
(-0.0069391 0.00326866 0)
(-0.0077521 0.0033432 0)
(-0.00858289 0.00339912 0)
(-0.00942654 0.00343767 0)
(-0.0102783 0.00346013 0)
(-0.0111336 0.00346759 0)
(-0.0119883 0.00346093 0)
(-0.0128386 0.00344091 0)
(-0.0136806 0.00340822 0)
(-0.0145111 0.00336354 0)
(-0.0153274 0.00330753 0)
(-0.0161266 0.0032408 0)
(-0.0169066 0.0031639 0)
(-0.0176653 0.00307745 0)
(-0.0184012 0.00298218 0)
(-0.0191121 0.00287887 0)
(-0.0197965 0.00276824 0)
(-0.0204529 0.00265101 0)
(-0.0210801 0.00252783 0)
(-0.0216766 0.00239933 0)
(-0.0222412 0.00226604 0)
(-0.0227727 0.00212853 0)
(-0.0232703 0.00198732 0)
(-0.023733 0.00184286 0)
(-0.0241598 0.00169554 0)
(-0.0245498 0.00154562 0)
(-0.0249025 0.00139335 0)
(-0.0252175 0.00123901 0)
(-0.0254942 0.00108292 0)
(-0.0257319 0.000925434 0)
(-0.0259301 0.000766873 0)
(-0.0260882 0.000607495 0)
(-0.0262061 0.000447471 0)
(-0.0262835 0.000286892 0)
(-0.0263203 0.000125804 0)
(-0.0263163 -3.57785e-05 0)
(-0.0262713 -0.000197853 0)
(-0.0261853 -0.000360409 0)
(-0.0260585 -0.000523412 0)
(-0.0258914 -0.000686778 0)
(-0.0256846 -0.000850333 0)
(-0.0254386 -0.00101378 0)
(-0.025154 -0.0011767 0)
(-0.0248313 -0.00133859 0)
(-0.0244711 -0.00149894 0)
(-0.0240739 -0.00165725 0)
(-0.0236404 -0.00181305 0)
(-0.0231716 -0.0019659 0)
(-0.0226682 -0.00211537 0)
(-0.0221313 -0.00226098 0)
(-0.0215622 -0.00240224 0)
(-0.020962 -0.00253856 0)
(-0.0203321 -0.0026693 0)
(-0.0196739 -0.00279374 0)
(-0.0189889 -0.00291114 0)
(-0.0182788 -0.00302071 0)
(-0.0175453 -0.00312171 0)
(-0.0167902 -0.00321342 0)
(-0.0160157 -0.0032951 0)
(-0.015224 -0.00336601 0)
(-0.0144175 -0.00342532 0)
(-0.013599 -0.00347222 0)
(-0.0127712 -0.00350585 0)
(-0.0119373 -0.0035253 0)
(-0.0111006 -0.0035296 0)
(-0.0102646 -0.00351774 0)
(-0.00943333 -0.0034887 0)
(-0.00861053 -0.00344142 0)
(-0.00780034 -0.00337479 0)
(-0.00700705 -0.00328778 0)
(-0.00623507 -0.00317948 0)
(-0.00548889 -0.00304916 0)
(-0.00477301 -0.00289627 0)
(-0.00409197 -0.00272058 0)
(-0.00345026 -0.00252219 0)
(-0.0028524 -0.00230171 0)
(-0.00230267 -0.00206045 0)
(-0.00180507 -0.00180067 0)
(-0.00136317 -0.00152575 0)
(-0.000980057 -0.00124061 0)
(-0.000658272 -0.000952161 0)
(-0.000399865 -0.000669831 0)
(-0.000203606 -0.000406373 0)
(-7.17254e-05 -0.000180107 0)
(-1.42235e-05 -2.48984e-05 0)
(1.24844e-05 -0.000219296 0)
(-2.87735e-05 1.21399e-05 0)
(-0.000148017 0.000468508 0)
(-0.000357398 0.00090637 0)
(-0.000646925 0.00131217 0)
(-0.00100935 0.0016928 0)
(-0.00144061 0.00205099 0)
(-0.00193708 0.00238604 0)
(-0.00249453 0.0026963 0)
(-0.00310931 0.00298072 0)
(-0.0037778 0.00323779 0)
(-0.00449512 0.00346708 0)
(-0.00525627 0.00366842 0)
(-0.00605656 0.00384191 0)
(-0.00689094 0.0039882 0)
(-0.00775413 0.00410829 0)
(-0.00864105 0.00420342 0)
(-0.00954645 0.00427499 0)
(-0.0104652 0.00432439 0)
(-0.0113924 0.00435297 0)
(-0.0123234 0.00436196 0)
(-0.0132537 0.00435253 0)
(-0.0141794 0.00432587 0)
(-0.0150962 0.00428309 0)
(-0.0160007 0.00422518 0)
(-0.01689 0.00415307 0)
(-0.0177611 0.00406757 0)
(-0.0186114 0.00396953 0)
(-0.0194388 0.00385983 0)
(-0.0202411 0.00373946 0)
(-0.0210163 0.00360933 0)
(-0.0217625 0.00347026 0)
(-0.0224782 0.00332302 0)
(-0.023162 0.00316839 0)
(-0.0238124 0.00300709 0)
(-0.0244279 0.00283981 0)
(-0.0250072 0.0026672 0)
(-0.0255496 0.00248988 0)
(-0.0260538 0.00230838 0)
(-0.0265189 0.00212312 0)
(-0.026944 0.00193447 0)
(-0.0273285 0.00174277 0)
(-0.0276717 0.00154841 0)
(-0.0279731 0.00135177 0)
(-0.028232 0.00115327 0)
(-0.0284478 0.000953253 0)
(-0.0286199 0.000751987 0)
(-0.0287483 0.000549693 0)
(-0.0288327 0.000346538 0)
(-0.0288729 0.000142679 0)
(-0.0288688 -6.17314e-05 0)
(-0.0288201 -0.000266552 0)
(-0.0287269 -0.00047166 0)
(-0.0285894 -0.000676917 0)
(-0.0284082 -0.000882144 0)
(-0.0281837 -0.00108709 0)
(-0.0279165 -0.00129138 0)
(-0.0276072 -0.00149456 0)
(-0.0272563 -0.00169609 0)
(-0.0268644 -0.00189541 0)
(-0.0264321 -0.00209197 0)
(-0.0259604 -0.00228523 0)
(-0.0254501 -0.00247465 0)
(-0.0249022 -0.00265968 0)
(-0.0243177 -0.00283974 0)
(-0.023698 -0.0030142 0)
(-0.0230444 -0.00318238 0)
(-0.0223584 -0.00334352 0)
(-0.0216414 -0.00349682 0)
(-0.020895 -0.0036414 0)
(-0.0201212 -0.00377639 0)
(-0.0193217 -0.0039009 0)
(-0.0184988 -0.00401406 0)
(-0.0176546 -0.00411495 0)
(-0.0167915 -0.00420258 0)
(-0.0159123 -0.00427594 0)
(-0.0150198 -0.00433399 0)
(-0.0141171 -0.00437567 0)
(-0.0132075 -0.00439983 0)
(-0.0122946 -0.00440528 0)
(-0.0113822 -0.00439081 0)
(-0.0104743 -0.00435518 0)
(-0.00957502 -0.00429713 0)
(-0.00868875 -0.00421542 0)
(-0.00782004 -0.00410889 0)
(-0.0069736 -0.00397651 0)
(-0.00615417 -0.00381745 0)
(-0.00536652 -0.00363111 0)
(-0.00461546 -0.00341723 0)
(-0.00390582 -0.003176 0)
(-0.00324241 -0.0029082 0)
(-0.00262991 -0.00261528 0)
(-0.00207272 -0.00229983 0)
(-0.00157492 -0.00196557 0)
(-0.00114029 -0.00161801 0)
(-0.00077199 -0.00126467 0)
(-0.000473019 -0.00091581 0)
(-0.000243206 -0.000585108 0)
(-8.66488e-05 -0.000291584 0)
(-1.69131e-05 -6.53991e-05 0)
(7.3761e-06 -0.000201549 0)
(-5.06416e-05 0.000100432 0)
(-0.000198661 0.000650184 0)
(-0.000442887 0.00117539 0)
(-0.000771899 0.00165933 0)
(-0.00117884 0.00211355 0)
(-0.00165864 0.00254056 0)
(-0.00220724 0.00294058 0)
(-0.00282064 0.00331218 0)
(-0.0034943 0.00365307 0)
(-0.00422363 0.00396228 0)
(-0.00500363 0.00423912 0)
(-0.00582939 0.00448292 0)
(-0.00669588 0.00469361 0)
(-0.00759758 0.00487183 0)
(-0.00852893 0.0050186 0)
(-0.0094846 0.0051352 0)
(-0.0104592 0.00522302 0)
(-0.0114476 0.00528354 0)
(-0.0124447 0.00531824 0)
(-0.0134457 0.00532866 0)
(-0.0144458 0.00531633 0)
(-0.0154408 0.00528278 0)
(-0.0164264 0.00522937 0)
(-0.017399 0.00515736 0)
(-0.0183555 0.00506794 0)
(-0.0192927 0.00496227 0)
(-0.0202078 0.00484151 0)
(-0.0210981 0.00470685 0)
(-0.0219616 0.00455942 0)
(-0.0227959 0.00440027 0)
(-0.0235991 0.00423033 0)
(-0.0243695 0.00405052 0)
(-0.0251055 0.00386177 0)
(-0.0258056 0.00366495 0)
(-0.026468 0.00346088 0)
(-0.0270915 0.00325031 0)
(-0.0276751 0.00303389 0)
(-0.0282178 0.00281223 0)
(-0.0287183 0.00258586 0)
(-0.0291759 0.00235527 0)
(-0.0295898 0.0021209 0)
(-0.0299592 0.00188323 0)
(-0.0302836 0.00164273 0)
(-0.0305623 0.00139984 0)
(-0.0307945 0.00115494 0)
(-0.03098 0.000908361 0)
(-0.0311184 0.000660388 0)
(-0.0312096 0.000411285 0)
(-0.0312535 0.000161321 0)
(-0.0312497 -8.92365e-05 0)
(-0.0311982 -0.000340129 0)
(-0.0310989 -0.000591124 0)
(-0.0309522 -0.000841991 0)
(-0.0307585 -0.00109245 0)
(-0.0305183 -0.00134216 0)
(-0.0302323 -0.00159067 0)
(-0.0299008 -0.00183745 0)
(-0.0295245 -0.00208192 0)
(-0.029104 -0.00232345 0)
(-0.0286401 -0.00256144 0)
(-0.0281336 -0.00279527 0)
(-0.0275856 -0.00302429 0)
(-0.0269972 -0.00324784 0)
(-0.0263693 -0.00346524 0)
(-0.0257035 -0.00367573 0)
(-0.025001 -0.0038785 0)
(-0.0242635 -0.00407267 0)
(-0.0234925 -0.00425732 0)
(-0.0226897 -0.00443146 0)
(-0.0218572 -0.00459408 0)
(-0.0209971 -0.00474416 0)
(-0.0201116 -0.00488065 0)
(-0.019203 -0.00500242 0)
(-0.0182739 -0.00510827 0)
(-0.0173273 -0.00519699 0)
(-0.0163662 -0.00526731 0)
(-0.0153939 -0.00531795 0)
(-0.0144139 -0.00534753 0)
(-0.0134299 -0.00535464 0)
(-0.0124459 -0.00533784 0)
(-0.0114662 -0.00529568 0)
(-0.0104952 -0.00522672 0)
(-0.00953732 -0.00512955 0)
(-0.00859743 -0.00500286 0)
(-0.00768047 -0.00484549 0)
(-0.00679146 -0.00465648 0)
(-0.00593544 -0.00443522 0)
(-0.00511749 -0.0041814 0)
(-0.00434276 -0.00389525 0)
(-0.00361635 -0.0035776 0)
(-0.00294339 -0.00323019 0)
(-0.00232872 -0.00285573 0)
(-0.00177696 -0.00245831 0)
(-0.00129253 -0.00204375 0)
(-0.000879414 -0.00162005 0)
(-0.000541524 -0.00119811 0)
(-0.000279758 -0.000792327 0)
(-0.000100065 -0.000422074 0)
(-1.91428e-05 -0.000113145 0)
(5.63948e-07 -0.000172373 0)
(-7.29249e-05 0.000214186 0)
(-0.000248852 0.000862705 0)
(-0.000526006 0.00147959 0)
(-0.000892238 0.0020475 0)
(-0.00134045 0.00257942 0)
(-0.0018665 0.00307969 0)
(-0.00246489 0.00354798 0)
(-0.00313127 0.00398328 0)
(-0.00386055 0.00438347 0)
(-0.00464739 0.00474727 0)
(-0.00548691 0.0050733 0)
(-0.0063739 0.00536075 0)
(-0.00730276 0.00560973 0)
(-0.00826762 0.00582091 0)
(-0.0092628 0.00599523 0)
(-0.0102829 0.00613385 0)
(-0.0113224 0.00623818 0)
(-0.0123759 0.00630987 0)
(-0.0134381 0.00635071 0)
(-0.014504 0.00636251 0)
(-0.0155688 0.00634711 0)
(-0.0166281 0.00630624 0)
(-0.0176775 0.00624152 0)
(-0.0187132 0.00615449 0)
(-0.0197319 0.00604669 0)
(-0.0207302 0.00591962 0)
(-0.021705 0.00577477 0)
(-0.0226535 0.00561352 0)
(-0.0235734 0.00543718 0)
(-0.0244624 0.00524694 0)
(-0.0253184 0.00504392 0)
(-0.0261394 0.00482924 0)
(-0.0269238 0.00460399 0)
(-0.0276697 0.00436918 0)
(-0.0283755 0.00412574 0)
(-0.0290399 0.0038745 0)
(-0.0296619 0.0036162 0)
(-0.0302402 0.00335155 0)
(-0.0307737 0.0030812 0)
(-0.0312615 0.00280575 0)
(-0.0317026 0.00252576 0)
(-0.0320965 0.00224179 0)
(-0.0324423 0.00195437 0)
(-0.0327395 0.00166399 0)
(-0.0329873 0.00137111 0)
(-0.0331854 0.0010761 0)
(-0.0333335 0.000779355 0)
(-0.0334314 0.000481234 0)
(-0.033479 0.000182116 0)
(-0.0334759 -0.000117627 0)
(-0.0334222 -0.000417642 0)
(-0.0333177 -0.000717599 0)
(-0.0331629 -0.00101716 0)
(-0.0329582 -0.00131595 0)
(-0.0327041 -0.00161352 0)
(-0.032401 -0.00190934 0)
(-0.0320495 -0.0022028 0)
(-0.0316503 -0.00249324 0)
(-0.0312039 -0.00278 0)
(-0.0307111 -0.00306238 0)
(-0.0301731 -0.00333967 0)
(-0.0295907 -0.00361113 0)
(-0.0289651 -0.003876 0)
(-0.0282975 -0.00413345 0)
(-0.0275893 -0.00438262 0)
(-0.0268419 -0.00462254 0)