/*--------------------------------*- C++ -*----------------------------------*\
  =========                 |
  \\      /  F ield         | OpenFOAM: The Open Source CFD Toolbox
   \\    /   O peration     | Website:  https://openfoam.org
    \\  /    A nd           | Version:  11
     \\/     M anipulation  |
\*---------------------------------------------------------------------------*/
FoamFile
{
    format      ascii;
    class       volVectorField;
    location    "9.8";
    object      U;
}
// * * * * * * * * * * * * * * * * * * * * * * * * * * * * * * * * * * * * * //

dimensions      [0 1 -1 0 0 0 0];

internalField   nonuniform List<vector> 
10100
(
(3.05387e-06 -2.97582e-06 0)
(1.50413e-05 -7.88961e-06 0)
(3.45235e-05 -9.32934e-06 0)
(5.30489e-05 -8.16078e-06 0)
(6.54638e-05 -5.60788e-06 0)
(6.91563e-05 -2.39454e-06 0)
(6.28169e-05 1.09722e-06 0)
(4.58691e-05 4.64217e-06 0)
(1.81803e-05 8.11022e-06 0)
(-2.0049e-05 1.14361e-05 0)
(-6.84412e-05 1.4579e-05 0)
(-0.000126504 1.75122e-05 0)
(-0.000193633 2.02219e-05 0)
(-0.000269196 2.27055e-05 0)
(-0.000352522 2.49625e-05 0)
(-0.000442913 2.6994e-05 0)
(-0.000539669 2.88053e-05 0)
(-0.000642088 3.03963e-05 0)
(-0.000749466 3.1768e-05 0)
(-0.000861109 3.29283e-05 0)
(-0.000976339 3.38866e-05 0)
(-0.00109449 3.46468e-05 0)
(-0.0012149 3.5215e-05 0)
(-0.00133695 3.55978e-05 0)
(-0.00146001 3.58007e-05 0)
(-0.00158348 3.58307e-05 0)
(-0.00170679 3.56946e-05 0)
(-0.00182937 3.53988e-05 0)
(-0.00195069 3.49501e-05 0)
(-0.00207023 3.43552e-05 0)
(-0.00218748 3.36191e-05 0)
(-0.00230198 3.27473e-05 0)
(-0.00241327 3.1747e-05 0)
(-0.00252092 3.06258e-05 0)
(-0.00262451 2.93906e-05 0)
(-0.00272365 2.8048e-05 0)
(-0.00281798 2.66032e-05 0)
(-0.00290716 2.50614e-05 0)
(-0.00299085 2.34288e-05 0)
(-0.00306876 2.17132e-05 0)
(-0.00314061 1.99219e-05 0)
(-0.00320613 1.80603e-05 0)
(-0.0032651 1.6134e-05 0)
(-0.0033173 1.4149e-05 0)
(-0.00336254 1.21126e-05 0)
(-0.00340065 1.00323e-05 0)
(-0.0034315 7.91455e-06 0)
(-0.00345496 5.7653e-06 0)
(-0.00347094 3.59072e-06 0)
(-0.00347937 1.39753e-06 0)
(-0.0034802 -8.06488e-07 0)
(-0.0034734 -3.01355e-06 0)
(-0.00345898 -5.2166e-06 0)
(-0.00343698 -7.40848e-06 0)
(-0.00340744 -9.58181e-06 0)
(-0.00337046 -1.17288e-05 0)
(-0.00332613 -1.3841e-05 0)
(-0.0032746 -1.59097e-05 0)
(-0.00321604 -1.79272e-05 0)
(-0.00315064 -1.98851e-05 0)
(-0.00307862 -2.17754e-05 0)
(-0.00300023 -2.35902e-05 0)
(-0.00291575 -2.53212e-05 0)
(-0.00282549 -2.696e-05 0)
(-0.00272978 -2.84981e-05 0)
(-0.00262899 -2.9927e-05 0)
(-0.0025235 -3.12379e-05 0)
(-0.00241374 -3.24227e-05 0)
(-0.00230016 -3.34744e-05 0)
(-0.00218322 -3.43852e-05 0)
(-0.00206343 -3.51473e-05 0)
(-0.0019413 -3.57531e-05 0)
(-0.00181738 -3.61957e-05 0)
(-0.00169225 -3.64676e-05 0)
(-0.0015665 -3.65621e-05 0)
(-0.00144073 -3.6473e-05 0)
(-0.00131559 -3.61946e-05 0)
(-0.00119171 -3.5721e-05 0)
(-0.00106977 -3.5047e-05 0)
(-0.000950439 -3.41685e-05 0)
(-0.000834406 -3.30812e-05 0)
(-0.00072237 -3.17815e-05 0)
(-0.000615033 -3.02663e-05 0)
(-0.000513096 -2.85342e-05 0)
(-0.000417261 -2.65854e-05 0)
(-0.000328218 -2.4421e-05 0)
(-0.00024664 -2.2044e-05 0)
(-0.000173176 -1.94591e-05 0)
(-0.000108443 -1.66736e-05 0)
(-5.30066e-05 -1.36985e-05 0)
(-7.36682e-06 -1.05519e-05 0)
(2.80764e-05 -7.26293e-06 0)
(5.30624e-05 -3.87743e-06 0)
(6.75343e-05 -4.6931e-07 0)
(7.17434e-05 2.83716e-06 0)
(6.64104e-05 5.82854e-06 0)
(5.29493e-05 8.13616e-06 0)
(3.39391e-05 9.10588e-06 0)
(1.45167e-05 7.63543e-06 0)
(2.77849e-06 2.78165e-06 0)
(7.66458e-06 -1.49661e-05 0)
(3.13737e-05 -3.17093e-05 0)
(6.34785e-05 -3.44603e-05 0)
(8.9617e-05 -2.6711e-05 0)
(9.99567e-05 -1.24879e-05 0)
(8.87629e-05 5.4636e-06 0)
(5.25731e-05 2.5344e-05 0)
(-1.05514e-05 4.60113e-05 0)
(-0.000101335 6.66809e-05 0)
(-0.000219711 8.68863e-05 0)
(-0.000365025 0.000106276 0)
(-0.000536195 0.000124648 0)
(-0.000731886 0.000141846 0)
(-0.000950532 0.000157778 0)
(-0.00119043 0.000172385 0)
(-0.00144981 0.000185632 0)
(-0.00172681 0.000197507 0)
(-0.00201955 0.000208006 0)
(-0.00232614 0.000217134 0)
(-0.00264469 0.000224908 0)
(-0.00297331 0.000231354 0)
(-0.00331017 0.000236495 0)
(-0.00365343 0.000240363 0)
(-0.00400133 0.000242992 0)
(-0.00435211 0.000244416 0)
(-0.00470409 0.000244672 0)
(-0.00505563 0.000243799 0)
(-0.00540514 0.000241836 0)
(-0.00575108 0.000238826 0)
(-0.00609198 0.000234809 0)
(-0.00642641 0.000229824 0)
(-0.00675302 0.000223913 0)
(-0.00707051 0.00021712 0)
(-0.00737762 0.00020949 0)
(-0.00767318 0.000201066 0)
(-0.00795608 0.000191889 0)
(-0.00822525 0.000182002 0)
(-0.0084797 0.000171449 0)
(-0.0087185 0.000160274 0)
(-0.00894079 0.000148521 0)
(-0.00914574 0.000136236 0)
(-0.00933264 0.00012346 0)
(-0.0095008 0.00011024 0)
(-0.00964962 9.66204e-05 0)
(-0.00977855 8.2648e-05 0)
(-0.00988711 6.83701e-05 0)
(-0.0099749 5.38324e-05 0)
(-0.0100416 3.90807e-05 0)
(-0.0100869 2.4163e-05 0)
(-0.0101106 9.12825e-06 0)
(-0.0101126 -5.97315e-06 0)
(-0.0100928 -2.10902e-05 0)
(-0.0100513 -3.61726e-05 0)
(-0.00998819 -5.11691e-05 0)
(-0.00990355 -6.60268e-05 0)
(-0.00979768 -8.06916e-05 0)
(-0.00967089 -9.51084e-05 0)
(-0.00952359 -0.000109222 0)
(-0.00935625 -0.000122976 0)
(-0.00916944 -0.000136317 0)
(-0.0089638 -0.000149189 0)
(-0.00874006 -0.000161535 0)
(-0.008499 -0.000173299 0)
(-0.00824152 -0.000184426 0)
(-0.00796858 -0.000194858 0)
(-0.00768121 -0.00020454 0)
(-0.00738053 -0.000213418 0)
(-0.00706774 -0.000221436 0)
(-0.00674411 -0.000228544 0)
(-0.00641099 -0.000234689 0)
(-0.00606979 -0.000239823 0)
(-0.00572199 -0.000243897 0)
(-0.00536915 -0.000246863 0)
(-0.00501289 -0.000248678 0)
(-0.00465486 -0.000249301 0)
(-0.0042968 -0.000248692 0)
(-0.00394048 -0.000246817 0)
(-0.00358773 -0.000243644 0)
(-0.00324039 -0.000239146 0)
(-0.00290036 -0.000233299 0)
(-0.00256954 -0.000226086 0)
(-0.00224986 -0.000217495 0)
(-0.00194325 -0.000207522 0)
(-0.00165161 -0.00019617 0)
(-0.00137683 -0.000183456 0)
(-0.00112077 -0.000169408 0)
(-0.000885205 -0.000154069 0)
(-0.000671817 -0.000137503 0)
(-0.000482166 -0.000119797 0)
(-0.000317638 -0.000101076 0)
(-0.000179378 -8.15112e-05 0)
(-6.82125e-05 -6.13506e-05 0)
(1.54695e-05 -4.09457e-05 0)
(7.18772e-05 -2.08065e-05 0)
(0.000102052 -1.68701e-06 0)
(0.000108188 1.52825e-05 0)
(9.39871e-05 2.84009e-05 0)
(6.52381e-05 3.51016e-05 0)
(3.16726e-05 3.16885e-05 0)
(7.61453e-06 1.45017e-05 0)
(8.68806e-06 -3.37726e-05 0)
(3.31984e-05 -6.35288e-05 0)
(6.15835e-05 -6.3078e-05 0)
(7.6663e-05 -4.02665e-05 0)
(6.66667e-05 -2.47394e-06 0)
(2.42502e-05 4.46937e-05 0)
(-5.54093e-05 9.72264e-05 0)
(-0.000175189 0.000152294 0)
(-0.000336421 0.000207944 0)
(-0.000539238 0.000262765 0)
(-0.000782917 0.000315809 0)
(-0.00106608 0.000366377 0)
(-0.00138685 0.000413993 0)
(-0.00174301 0.000458328 0)
(-0.00213209 0.000499145 0)
(-0.00255142 0.000536303 0)
(-0.00299821 0.000569715 0)
(-0.00346962 0.000599335 0)
(-0.00396273 0.00062516 0)
(-0.00447461 0.000647211 0)
(-0.00500234 0.000665526 0)
(-0.00554303 0.000680164 0)
(-0.00609382 0.000691199 0)
(-0.00665191 0.000698712 0)
(-0.00721454 0.000702794 0)
(-0.00777903 0.000703542 0)
(-0.00834278 0.000701058 0)
(-0.00890325 0.000695451 0)
(-0.00945799 0.000686835 0)
(-0.0100046 0.000675322 0)
(-0.0105409 0.000661025 0)
(-0.0110647 0.000644065 0)
(-0.0115738 0.000624563 0)
(-0.0120663 0.000602642 0)
(-0.0125403 0.000578424 0)
(-0.012994 0.000552031 0)
(-0.0134256 0.000523588 0)
(-0.0138336 0.00049322 0)
(-0.0142166 0.000461054 0)
(-0.014573 0.000427217 0)
(-0.0149016 0.000391838 0)
(-0.0152012 0.000355046 0)
(-0.0154707 0.000316969 0)
(-0.0157092 0.000277742 0)
(-0.0159157 0.000237497 0)
(-0.0160896 0.000196369 0)
(-0.0162301 0.000154496 0)
(-0.0163367 0.000112012 0)
(-0.016409 6.90565e-05 0)
(-0.0164467 2.57732e-05 0)
(-0.0164495 -1.76937e-05 0)
(-0.0164175 -6.11979e-05 0)
(-0.0163505 -0.000104592 0)
(-0.0162489 -0.000147725 0)
(-0.0161128 -0.000190447 0)
(-0.0159426 -0.0002326 0)
(-0.015739 -0.000274029 0)
(-0.0155025 -0.000314576 0)
(-0.015234 -0.000354083 0)
(-0.0149342 -0.000392388 0)
(-0.0146043 -0.000429334 0)
(-0.0142455 -0.000464759 0)
(-0.0138589 -0.000498502 0)
(-0.0134461 -0.000530404 0)
(-0.0130086 -0.000560305 0)
(-0.012548 -0.000588047 0)
(-0.0120662 -0.000613474 0)
(-0.011565 -0.000636435 0)
(-0.0110464 -0.00065678 0)
(-0.0105127 -0.000674364 0)
(-0.00996613 -0.000689048 0)
(-0.00940898 -0.000700695 0)
(-0.00884376 -0.000709179 0)
(-0.00827303 -0.000714375 0)
(-0.00769944 -0.000716172 0)
(-0.00712573 -0.000714466 0)
(-0.0065547 -0.000709161 0)
(-0.00598923 -0.000700177 0)
(-0.00543225 -0.000687445 0)
(-0.00488671 -0.000670911 0)
(-0.00435561 -0.000650538 0)
(-0.00384195 -0.000626309 0)
(-0.00334871 -0.00059823 0)
(-0.00287885 -0.000566333 0)
(-0.00243527 -0.000530687 0)
(-0.00202078 -0.000491398 0)
(-0.00163808 -0.000448623 0)
(-0.00128968 -0.000402579 0)
(-0.000977858 -0.000353564 0)
(-0.000704598 -0.000301982 0)
(-0.000471477 -0.000248382 0)
(-0.000279547 -0.000193511 0)
(-0.000129173 -0.000138391 0)
(-1.98208e-05 -8.44354e-05 0)
(5.02274e-05 -3.36098e-05 0)
(8.42321e-05 1.13358e-05 0)
(8.73362e-05 4.65692e-05 0)
(6.70437e-05 6.68399e-05 0)
(3.51736e-05 6.52673e-05 0)
(9.0912e-06 3.39025e-05 0)
(7.48358e-06 -5.14781e-05 0)
(2.54346e-05 -8.89856e-05 0)
(3.87168e-05 -7.80332e-05 0)
(2.98641e-05 -3.13719e-05 0)
(-1.3404e-05 4.00565e-05 0)
(-9.9161e-05 0.000127619 0)
(-0.000232895 0.000224882 0)
(-0.000418017 0.000327084 0)
(-0.000656195 0.000430763 0)
(-0.00094774 0.000533372 0)
(-0.00129187 0.00063306 0)
(-0.00168699 0.000728469 0)
(-0.00213086 0.000818628 0)
(-0.00262074 0.00090283 0)
(-0.00315356 0.000980572 0)
(-0.00372594 0.00105151 0)
(-0.00433432 0.00111543 0)
(-0.00497502 0.00117221 0)
(-0.00564426 0.00122179 0)
(-0.00633823 0.00126417 0)
(-0.00705311 0.00129941 0)
(-0.00778506 0.0013276 0)
(-0.00853032 0.00134885 0)
(-0.00928516 0.00136331 0)
(-0.0100459 0.00137114 0)
(-0.010809 0.00137251 0)
(-0.011571 0.00136761 0)
(-0.0123284 0.00135664 0)
(-0.0130781 0.00133983 0)
(-0.0138167 0.00131736 0)
(-0.0145413 0.00128948 0)
(-0.0152489 0.00125641 0)
(-0.0159368 0.00121838 0)
(-0.0166021 0.00117562 0)
(-0.0172424 0.00112837 0)
(-0.0178552 0.00107688 0)
(-0.0184383 0.00102137 0)
(-0.0189895 0.000962108 0)
(-0.0195066 0.000899327 0)
(-0.019988 0.00083328 0)
(-0.0204317 0.000764216 0)
(-0.0208363 0.000692389 0)
(-0.0212002 0.000618054 0)
(-0.0215221 0.000541472 0)
(-0.0218008 0.000462905 0)
(-0.0220353 0.000382616 0)
(-0.0222248 0.000300873 0)
(-0.0223685 0.000217946 0)
(-0.0224658 0.000134109 0)
(-0.0225163 4.96415e-05 0)
(-0.0225198 -3.51729e-05 0)
(-0.0224761 -0.000120048 0)
(-0.0223853 -0.000204695 0)
(-0.0222476 -0.00028882 0)
(-0.0220634 -0.000372125 0)
(-0.0218333 -0.000454308 0)
(-0.0215579 -0.000535064 0)
(-0.0212382 -0.000614087 0)
(-0.0208753 -0.000691067 0)
(-0.0204702 -0.000765695 0)
(-0.0200246 -0.000837658 0)
(-0.0195398 -0.000906645 0)
(-0.0190178 -0.000972345 0)
(-0.0184603 -0.00103445 0)
(-0.0178695 -0.00109265 0)
(-0.0172476 -0.00114663 0)
(-0.016597 -0.00119611 0)
(-0.0159204 -0.00124079 0)
(-0.0152204 -0.00128037 0)
(-0.0144999 -0.00131459 0)
(-0.013762 -0.00134317 0)
(-0.0130099 -0.00136585 0)
(-0.0122468 -0.0013824 0)
(-0.0114762 -0.00139258 0)
(-0.0107015 -0.00139618 0)
(-0.00992661 -0.00139301 0)
(-0.00915508 -0.0013829 0)
(-0.00839078 -0.00136569 0)
(-0.0076376 -0.00134128 0)
(-0.00689943 -0.00130956 0)
(-0.00618025 -0.0012705 0)
(-0.00548398 -0.00122407 0)
(-0.00481454 -0.00117031 0)
(-0.00417579 -0.00110932 0)
(-0.00357149 -0.00104126 0)
(-0.00300528 -0.00096637 0)
(-0.00248059 -0.000884988 0)
(-0.0020006 -0.000797583 0)
(-0.00156817 -0.000704778 0)
(-0.00118573 -0.000607403 0)
(-0.000855182 -0.000506556 0)
(-0.000577719 -0.000403691 0)
(-0.000353674 -0.000300747 0)
(-0.000182281 -0.000200308 0)
(-6.13865e-05 -0.000105836 0)
(1.28781e-05 -2.19694e-05 0)
(4.64072e-05 4.51039e-05 0)
(4.75316e-05 8.72839e-05 0)
(2.87849e-05 9.42665e-05 0)
(8.17745e-06 5.29844e-05 0)
(5.11076e-06 -6.31691e-05 0)
(1.17798e-05 -9.88334e-05 0)
(1.90072e-06 -6.8071e-05 0)
(-4.02633e-05 1.18146e-05 0)
(-0.000126451 0.000126413 0)
(-0.000264819 0.000264211 0)
(-0.000460992 0.000416339 0)
(-0.00071852 0.000576097 0)
(-0.00103919 0.000738385 0)
(-0.00142332 0.000899384 0)
(-0.00187005 0.00105621 0)
(-0.00237759 0.00120671 0)
(-0.00294338 0.00134928 0)
(-0.00356428 0.00148272 0)
(-0.00423669 0.00160618 0)
(-0.00495666 0.00171904 0)
(-0.00571998 0.0018209 0)
(-0.00652227 0.00191149 0)
(-0.00735901 0.00199068 0)
(-0.00822561 0.00205844 0)
(-0.00911745 0.0021148 0)
(-0.0100299 0.00215989 0)
(-0.0109584 0.00219385 0)
(-0.0118983 0.00221689 0)
(-0.0128453 0.00222925 0)
(-0.0137949 0.00223121 0)
(-0.0147428 0.00222305 0)
(-0.0156849 0.00220508 0)
(-0.0166171 0.00217763 0)
(-0.0175355 0.00214105 0)
(-0.0184364 0.00209567 0)
(-0.019316 0.00204188 0)
(-0.020171 0.00198003 0)
(-0.020998 0.00191051 0)
(-0.0217938 0.00183369 0)
(-0.0225554 0.00174996 0)
(-0.02328 0.00165971 0)
(-0.0239648 0.00156335 0)
(-0.0246074 0.00146127 0)
(-0.0252054 0.00135388 0)
(-0.0257567 0.00124158 0)
(-0.0262592 0.00112479 0)
(-0.0267111 0.00100392 0)
(-0.0271109 0.000879398 0)
(-0.0274569 0.000751653 0)
(-0.0277481 0.000621114 0)
(-0.0279832 0.000488217 0)
(-0.0281613 0.000353405 0)
(-0.0282818 0.000217128 0)
(-0.0283442 7.98382e-05 0)
(-0.0283481 -5.80015e-05 0)
(-0.0282934 -0.000195925 0)
(-0.0281802 -0.000333461 0)
(-0.0280088 -0.00047013 0)
(-0.0277796 -0.000605448 0)
(-0.0274933 -0.000738926 0)
(-0.0271509 -0.000870069 0)
(-0.0267535 -0.000998381 0)
(-0.0263023 -0.00112336 0)
(-0.025799 -0.0012445 0)
(-0.0252452 -0.0013613 0)
(-0.0246429 -0.00147326 0)
(-0.0239942 -0.00157987 0)
(-0.0233017 -0.00168064 0)
(-0.0225677 -0.00177506 0)
(-0.0217952 -0.00186265 0)
(-0.0209871 -0.00194292 0)
(-0.0201466 -0.00201541 0)
(-0.0192771 -0.00207965 0)
(-0.0183821 -0.0021352 0)
(-0.0174654 -0.00218164 0)
(-0.0165309 -0.00221854 0)
(-0.0155826 -0.00224553 0)
(-0.0146249 -0.00226225 0)
(-0.013662 -0.00226836 0)
(-0.0126984 -0.00226356 0)
(-0.0117387 -0.0022476 0)
(-0.0107875 -0.00222025 0)
(-0.00984966 -0.00218133 0)
(-0.00892985 -0.00213074 0)
(-0.00803291 -0.0020684 0)
(-0.00716358 -0.00199434 0)
(-0.00632661 -0.00190863 0)
(-0.00552663 -0.00181147 0)
(-0.00476815 -0.00170316 0)
(-0.00405548 -0.00158412 0)
(-0.0033927 -0.00145496 0)
(-0.00278355 -0.00131648 0)
(-0.00223136 -0.00116972 0)
(-0.00173894 -0.00101606 0)
(-0.00130844 -0.000857276 0)
(-0.000941206 -0.000695677 0)
(-0.0006376 -0.000534262 0)
(-0.000396766 -0.000376926 0)
(-0.000216377 -0.000228735 0)
(-9.2343e-05 -9.6277e-05 0)
(-1.85353e-05 1.19212e-05 0)
(1.35856e-05 8.49787e-05 0)
(1.62139e-05 0.000109226 0)
(5.97963e-06 6.67456e-05 0)
(2.15798e-06 -6.66038e-05 0)
(-5.31902e-06 -8.77731e-05 0)
(-4.38192e-05 -2.61807e-05 0)
(-0.000125978 9.71121e-05 0)
(-0.000262143 0.000264608 0)
(-0.00046009 0.000462143 0)
(-0.000725152 0.000678599 0)
(-0.0010607 0.000905313 0)
(-0.0014684 0.0011356 0)
(-0.00194843 0.00136429 0)
(-0.00249977 0.00158739 0)
(-0.00312038 0.00180187 0)
(-0.00380741 0.00200539 0)
(-0.00455736 0.0021962 0)
(-0.00536616 0.00237301 0)
(-0.00622939 0.00253487 0)
(-0.00714228 0.00268111 0)
(-0.00809981 0.0028113 0)
(-0.00909685 0.00292519 0)
(-0.0101281 0.00302267 0)
(-0.0111883 0.00310376 0)
(-0.0122721 0.00316858 0)
(-0.0133741 0.00321733 0)
(-0.0144891 0.00325027 0)
(-0.0156119 0.00326772 0)
(-0.0167373 0.00327005 0)
(-0.0178604 0.00325766 0)
(-0.0189763 0.003231 0)
(-0.0200803 0.00319051 0)
(-0.0211677 0.0031367 0)
(-0.0222342 0.00307006 0)
(-0.0232754 0.00299111 0)
(-0.0242873 0.00290039 0)
(-0.025266 0.00279844 0)
(-0.0262076 0.00268582 0)
(-0.0271087 0.00256308 0)
(-0.0279659 0.00243081 0)
(-0.028776 0.00228958 0)
(-0.0295361 0.00213997 0)
(-0.0302434 0.00198259 0)
(-0.0308953 0.00181801 0)
(-0.0314895 0.00164686 0)
(-0.0320239 0.00146975 0)
(-0.0324964 0.00128728 0)
(-0.0329055 0.00110011 0)
(-0.0332495 0.000908843 0)
(-0.0335272 0.000714138 0)
(-0.0337376 0.000516641 0)
(-0.0338798 0.000317012 0)
(-0.0339532 0.000115918 0)
(-0.0339574 -8.59649e-05 0)
(-0.0338924 -0.000287952 0)
(-0.0337581 -0.00048935 0)
(-0.033555 -0.000689459 0)
(-0.0332837 -0.000887569 0)
(-0.0329448 -0.00108296 0)
(-0.0325396 -0.00127492 0)
(-0.0320694 -0.00146272 0)
(-0.0315356 -0.00164562 0)
(-0.0309401 -0.00182289 0)
(-0.0302851 -0.00199379 0)
(-0.0295727 -0.0021576 0)
(-0.0288055 -0.00231358 0)
(-0.0279864 -0.002461 0)
(-0.0271184 -0.00259914 0)
(-0.0262048 -0.0027273 0)
(-0.0252491 -0.00284476 0)
(-0.024255 -0.00295086 0)
(-0.0232265 -0.00304493 0)
(-0.0221679 -0.00312632 0)
(-0.0210834 -0.00319442 0)
(-0.0199777 -0.00324864 0)
(-0.0188555 -0.00328844 0)
(-0.0177218 -0.0033133 0)
(-0.0165817 -0.00332275 0)
(-0.0154403 -0.00331638 0)
(-0.014303 -0.00329381 0)
(-0.0131753 -0.00325476 0)
(-0.0120626 -0.003199 0)
(-0.0109705 -0.00312637 0)
(-0.0099045 -0.00303683 0)
(-0.00887011 -0.00293043 0)
(-0.00787278 -0.00280733 0)
(-0.00691782 -0.00266785 0)
(-0.0060104 -0.00251247 0)
(-0.00515544 -0.00234187 0)
(-0.00435754 -0.00215698 0)
(-0.00362095 -0.00195898 0)
(-0.00294939 -0.00174945 0)
(-0.00234603 -0.00153038 0)
(-0.00181328 -0.00130433 0)
(-0.00135267 -0.00107456 0)
(-0.000964683 -0.000845203 0)
(-0.000648532 -0.000621532 0)
(-0.000401958 -0.000410234 0)
(-0.000220979 -0.000219804 0)
(-9.96345e-05 -6.09998e-05 0)
(-2.96607e-05 5.27084e-05 0)
(-1.36605e-08 0.000104598 0)
(3.1452e-06 7.27296e-05 0)
(-1.03577e-06 -6.05572e-05 0)
(-2.43136e-05 -5.2404e-05 0)
(-9.49016e-05 5.24497e-05 0)
(-0.000221559 0.000230124 0)
(-0.000412699 0.000460531 0)
(-0.000675276 0.000727201 0)
(-0.00101407 0.00101695 0)
(-0.00143197 0.00131933 0)
(-0.00193028 0.00162608 0)
(-0.00250891 0.00193071 0)
(-0.00316657 0.00222811 0)
(-0.00390093 0.0025143 0)
(-0.00470881 0.00278619 0)
(-0.00558635 0.0030414 0)
(-0.0065291 0.00327813 0)
(-0.00753214 0.00349505 0)
(-0.00859021 0.00369121 0)
(-0.00969779 0.00386595 0)
(-0.0108492 0.00401886 0)
(-0.0120384 0.00414976 0)
(-0.0132597 0.00425861 0)
(-0.0145069 0.00434551 0)
(-0.0157742 0.00441071 0)
(-0.0170556 0.00445451 0)
(-0.0183453 0.00447732 0)
(-0.0196374 0.00447962 0)
(-0.0209263 0.00446192 0)
(-0.0222066 0.0044248 0)
(-0.0234728 0.00436887 0)
(-0.0247198 0.00429478 0)
(-0.0259425 0.0042032 0)
(-0.027136 0.00409484 0)
(-0.0282957 0.0039704 0)
(-0.0294171 0.00383064 0)
(-0.030496 0.00367628 0)
(-0.0315283 0.00350812 0)
(-0.0325103 0.00332691 0)
(-0.0334382 0.00313345 0)
(-0.0343087 0.00292855 0)
(-0.0351187 0.002713 0)
(-0.0358652 0.00248763 0)
(-0.0365455 0.00225326 0)
(-0.0371572 0.00201075 0)
(-0.0376981 0.00176092 0)
(-0.0381663 0.00150466 0)
(-0.0385599 0.00124282 0)
(-0.0388777 0.000976278 0)
(-0.0391182 0.000705938 0)
(-0.0392807 0.000432699 0)
(-0.0393644 0.000157476 0)
(-0.039369 -0.000118805 0)
(-0.0392942 -0.000395207 0)
(-0.0391402 -0.000670782 0)
(-0.0389073 -0.000944569 0)
(-0.0385963 -0.0012156 0)
(-0.0382082 -0.0014829 0)
(-0.037744 -0.00174547 0)
(-0.0372054 -0.00200233 0)
(-0.0365941 -0.00225249 0)
(-0.0359122 -0.00249493 0)
(-0.035162 -0.00272866 0)
(-0.0343463 -0.00295267 0)
(-0.0334678 -0.00316599 0)
(-0.0325299 -0.0033676 0)
(-0.0315359 -0.00355655 0)
(-0.0304896 -0.00373186 0)
(-0.0293951 -0.00389258 0)
(-0.0282565 -0.00403781 0)
(-0.0270785 -0.00416664 0)
(-0.0258657 -0.0042782 0)
(-0.0246231 -0.00437167 0)
(-0.0233559 -0.00444626 0)
(-0.0220695 -0.00450125 0)
(-0.0207696 -0.00453594 0)
(-0.0194618 -0.00454971 0)
(-0.018152 -0.00454203 0)
(-0.0168464 -0.00451242 0)
(-0.0155509 -0.00446049 0)
(-0.0142717 -0.00438598 0)
(-0.0130152 -0.00428872 0)
(-0.0117874 -0.00416866 0)
(-0.0105946 -0.00402593 0)
(-0.00944279 -0.00386079 0)
(-0.00833796 -0.00367373 0)
(-0.00728582 -0.00346544 0)
(-0.00629182 -0.00323689 0)
(-0.00536106 -0.00298937 0)
(-0.00449824 -0.00272456 0)
(-0.00370746 -0.00244458 0)
(-0.00299224 -0.00215213 0)
(-0.00235526 -0.0018506 0)
(-0.00179831 -0.00154425 0)
(-0.00132211 -0.00123838 0)
(-0.000926108 -0.000939638 0)
(-0.000608313 -0.000656281 0)
(-0.000365127 -0.000398613 0)
(-0.000191082 -0.000179434 0)
(-7.85717e-05 -1.45148e-05 0)
(-1.82696e-05 7.68334e-05 0)
(2.96717e-08 6.96138e-05 0)
(-4.29503e-06 -4.44019e-05 0)
(-4.42015e-05 9.27051e-06 0)
(-0.000148937 0.000170943 0)
(-0.00032295 0.00041466 0)
(-0.000572382 0.000718323 0)
(-0.000903138 0.00106352 0)
(-0.00131912 0.00143528 0)
(-0.00182255 0.00182153 0)
(-0.00241419 0.00221256 0)
(-0.00309353 0.00260059 0)
(-0.00385888 0.00297943 0)
(-0.00470757 0.00334414 0)
(-0.00563606 0.00369084 0)
(-0.00664009 0.00401651 0)
(-0.00771482 0.00431882 0)
(-0.0088549 0.00459601 0)
(-0.0100546 0.0048468 0)
(-0.011308 0.00507027 0)
(-0.0126087 0.00526585 0)
(-0.0139504 0.00543322 0)
(-0.0153266 0.00557229 0)
(-0.0167307 0.00568315 0)
(-0.0181562 0.00576603 0)
(-0.0195965 0.00582133 0)
(-0.0210453 0.00584951 0)
(-0.0224962 0.00585115 0)
(-0.0239428 0.00582691 0)
(-0.0253792 0.00577751 0)
(-0.0267994 0.00570371 0)
(-0.0281976 0.00560633 0)
(-0.0295682 0.00548625 0)
(-0.0309058 0.00534434 0)
(-0.0322054 0.00518154 0)
(-0.0334618 0.00499879 0)
(-0.0346704 0.00479706 0)
(-0.0358266 0.00457735 0)
(-0.0369263 0.00434067 0)
(-0.0379653 0.00408802 0)
(-0.03894 0.00382047 0)
(-0.0398468 0.00353906 0)
(-0.0406824 0.00324485 0)
(-0.0414439 0.00293893 0)
(-0.0421286 0.00262239 0)
(-0.0427339 0.00229634 0)
(-0.0432577 0.00196191 0)
(-0.0436981 0.00162022 0)
(-0.0440535 0.00127243 0)
(-0.0443225 0.000919708 0)
(-0.0445041 0.000563223 0)
(-0.0445976 0.000204175 0)
(-0.0446024 -0.000156229 0)
(-0.0445185 -0.000516765 0)
(-0.0443459 -0.000876198 0)
(-0.0440851 -0.00123328 0)
(-0.0437369 -0.00158674 0)
(-0.0433023 -0.00193531 0)
(-0.0427826 -0.00227771 0)
(-0.0421797 -0.00261265 0)
(-0.0414954 -0.00293883 0)
(-0.0407321 -0.00325495 0)
(-0.0398924 -0.00355971 0)
(-0.0389793 -0.00385182 0)
(-0.037996 -0.00412998 0)
(-0.036946 -0.00439292 0)
(-0.0358332 -0.00463938 0)
(-0.0346619 -0.0048681 0)
(-0.0334363 -0.00507786 0)
(-0.0321613 -0.00526749 0)
(-0.0308419 -0.00543582 0)
(-0.0294833 -0.00558175 0)
(-0.028091 -0.0057042 0)
(-0.0266709 -0.00580219 0)
(-0.0252288 -0.00587477 0)
(-0.0237711 -0.00592107 0)
(-0.0223039 -0.00594032 0)
(-0.0208338 -0.00593183 0)
(-0.0193675 -0.00589502 0)
(-0.0179117 -0.00582942 0)
(-0.0164732 -0.00573472 0)
(-0.0150588 -0.00561073 0)
(-0.0136754 -0.00545745 0)
(-0.0123296 -0.00527506 0)
(-0.0110282 -0.00506397 0)
(-0.00977766 -0.00482485 0)
(-0.00858417 -0.00455864 0)
(-0.0074537 -0.00426665 0)
(-0.00639183 -0.00395058 0)
(-0.00540364 -0.00361261 0)
(-0.00449367 -0.00325547 0)
(-0.00366575 -0.0028826 0)
(-0.00292293 -0.00249827 0)
(-0.00226733 -0.00210771 0)
(-0.00169999 -0.00171741 0)
(-0.00122074 -0.00133533 0)
(-0.000828066 -0.000971218 0)
(-0.000518963 -0.000637026 0)
(-0.000288715 -0.000347368 0)
(-0.000130649 -0.000119971 0)
(-3.75178e-05 2.3784e-05 0)
(-3.17011e-06 5.67247e-05 0)
(-7.53302e-06 -1.79246e-05 0)
(-6.43987e-05 9.83106e-05 0)
(-0.000204289 0.000331097 0)
(-0.000427298 0.000653107 0)
(-0.000737092 0.00104071 0)
(-0.00113831 0.00147395 0)
(-0.00163383 0.00193635 0)
(-0.00222501 0.0024144 0)
(-0.00291193 0.00289708 0)
(-0.0036935 0.00337543 0)
(-0.00456757 0.00384218 0)
(-0.00553102 0.0042915 0)
(-0.00657989 0.00471874 0)
(-0.00770952 0.00512019 0)
(-0.00891466 0.00549297 0)
(-0.0101895 0.0058349 0)
(-0.011528 0.00614431 0)
(-0.0129236 0.00642004 0)
(-0.0143695 0.00666131 0)
(-0.015859 0.00686767 0)
(-0.0173849 0.00703893 0)
(-0.0189403 0.00717516 0)
(-0.020518 0.00727661 0)
(-0.022111 0.0073437 0)
(-0.0237123 0.00737699 0)
(-0.025315 0.00737717 0)
(-0.0269124 0.00734501 0)
(-0.0284977 0.00728139 0)
(-0.0300646 0.00718725 0)
(-0.0316068 0.00706359 0)
(-0.0331181 0.00691148 0)
(-0.0345928 0.00673202 0)
(-0.036025 0.00652635 0)
(-0.0374095 0.00629565 0)
(-0.0387411 0.00604114 0)
(-0.0400149 0.00576405 0)
(-0.0412261 0.00546565 0)
(-0.0423704 0.0051472 0)
(-0.0434437 0.00481003 0)
(-0.0444421 0.00445544 0)
(-0.0453621 0.00408478 0)
(-0.0462004 0.00369941 0)
(-0.046954 0.00330071 0)
(-0.0476202 0.00289007 0)
(-0.0481967 0.0024689 0)
(-0.0486813 0.00203863 0)
(-0.0490724 0.0016007 0)
(-0.0493683 0.00115659 0)
(-0.0495681 0.000707781 0)
(-0.0496708 0.000255771 0)
(-0.049676 -0.000197918 0)
(-0.0495835 -0.000651748 0)
(-0.0493934 -0.00110416 0)
(-0.0491063 -0.0015536 0)
(-0.048723 -0.00199846 0)
(-0.0482446 -0.00243715 0)
(-0.0476727 -0.00286806 0)
(-0.047009 -0.00328958 0)
(-0.0462559 -0.00370007 0)
(-0.0454157 -0.00409791 0)
(-0.0444915 -0.00448148 0)
(-0.0434864 -0.00484915 0)
(-0.0424039 -0.0051993 0)
(-0.041248 -0.00553034 0)
(-0.0400228 -0.0058407 0)
(-0.0387329 -0.00612881 0)
(-0.0373832 -0.00639316 0)
(-0.0359789 -0.00663226 0)
(-0.0345253 -0.00684469 0)
(-0.0330282 -0.00702907 0)
(-0.0314937 -0.00718408 0)
(-0.029928 -0.00730848 0)
(-0.0283376 -0.00740112 0)
(-0.0267292 -0.00746094 0)
(-0.0251097 -0.00748698 0)
(-0.0234862 -0.00747842 0)
(-0.0218659 -0.00743456 0)
(-0.0202562 -0.00735485 0)
(-0.0186642 -0.00723892 0)
(-0.0170976 -0.00708659 0)
(-0.0155635 -0.00689789 0)
(-0.0140694 -0.00667311 0)
(-0.0126223 -0.0064128 0)
(-0.0112293 -0.00611783 0)
(-0.00989721 -0.00578943 0)
(-0.0086323 -0.00542926 0)
(-0.00744065 -0.00503946 0)
(-0.00632775 -0.00462275 0)
(-0.00529856 -0.00418249 0)
(-0.00435729 -0.00372288 0)
(-0.00350739 -0.00324903 0)
(-0.00275138 -0.0027672 0)
(-0.00209075 -0.00228497 0)
(-0.00152585 -0.00181155 0)
(-0.00105576 -0.00135807 0)
(-0.000678279 -0.000937942 0)
(-0.00038961 -0.000567344 0)
(-0.000184215 -0.000265604 0)
(-5.71114e-05 -5.56839e-05 0)
(-6.34804e-06 3.38043e-05 0)
(-1.06979e-05 1.88823e-05 0)
(-8.4508e-05 0.000215089 0)
(-0.000259925 0.000533792 0)
(-0.000532659 0.000946762 0)
(-0.000903897 0.00142932 0)
(-0.00137691 0.00196029 0)
(-0.00195341 0.00252197 0)
(-0.00263375 0.00309962 0)
(-0.00341721 0.00368106 0)
(-0.00430204 0.00425625 0)
(-0.00528549 0.00481696 0)
(-0.00636394 0.00535647 0)
(-0.00753295 0.00586937 0)
(-0.00878743 0.00635131 0)
(-0.0101217 0.00679887 0)
(-0.0115295 0.00720939 0)
(-0.0130043 0.00758086 0)
(-0.0145392 0.00791182 0)
(-0.016127 0.00820128 0)
(-0.0177603 0.00844863 0)
(-0.0194316 0.00865361 0)
(-0.0211335 0.00881624 0)
(-0.0228583 0.00893677 0)
(-0.0245986 0.00901566 0)
(-0.0263467 0.00905356 0)
(-0.0280954 0.00905125 0)
(-0.0298374 0.00900965 0)
(-0.0315656 0.00892978 0)
(-0.0332729 0.00881278 0)
(-0.0349528 0.00865983 0)
(-0.0365985 0.00847222 0)
(-0.0382039 0.00825126 0)
(-0.0397628 0.00799834 0)
(-0.0412694 0.0077149 0)
(-0.0427181 0.00740238 0)
(-0.0441036 0.00706231 0)
(-0.045421 0.00669621 0)
(-0.0466654 0.00630564 0)
(-0.0478324 0.00589219 0)
(-0.0489179 0.00545748 0)
(-0.049918 0.00500313 0)
(-0.0508293 0.00453083 0)
(-0.0516484 0.00404223 0)
(-0.0523724 0.00353906 0)
(-0.0529989 0.00302303 0)
(-0.0535256 0.0024959 0)
(-0.0539505 0.00195944 0)
(-0.0542722 0.00141544 0)
(-0.0544892 0.00086571 0)
(-0.0546009 0.000312099 0)
(-0.0546065 -0.00024354 0)
(-0.054506 -0.000799325 0)
(-0.0542996 -0.00135336 0)
(-0.0539877 -0.00190371 0)
(-0.0535712 -0.00244846 0)
(-0.0530515 -0.00298564 0)
(-0.0524301 -0.0035133 0)
(-0.051709 -0.00402946 0)
(-0.0508907 -0.00453213 0)
(-0.0499778 -0.00501934 0)
(-0.0489734 -0.0054891 0)
(-0.047881 -0.00593944 0)
(-0.0467045 -0.0063684 0)
(-0.045448 -0.00677402 0)
(-0.044116 -0.00715441 0)
(-0.0427135 -0.00750766 0)
(-0.0412457 -0.00783195 0)
(-0.0397182 -0.00812547 0)
(-0.0381367 -0.00838649 0)
(-0.0365076 -0.00861335 0)
(-0.0348372 -0.00880446 0)
(-0.0331323 -0.00895833 0)
(-0.0313998 -0.00907358 0)
(-0.029647 -0.00914894 0)
(-0.0278814 -0.00918327 0)
(-0.0261103 -0.0091756 0)
(-0.0243417 -0.0091251 0)
(-0.0225832 -0.00903116 0)
(-0.0208429 -0.00889335 0)
(-0.0191285 -0.00871149 0)
(-0.017448 -0.00848567 0)
(-0.0158092 -0.00821627 0)
(-0.0142197 -0.00790401 0)
(-0.0126871 -0.00754997 0)
(-0.0112184 -0.00715571 0)
(-0.00982068 -0.00672323 0)
(-0.00850029 -0.00625515 0)
(-0.0072632 -0.00575471 0)
(-0.00611477 -0.00522595 0)
(-0.00505967 -0.00467378 0)
(-0.00410179 -0.00410418 0)
(-0.00324414 -0.00352435 0)
(-0.00248874 -0.00294294 0)
(-0.00183656 -0.00237031 0)
(-0.00128745 -0.00181881 0)
(-0.000840086 -0.00130315 0)
(-0.000491758 -0.000840815 0)
(-0.000238162 -0.000452402 0)
(-7.66545e-05 -0.00016202 0)
(-9.44962e-06 8.4457e-07 0)
(-1.37653e-05 6.58759e-05 0)
(-0.000104328 0.00035956 0)
(-0.000315138 0.000779247 0)
(-0.000637721 0.00129617 0)
(-0.00107078 0.00188493 0)
(-0.00161618 0.0025235 0)
(-0.00227438 0.00319317 0)
(-0.00304465 0.00387819 0)
(-0.00392537 0.00456537 0)
(-0.00491402 0.00524371 0)
(-0.0060072 0.00590408 0)
(-0.00720069 0.00653898 0)
(-0.00848955 0.00714225 0)
(-0.00986819 0.00770894 0)
(-0.0113304 0.00823507 0)
(-0.0128697 0.00871756 0)
(-0.0144788 0.00915402 0)
(-0.0161506 0.00954271 0)
(-0.0178773 0.0098824 0)
(-0.0196512 0.0101724 0)
(-0.0214644 0.0104122 0)
(-0.0233088 0.0106019 0)
(-0.0251764 0.0107417 0)
(-0.0270593 0.0108321 0)
(-0.0289495 0.0108739 0)
(-0.0308391 0.0108679 0)
(-0.0327206 0.0108152 0)
(-0.0345862 0.0107169 0)
(-0.0364286 0.0105745 0)
(-0.0382407 0.0103892 0)
(-0.0400154 0.0101626 0)
(-0.0417461 0.00989629 0)
(-0.0434262 0.00959184 0)
(-0.0450496 0.00925097 0)
(-0.0466103 0.00887541 0)
(-0.0481027 0.00846694 0)
(-0.0495215 0.0080274 0)
(-0.0508614 0.00755864 0)
(-0.0521179 0.00706255 0)
(-0.0532865 0.00654107 0)
(-0.0543631 0.00599614 0)
(-0.0553438 0.00542975 0)
(-0.0562254 0.00484392 0)
(-0.0570047 0.00424067 0)
(-0.057679 0.00362207 0)
(-0.0582457 0.00299022 0)
(-0.0587031 0.00234724 0)
(-0.0590492 0.00169527 0)
(-0.0592829 0.00103648 0)
(-0.0594032 0.000373069 0)
(-0.0594095 -0.000292739 0)
(-0.0593016 -0.000958696 0)
(-0.0590797 -0.00162253 0)
(-0.0587444 -0.00228195 0)
(-0.0582967 -0.00293465 0)
(-0.0577378 -0.00357828 0)
(-0.0570695 -0.00421051 0)
(-0.056294 -0.00482899 0)
(-0.0554138 -0.00543134 0)
(-0.0544317 -0.00601521 0)
(-0.0533512 -0.00657823 0)
(-0.0521759 -0.00711806 0)
(-0.0509098 -0.00763235 0)
(-0.0495574 -0.0081188 0)
(-0.0481237 -0.00857514 0)
(-0.0466137 -0.00899911 0)
(-0.0450331 -0.00938853 0)
(-0.0433878 -0.00974128 0)
(-0.0416839 -0.0100553 0)
(-0.0399282 -0.0103286 0)
(-0.0381275 -0.0105594 0)
(-0.0362889 -0.0107459 0)
(-0.0344198 -0.0108864 0)