/*--------------------------------*- C++ -*----------------------------------*\
  =========                 |
  \\      /  F ield         | OpenFOAM: The Open Source CFD Toolbox
   \\    /   O peration     | Website:  https://openfoam.org
    \\  /    A nd           | Version:  11
     \\/     M anipulation  |
\*---------------------------------------------------------------------------*/
FoamFile
{
    format      ascii;
    class       volScalarField;
    location    "4.6";
    object      p;
}
// * * * * * * * * * * * * * * * * * * * * * * * * * * * * * * * * * * * * * //

dimensions      [0 2 -2 0 0 0 0];

internalField   nonuniform List<scalar> 
10100
(
2.82967e-07
-0.000475529
-0.00147897
-0.00272564
-0.0040718
-0.00553899
-0.00710706
-0.00874517
-0.0104207
-0.0121033
-0.0137653
-0.0153819
-0.0169306
-0.0183921
-0.0197498
-0.0209887
-0.0220964
-0.0230626
-0.0238788
-0.024538
-0.025034
-0.0253621
-0.0255195
-0.025504
-0.0253138
-0.024948
-0.0244067
-0.0236911
-0.022804
-0.0217483
-0.0205281
-0.0191479
-0.0176123
-0.0159264
-0.0140962
-0.0121276
-0.010027
-0.00780149
-0.00545856
-0.00300521
-0.000448535
0.00220325
0.00494108
0.00775589
0.0106388
0.0135808
0.0165718
0.019602
0.0226617
0.0257409
0.0288296
0.0319172
0.0349936
0.0380492
0.0410746
0.0440602
0.0469955
0.0498705
0.0526755
0.0554018
0.0580409
0.060584
0.0630214
0.0653435
0.0675414
0.0696071
0.0715336
0.073314
0.0749416
0.0764098
0.0777127
0.0788459
0.0798066
0.0805928
0.0812031
0.0816368
0.0818936
0.081974
0.0818796
0.0816136
0.0811812
0.0805891
0.0798452
0.0789589
0.0779409
0.0768036
0.0755614
0.0742313
0.0728331
0.07139
0.0699287
0.06848
0.0670785
0.0657634
0.0645778
0.063569
0.0627862
0.0622777
0.0620862
0.0621718
-0.000635923
-0.00106896
-0.0018924
-0.00293617
-0.00410962
-0.00539517
-0.00677257
-0.00821575
-0.00969678
-0.0111887
-0.012667
-0.0141092
-0.0154944
-0.016804
-0.018022
-0.0191342
-0.0201283
-0.0209942
-0.0217236
-0.0223093
-0.0227454
-0.0230266
-0.0231489
-0.0231098
-0.0229076
-0.0225412
-0.0220106
-0.0213167
-0.0204609
-0.0194457
-0.0182755
-0.0169546
-0.0154867
-0.0138766
-0.0121299
-0.0102518
-0.00824824
-0.00612602
-0.00389243
-0.00155412
0.000882355
0.00340927
0.00601795
0.00869982
0.0114466
0.0142495
0.0170991
0.0199857
0.0229
0.0258329
0.0287748
0.0317157
0.0346458
0.037556
0.0404374
0.0432806
0.0460758
0.0488136
0.0514849
0.0540815
0.0565954
0.0590178
0.0613399
0.0635525
0.0656474
0.0676174
0.0694559
0.0711566
0.072713
0.0741191
0.0753695
0.0764605
0.0773894
0.0781548
0.0787558
0.079192
0.0794632
0.0795701
0.0795146
0.0793003
0.0789325
0.0784182
0.0777654
0.0769835
0.0760828
0.0750751
0.0739743
0.0727967
0.071561
0.070289
0.0690056
0.0677385
0.0665185
0.0653793
0.0643568
0.0634886
0.0628107
0.062357
0.0621718
0.0622586
-0.00122452
-0.00149686
-0.00211378
-0.00298426
-0.00401367
-0.00516152
-0.00639928
-0.00770053
-0.00903918
-0.0103904
-0.0117315
-0.013042
-0.0143026
-0.0154957
-0.0166056
-0.0176192
-0.0185245
-0.0193113
-0.0199717
-0.0204985
-0.0208858
-0.0211289
-0.021223
-0.0211645
-0.0209519
-0.0205845
-0.020062
-0.0193847
-0.018554
-0.0175718
-0.016442
-0.0151687
-0.0137558
-0.0122074
-0.0105284
-0.00872397
-0.00679979
-0.00476228
-0.0026181
-0.000373542
0.00196492
0.00438974
0.00689264
0.00946558
0.0121008
0.0147901
0.0175243
0.0202937
0.0230893
0.0259025
0.0287243
0.0315455
0.0343567
0.0371487
0.0399128
0.04264
0.0453213
0.0479477
0.0505108
0.0530025
0.0554149
0.0577398
0.0599685
0.0620926
0.0641047
0.0659979
0.0677658
0.0694022
0.0709013
0.0722574
0.0734656
0.0745226
0.0754263
0.0761753
0.0767689
0.0772069
0.0774894
0.0776172
0.0775922
0.0774184
0.0771013
0.0766478
0.0760659
0.0753645
0.0745537
0.0736448
0.0726509
0.0715872
0.0704717
0.0693248
0.0681694
0.0670306
0.0659359
0.0649143
0.0639967
0.0632143
0.0625964
0.0621714
0.0619873
0.0620707
-0.0014184
-0.00160628
-0.00210945
-0.00286404
-0.00378878
-0.00483652
-0.00597352
-0.00717199
-0.00840641
-0.00965325
-0.0108912
-0.0121009
-0.0132649
-0.0143667
-0.0153914
-0.0163263
-0.0171605
-0.017884
-0.0184884
-0.0189671
-0.0193142
-0.0195249
-0.0195948
-0.0195203
-0.0192991
-0.0189304
-0.018414
-0.0177503
-0.0169402
-0.0159856
-0.0148902
-0.0136576
-0.0122908
-0.010794
-0.00917217
-0.00743038
-0.00557374
-0.00360816
-0.00153993
0.000624905
0.00288005
0.00521808
0.00763094
0.010111
0.0126512
0.0152439
0.0178799
0.0205496
0.0232442
0.0259555
0.0286755
0.0313954
0.0341057
0.0367976
0.0394623
0.0420916
0.0446769
0.0472096
0.0496816
0.052085
0.0544121
0.0566547
0.058805
0.0608552
0.0627979
0.0646268
0.0663355
0.0679182
0.0693692
0.0706834
0.0718564
0.0728853
0.0737681
0.0745035
0.075091
0.0755302
0.0758214
0.0759656
0.0759649
0.0758235
0.0755468
0.0751416
0.0746155
0.0739773
0.0732364
0.0724035
0.071491
0.0705133
0.0694871
0.0684313
0.0673671
0.0663173
0.0653062
0.0643594
0.0635035
0.0627656
0.0621713
0.0617464
0.0615352
0.0615673
-0.00116749
-0.00140117
-0.00188427
-0.00258332
-0.00344217
-0.00441943
-0.00548137
-0.0066
-0.00775178
-0.00891439
-0.0100677
-0.0111939
-0.0122765
-0.0133005
-0.0142521
-0.0151188
-0.0158905
-0.0165583
-0.0171137
-0.0175498
-0.0178611
-0.0180427
-0.0180903
-0.0180007
-0.0177719
-0.0174024
-0.0168914
-0.0162397
-0.0154484
-0.0145195
-0.0134559
-0.0122607
-0.0109365
-0.0094874
-0.00791851
-0.00623463
-0.00444045
-0.00254143
-0.000543577
0.00154726
0.00372489
0.0059821
0.00831125
0.0107053
0.0131576
0.0156605
0.018205
0.0207818
0.0233824
0.0259995
0.0286255
0.0312515
0.0338684
0.0364673
0.0390402
0.0415792
0.0440762
0.0465228
0.0489109
0.0512327
0.0534809
0.0556479
0.0577263
0.0597085
0.0615877
0.0633574
0.0650116
0.0665448
0.0679517
0.0692275
0.0703683
0.0713714
0.0722349
0.0729577
0.0735391
0.0739789
0.0742774
0.0744356
0.0744561
0.0743427
0.0741009
0.0737374
0.0732593
0.072675
0.0719933
0.0712243
0.0703796
0.0694726
0.0685188
0.0675357
0.0665424
0.0655593
0.0646082
0.0637114
0.0628919
0.0621729
0.0615771
0.0611275
0.0608577
0.0607893
-0.000592814
-0.000934094
-0.00145653
-0.00214865
-0.0029799
-0.0039169
-0.00492946
-0.00599142
-0.00708112
-0.00817881
-0.00926538
-0.0103242
-0.0113404
-0.0122999
-0.0131902
-0.0139997
-0.0147183
-0.0153375
-0.0158503
-0.0162496
-0.0165296
-0.0166854
-0.0167132
-0.0166102
-0.0163744
-0.0160039
-0.0154982
-0.0148577
-0.0140837
-0.0131781
-0.0121434
-0.0109821
-0.00969677
-0.00829155
-0.00677135
-0.00514064
-0.00340363
-0.00156542
0.000368052
0.00239085
0.00449692
0.00667954
0.00893178
0.0112471
0.0136187
0.016039
0.0184991
0.02099
0.0235044
0.0260353
0.028575
0.0311149
0.0336459
0.0361595
0.0386483
0.0411048
0.0435213
0.0458893
0.0482007
0.050448
0.0526241
0.0547221
0.0567349
0.0586553
0.0604765
0.0621922
0.0637967
0.0652847
0.0666513
0.0678923
0.069004
0.0699835
0.0708292
0.0715401
0.0721154
0.0725549
0.0728591
0.0730291
0.0730673
0.0729776
0.0727653
0.0724368
0.071999
0.0714595
0.0708267
0.0701099
0.0693199
0.0684691
0.0675719
0.066644
0.0657028
0.0647664
0.0638539
0.0629849
0.0621791
0.0614565
0.0608368
0.0603404
0.0599859
0.0597821
0.000226041
-0.000256622
-0.000855631
-0.00157716
-0.00241359
-0.00333832
-0.00432608
-0.00535419
-0.00640238
-0.00745347
-0.00849058
-0.00949794
-0.010462
-0.0113704
-0.012211
-0.0129735
-0.0136486
-0.0142277
-0.0147042
-0.0150718
-0.0153249
-0.0154589
-0.01547
-0.0153554
-0.0151132
-0.0147419
-0.0142409
-0.0136108
-0.0128527
-0.0119681
-0.0109592
-0.00982818
-0.00857791
-0.00721244
-0.00573639
-0.00415368
-0.00246816
-0.000684813
0.00119032
0.00315131
0.00519244
0.00730759
0.00949033
0.0117343
0.0140327
0.0163778
0.0187611
0.0211744
0.0236107
0.0260634
0.0285249
0.0309866
0.0334397
0.0358763
0.0382893
0.0406715
0.0430153
0.0453123
0.0475545
0.0497345
0.0518457
0.0538815
0.0558353
0.0577001
0.0594691
0.0611362
0.0626958
0.0641431
0.0654737
0.0666834
0.0677687
0.068727
0.0695565
0.0702561
0.0708252
0.0712636
0.0715719
0.0717512
0.0718037
0.0717333
0.0715451
0.071245
0.0708396
0.070336
0.0697419
0.0690659
0.068318
0.0675095
0.0666535
0.0657643
0.0648574
0.0639488
0.0630554
0.0621942
0.0613821
0.0606358
0.059973
0.0594112
0.0589523
0.0585907
0.00122569
0.000582375
-0.000116079
-0.000892923
-0.00176035
-0.0026966
-0.00368113
-0.0046952
-0.00572083
-0.0067421
-0.00774513
-0.00871589
-0.00964132
-0.0105102
-0.011312
-0.0120373
-0.0126772
-0.0132239
-0.0136707
-0.0140117
-0.0142422
-0.0143577
-0.0143547
-0.0142304
-0.013983
-0.013611
-0.0131144
-0.0124939
-0.0117502
-0.0108843
-0.00989817
-0.00879429
-0.00757559
-0.00624591
-0.00480933
-0.00326939
-0.0016299
0.000104007
0.0019264
0.00383165
0.00581449
0.00786924
0.00998961
0.0121692
0.0144013
0.0166784
0.0189925
0.0213361
0.0237022
0.0260844
0.0284753
0.0308664
0.0332494
0.0356168
0.0379619
0.0402775
0.0425559
0.0447891
0.0469691
0.0490887
0.0511418
0.0531221
0.0550231
0.056838
0.0585604
0.060184
0.0617036
0.0631146
0.0644129
0.0655946
0.0666563
0.0675954
0.06841
0.069099
0.0696619
0.0700985
0.0704094
0.0705956
0.0706593
0.0706041
0.0704348
0.0701571
0.0697769
0.0693008
0.068736
0.0680904
0.067373
0.0665943
0.0657658
0.0649004
0.064012
0.0631149
0.0622237
0.0613532
0.0605177
0.0597314
0.0590096
0.0583679
0.0577908
0.0572579
0.00235603
0.00154121
0.000728561
-0.000120986
-0.00103897
-0.00200671
-0.00300647
-0.0040232
-0.0050424
-0.00604976
-0.00703264
-0.00797932
-0.00887829
-0.00971895
-0.0104919
-0.0111886
-0.0118011
-0.012322
-0.0127451
-0.0130649
-0.0132768
-0.0133771
-0.0133624
-0.0132301
-0.0129784
-0.0126065
-0.0121143
-0.0115023
-0.0107712
-0.00992167
-0.00895584
-0.00787631
-0.00668589
-0.00538797
-0.00398625
-0.0024842
-0.000885747
0.000803937
0.00257915
0.0044347
0.0063657
0.00836665
0.0104313
0.0125532
0.0147258
0.016942
0.0191944
0.0214756
0.0237791
0.0260981
0.0284256
0.0307535
0.0330739
0.0353797
0.0376641
0.0399202
0.0421405
0.0443167
0.0464411
0.048507
0.0505084
0.0524393
0.0542936
0.0560644
0.0577453
0.0593303
0.0608145
0.0621934
0.0634633
0.0646203
0.0656611
0.0665829
0.067384
0.0680631
0.0686198
0.0690539
0.069366
0.069557
0.0696289
0.0695851
0.0694301
0.0691691
0.0688076
0.0683515
0.0678075
0.0671827
0.0664854
0.0657249
0.0649117
0.0640571
0.0631736
0.0622737
0.0613704
0.0604762
0.0596033
0.0587634
0.0579704
0.0572378
0.0565331
0.0558221
0.00357618
0.00258476
0.00164846
0.000713756
-0.000269203
-0.00128369
-0.00231397
-0.00334857
-0.00437518
-0.00538195
-0.00635756
-0.00729172
-0.00817474
-0.00899726
-0.00975063
-0.010427
-0.011019
-0.0115203
-0.0119252
-0.0122285
-0.0124261
-0.0125142
-0.0124899
-0.0123511
-0.0120964
-0.0117252
-0.0112372
-0.0106328
-0.00991248
-0.0090774
-0.00812965
-0.00707173
-0.00590616
-0.00463601
-0.00326484
-0.00179619
-0.00023407
0.00141651
0.00315017
0.00496201
0.00684734
0.0088007
0.0108159
0.0128866
0.0150065
0.0171689
0.0193667
0.0215927
0.0238404
0.0261034
0.0283747
0.0306466
0.0329117
0.0351629
0.0373937
0.0395973
0.041766
0.043892
0.0459675
0.0479861
0.0499421
0.0518298
0.0536431
0.0553753
0.0570199
0.0585712
0.0600244
0.0613755
0.0626207
0.0637562
0.0647786
0.0656852
0.0664741
0.0671442
0.0676949
0.0681261
0.0684382
0.068632
0.0687095
0.0686736
0.0685286
0.0682791
0.0679303
0.0674873
0.0669563
0.0663437
0.065657
0.0649045
0.0640955
0.0632404
0.0623499
0.0614353
0.0605076
0.0595778
0.0586559
0.0577517
0.0568779
0.0560463
0.0552084
0.0543164
0.00485325
0.0036826
0.00261644
0.00158836
0.000530158
-0.000543313
-0.00161666
-0.00268132
-0.00372754
-0.00474528
-0.00572481
-0.00665704
-0.00753368
-0.00834687
-0.00908885
-0.00975225
-0.0103305
-0.010818
-0.0112097
-0.0115009
-0.0116875
-0.0117664
-0.0117349
-0.0115914
-0.0113349
-0.0109646
-0.0104804
-0.00988257
-0.00917185
-0.00834954
-0.00741774
-0.00637864
-0.0052345
-0.00398831
-0.00264367
-0.00120419
0.000326169
0.00194269
0.00364027
0.00541417
0.00725971
0.00917145
0.0111433
0.0131691
0.015243
0.0173584
0.0195084
0.021686
0.0238848
0.0260986
0.0283208
0.0305439
0.0327606
0.0349642
0.0371482
0.039306
0.0414298
0.043512
0.0455451
0.0475228
0.0494397
0.0512901
0.0530681
0.0547671
0.0563805
0.057903
0.0593297
0.060657
0.0618811
0.0629983
0.0640051
0.0648986
0.0656769
0.0663389
0.0668839
0.0673118
0.0676229
0.0678179
0.0678986
0.0678676
0.0677287
0.0674861
0.0671443
0.0667082
0.0661831
0.0655749
0.0648903
0.0641367
0.0633225
0.0624568
0.0615493
0.0606097
0.0596475
0.058672
0.0576918
0.0567148
0.0557529
0.0548169
0.0538425
0.0527694
0.00615862
0.00480958
0.00360973
0.00248163
0.00134082
0.000199604
-0.000927295
-0.00203225
-0.00310823
-0.00414685
-0.00513988
-0.00607955
-0.00695867
-0.0077704
-0.00850799
-0.009165
-0.00973572
-0.010215
-0.0105982
-0.0108809
-0.0110598
-0.0111322
-0.0110959
-0.0109495
-0.0106921
-0.0103229
-0.00984205
-0.00925006
-0.00854785
-0.00773674
-0.00681865
-0.00579555
-0.00466962
-0.00344391
-0.00212205
-0.000707607
0.000795569
0.00238296
0.00404972
0.00579115
0.00760251
0.00947838
0.0114128
0.0134001
0.0154343
0.0175093
0.0196182
0.0217541
0.0239108
0.0260822
0.0282621
0.0304432
0.0326184
0.0347812
0.0369252
0.0390437
0.0411292
0.0431741
0.0451711
0.0471142
0.0489982
0.0508173
0.0525656
0.0542366
0.0558239
0.0573222
0.058727
0.0600346
0.0612413
0.0623434
0.0633373
0.06422
0.0649894
0.0656444
0.0661842
0.0666087
0.066918
0.0671129
0.0671946
0.0671658
0.0670296
0.0667896
0.0664499
0.0660148
0.0654893
0.0648786
0.0641887
0.0634261
0.0625984
0.0617137
0.0607805
0.0598071
0.0588018
0.0577725
0.0567264
0.0556698
0.0546144
0.05357
0.0524575
0.0512049
0.00746832
0.00594348
0.0046084
0.00337544
0.00214602
0.000930489
-0.000257816
-0.00141199
-0.00252625
-0.00359413
-0.00460898
-0.0055642
-0.00645347
-0.00727075
-0.00801038
-0.00866706
-0.00923576
-0.00971163
-0.0100904
-0.0103683
-0.0105427
-0.0106113
-0.0105724
-0.0104245
-0.0101667
-0.00979884
-0.00932109
-0.00873436
-0.00803959
-0.00723801
-0.00633133
-0.00532151
-0.00421082
-0.00300233
-0.00169963
-0.000306177
0.00117431
0.00273743
0.00437842
0.00609258
0.00787513
0.00972073
0.0116237
0.0135785
0.0155795
0.0176204
0.0196946
0.0217954
0.0239166
0.0260524
0.0281967
0.0303426
0.0324832
0.0346119
0.0367225
0.0388082
0.0408619
0.0428758
0.0448431
0.046758
0.048615
0.0504087
0.0521328
0.053781
0.0553472
0.0568261
0.0582134
0.0595053
0.0606983
0.0617886
0.0627724
0.0636466
0.064409
0.0650583
0.0655936
0.0660148
0.0663219
0.0665155
0.0665966
0.0665675
0.0664309
0.0661899
0.0658479
0.0654089
0.0648773
0.0642579
0.0635562
0.0627778
0.0619296
0.0610186
0.0600521
0.0590375
0.0579818
0.0568919
0.0557736
0.0546323
0.0534792
0.0523237
0.0510727
0.049643
0.00876182
0.00706449
0.00559446
0.00425374
0.00293078
0.00163531
0.00037995
-0.000830414
-0.00199048
-0.00309505
-0.00413884
-0.0051164
-0.0060223
-0.00685145
-0.00759918
-0.00826101
-0.00883236
-0.00930888
-0.0096869
-0.00996358
-0.0101366
-0.010204
-0.010164
-0.0100156
-0.00975818
-0.00939178
-0.00891706
-0.00833498
-0.00764643
-0.00685257
-0.00595508
-0.00495601
-0.00385773
-0.00266331
-0.00137618
2.98701e-07
0.00146249
0.00300604
0.00462613
0.00631804
0.008077
0.00989786
0.0117752
0.0137036
0.0156774
0.0176906
0.0197365
0.0218085
0.0239008
0.0260078
0.0281233
0.0302407
0.0323532
0.0344544
0.0365381
0.0385976
0.0406258
0.0426152
0.0445592
0.0464519
0.048288
0.0500618
0.0517673
0.053398
0.054948
0.0564122
0.0577863
0.0590668
0.0602498
0.0613316
0.0623082
0.0631764
0.0639337
0.0645786
0.0651103
0.0655286
0.0658333
0.0660249
0.0661041
0.0660726
0.0659329
0.0656875
0.0653394
0.0648922
0.0643497
0.0637165
0.0629973
0.0621973
0.0613224
0.0603787
0.0593725
0.0583103
0.057198
0.0560417
0.0548462
0.0536158
0.0523618
0.0510933
0.0497041
0.0481002
0.0100218
0.0081554
0.00655141
0.00510132
0.00368145
0.00230164
0.000974124
-0.000297732
-0.00150976
-0.00265738
-0.0037362
-0.00474189
-0.00567013
-0.00651681
-0.00727797
-0.00794959
-0.00852764
-0.00900855
-0.00938951
-0.00966819
-0.00984249
-0.00991057
-0.00987097
-0.00972291
-0.00946638
-0.00910176
-0.00862982
-0.00805154
-0.0073678
-0.00657983
-0.00568943
-0.00469872
-0.00361012
-0.00242656
-0.00115133
0.000212214
0.0016604
0.00318885
0.00479275
0.00646733
0.00820789
0.0100095
0.0118669
0.0137748
0.0157276
0.0177192
0.019743
0.0217927
0.0238626
0.0259472
0.0280406
0.0301361
0.0322272
0.0343075
0.0363707
0.0384104
0.0404195
0.0423908
0.0443177
0.0461943
0.0480151
0.0497747
0.0514669
0.0530853
0.0546242
0.0560784
0.0574438
0.0587168
0.0598937
0.0609702
0.0619426
0.0628071
0.0635614
0.0642036
0.0647328
0.0651488
0.0654512
0.0656403
0.0657165
0.065681
0.0655359
0.0652833
0.0649258
0.0644666
0.0639093
0.0632577
0.0625162
0.0616895
0.0607824
0.0598005
0.058749
0.0576335
0.0564594
0.0552319
0.0539551
0.0526322
0.0512748
0.0498921
0.0483652
0.0465903
0.0112342
0.00920127
0.00746436
0.00590435
0.00438521
0.00291768
0.00151358
0.000175817
-0.00109291
-0.00228873
-0.00340785
-0.00444687
-0.00540252
-0.00627156
-0.00705048
-0.00773579
-0.00832428
-0.00881327
-0.00920052
-0.0094839
-0.0096615
-0.00973174
-0.00969362
-0.00954685
-0.00929176
-0.00892896
-0.00845929
-0.00788371
-0.00720327
-0.00641941
-0.00553408
-0.00454936
-0.00346755
-0.00229151
-0.00102449
0.000330112
0.00176849
0.00328622
0.00487849
0.0065406
0.00826796
0.0100558
0.0118989
0.0137922
0.0157298
0.0177058
0.0197137
0.0217475
0.0238015
0.0258703
0.027948
0.0300282
0.0321043
0.0341701
0.0362193
0.0382455
0.0402418
0.0422012
0.0441171
0.0459834
0.0477948
0.0495457
0.05123
0.0528413
0.054374
0.055823
0.0571841
0.0584538
0.0596281
0.0607029
0.0616738
0.0625372
0.0632904
0.0639316
0.0644597
0.0648741
0.0651745
0.0653608
0.0654332
0.0653925
0.0652401
0.064978
0.0646083
0.064134
0.0635583
0.0628846
0.0621168
0.0612586
0.0603147
0.0592895
0.0581878
0.0570143
0.0557739
0.0544712
0.0531095
0.0516915
0.0502288
0.0487312
0.0470676
0.0451247
0.0123869
0.0101892
0.00831995
0.00664985
0.00503004
0.00347192
0.00198805
0.00058053
-0.000748825
-0.00199697
-0.00316089
-0.00423781
-0.0052252
-0.00612049
-0.00692078
-0.00762331
-0.00822578
-0.00872615
-0.00912239
-0.00941255
-0.009595
-0.00966868
-0.00963309
-0.00948833
-0.00923496
-0.0088737
-0.00840543
-0.00783131
-0.00715269
-0.00637123
-0.00548882
-0.00450746
-0.0034294
-0.00225746
-0.000994936
0.000354636
0.0017873
0.0032986
0.00488382
0.00653836
0.00825771
0.0100371
0.0118716
0.0137558
0.0156841
0.0176504
0.0196486
0.0216727
0.0237172
0.0257767
0.0278452
0.0299164
0.0319839
0.0340415
0.0360831
0.0381022
0.040092
0.0420456
0.0439563
0.0458182
0.0476258
0.0493735
0.0510552
0.0526646
0.054196
0.0556445
0.0570058
0.0582762
0.0594517
0.0605278
0.0615002
0.0623649
0.0631193
0.0637613
0.0642896
0.0647036
0.0650026
0.0651861
0.0652541
0.0652071
0.0650461
0.0647725
0.0643884
0.0638964
0.0632993
0.0626001
0.0618022
0.0609087
0.0599236
0.0588508
0.0576947
0.0564592
0.0551488
0.0537674
0.0523179
0.0508025
0.0492333
0.0476204
0.0458213
0.0437134
0.0134684
0.0111077
0.00910632
0.00732556
0.00560435
0.00395374
0.00238756
0.000907097
-0.000486263
-0.00179026
-0.00300263
-0.00412117
-0.00514385
-0.00606867
-0.0068936
-0.00761671
-0.00823627
-0.00875056
-0.00915778
-0.00945631
-0.00964494
-0.00972318
-0.00969097
-0.00954864
-0.00929682
-0.00893639
-0.00846852
-0.00789465
-0.00721636
-0.0064354
-0.00555355
-0.00457272
-0.00349518
-0.00232386
-0.00106219
0.000286162
0.00171716
0.00322638
0.0048092
0.00646109
0.00817757
0.00995392
0.0117851
0.0136658
0.0155905
0.0175531
0.0195476
0.0215683
0.0236095
0.0256659
0.0277316
0.0298002
0.0318654
0.0339212
0.0359613
0.0379795
0.039969
0.0419228
0.0438343
0.0456976
0.047507
0.049257
0.0509413
0.0525539
0.0540891
0.0555417
0.0569077
0.0581829
0.0593632
0.0604439
0.0614207
0.0622894
0.0630472
0.0636919
0.0642221
0.0646368
0.0649351
0.0651162
0.0651796
0.0651256
0.0649548
0.0646684
0.0642681
0.0637562
0.0631351
0.0624075
0.0615762
0.0606439
0.059614
0.0584899
0.0572756
0.0559747
0.0545909
0.053128
0.0515884
0.0499738
0.0482971
0.0465689
0.0446356
0.0423654
0.0144673
0.0119456
0.00981276
0.00792071
0.00609711
0.00435298
0.00270237
0.00114641
-0.000313811
-0.00167664
-0.00294042
-0.00410353
-0.00516445
-0.00612182
-0.00697441
-0.00772094
-0.00836004
-0.00889016
-0.00930983
-0.00961796
-0.00981396
-0.00989767
-0.00986929
-0.00972931
-0.00947854
-0.00911812
-0.00864958
-0.00807464
-0.00739503
-0.00661243
-0.00572853
-0.00474521
-0.00366494
-0.00249083
-0.00122643
0.000124499
0.00155791
0.00306945
0.00465457
0.00630874
0.00802743
0.0098059
0.0116391
0.0135218
0.0154485
0.0174132
0.0194101
0.0214335
0.0234777
0.0255373
0.0276063
0.0296786
0.0317478
0.0338079
0.0358529
0.0378764
0.0398717
0.0418317
0.0437499
0.0456202
0.0474371
0.0491948
0.0508871
0.0525081
0.054052
0.0555137
0.0568887
0.0581728
0.0593616
0.0604505
0.0614346
0.0623101
0.0630738
0.0637234
0.0642572
0.064674
0.0649726
0.0651518
0.0652108
0.0651495
0.0649683
0.0646681
0.0642502
0.0637165
0.0630693
0.0623108
0.0614433
0.0604692
0.0593913
0.0582128
0.0569372
0.0555678
0.054108
0.0525611
0.0509294
0.0492143
0.0474293
0.0455859
0.0435193
0.0410891
0.0153731
0.0126924
0.010429
0.0084255
0.00649826
0.00465941
0.00292281
0.00128946
-0.000239936
-0.00166404
-0.00298168
-0.00419187
-0.00529365
-0.00628626
-0.00716908
-0.00794125
-0.0086016
-0.00914893
-0.0095823
-0.00990115
-0.0101053
-0.010195
-0.0101705
-0.0100324
-0.00978196
-0.00942064
-0.00895032
-0.00837288
-0.00769002
-0.00690337
-0.0060146
-0.00502578
-0.0039396
-0.00275935
-0.00148863
-0.000131248
0.00130875
0.00282705
0.00441917
0.00608049
0.00780638
0.00959204
0.0114325
0.0133227
0.0152569
0.0172296
0.0192349
0.021267
0.0233203
0.0253891
0.0274677
0.0295498
0.0316292
0.0337
0.0357562
0.0377912
0.0397983
0.0417705
0.0437013
0.0455846
0.0474146
0.0491855
0.0508913
0.0525259
0.0540836
0.0555592
0.0569478
0.058245
0.0594463
0.0605468
0.0615418
0.0624271
0.0631993
0.0638561
0.0643955
0.064816
0.0651161
0.0652944
0.0653496
0.0652812
0.0650893
0.0647745
0.0643379
0.0637812
0.0631061
0.0623146
0.0614086
0.0603901
0.0592617
0.0580262
0.0566865
0.055246
0.0537078
0.052075
0.0503495
0.0485327
0.0466389
0.0446802
0.0424811
0.0398922
0.0161765
0.0133385
0.0109451
0.00883
0.00679847
0.00486346
0.00303967
0.0013275
-0.000272916
-0.00176038
-0.00313405
-0.00439351
-0.00553846
-0.00656861
-0.00748361
-0.00828293
-0.00896581
-0.00953151
-0.00997959
-0.01031
-0.0105228
-0.0106184
-0.0105973
-0.0104606
-0.0102097
-0.00984652
-0.00937316
-0.00879147
-0.00810314
-0.00730984
-0.00641338
-0.00541604
-0.00432082
-0.00313107
-0.00185041
-0.000482634
0.00096818
0.00249774
0.0041015
0.00577474
0.00751269
0.00931056
0.0111635
0.0130665
0.0150139
0.0170003
0.0190198
0.0210666
0.0231349
0.0252191
0.0273133
0.0294114
0.0315074
0.0335952
0.0356686
0.0377214
0.0397465
0.0417371
0.0436865
0.0455885
0.0474373
0.0492272
0.050952
0.0526057
0.0541825
0.0556768
0.0570837
0.0583985
0.0596164
0.0607325
0.0617418
0.06264
0.0634238
0.0640904
0.0646377
0.0650639
0.0653671
0.0655456
0.0655978
0.0655228
0.0653203
0.0649907
0.0645348
0.063954
0.0632498
0.0624238
0.0614775
0.0604127
0.0592317
0.0579368
0.0565311
0.0550173
0.0533987
0.0516781
0.0498574
0.0479379
0.0459345
0.0438602
0.0415287
0.038782
0.0168691
0.0138748
0.0113518
0.00912477
0.00698867
0.00495656
0.00304434
0.00125192
-0.000420987
-0.00197354
-0.00340524
-0.00471598
-0.00590595
-0.00697531
-0.00792396
-0.00875161
-0.009458
-0.010043
-0.0105065
-0.0108489
-0.0110704
-0.0111716
-0.0111534
-0.0110172
-0.010765
-0.0103989
-0.00992086
-0.00933289
-0.00863667
-0.00783405
-0.00692705
-0.00591823
-0.00481078
-0.00360811
-0.00231378
-0.000931579
0.000534331
0.00207958
0.00369954
0.00538936
0.00714418
0.00895927
0.0108299
0.012751
0.0147173
0.0167231
0.0187625
0.0208297
0.0229191
0.0250246
0.0271405
0.0292609
0.0313796
0.0334906
0.0355877
0.0376644
0.0397138
0.0417289
0.0437029
0.0456296
0.0475032
0.0493178
0.0510674
0.0527457
0.0543468
0.055865
0.0572951
0.0586321
0.0598711
0.0610068
0.0620342
0.0629489
0.0637473
0.0644266
0.0649844
0.0654186
0.0657269
0.0659072
0.0659575
0.0658767
0.0656642
0.0653199
0.0648446
0.0642393
0.0635052
0.0626436
0.0616558
0.0605432
0.0593078
0.0579519
0.0564782
0.0548895
0.0531887
0.0513788
0.0494615
0.047438
0.0453242
0.0431335
0.0406692
0.0377644
0.0174436
0.014293
0.0116403
0.00930127
0.00706006
0.00493022
0.00292836
0.00105433
-0.000692454
-0.00231162
-0.00380296
-0.0051666
-0.00640306
-0.00751286
-0.00849621
-0.00935316
-0.0100839
-0.0106888
-0.0111681
-0.0115224
-0.0117522
-0.0118584
-0.0118425
-0.0117061
-0.0114515
-0.0110809
-0.0105964
-0.00999978
-0.00929311
-0.00847844
-0.00755805
-0.00653473
-0.00541177
-0.00419259
-0.00288071
-0.00147999
5.27836e-06
0.00157059
0.00321123
0.00492228
0.00669883
0.00853619
0.0104297
0.0123745
0.014365
0.0163957
0.0184607
0.0205542
0.0226704
0.0248033
0.0269471
0.0290959
0.0312436
0.0333841
0.0355112
0.0376181
0.039698
0.0417437
0.0437485
0.045706
0.0476104
0.0494558
0.0512359
0.0529445
0.0545753
0.0561226
0.0575808
0.0589449
0.0602095
0.0613692
0.0624187
0.0633536
0.0641702
0.0648655
0.0654367
0.0658814
0.066197
0.0663809
0.0664309
0.0663455
0.0661238
0.0657655
0.065271
0.0646411
0.0638769
0.0629792
0.061949
0.0607874
0.0594964
0.0580781
0.056535
0.0548698
0.0530854
0.0511848
0.0491695
0.0470407
0.044815
0.0425068
0.0399085
0.0368448
0.0178923
0.0145856
0.0118027
0.00935124
0.0070042
0.00477597
0.0026834
0.000726517
-0.00109542
-0.00278246
-0.0043347
-0.00575251
-0.00703662
-0.00818781
-0.00920667
-0.0100937
-0.0108494
-0.0114744
-0.0119695
-0.0123354
-0.0125729
-0.0126835
-0.0126689
-0.0125313
-0.0122729
-0.0118959
-0.0114026
-0.0107949
-0.0100751
-0.00924565
-0.00830894
-0.00726792
-0.00612597
-0.00488651
-0.00355309
-0.00212972
-0.000620871
0.000968867
0.00263473
0.00437172
0.00617494
0.0080397
0.00996142
0.0119352
0.0139555
0.0160167
0.0181129
0.0202385
0.0223874
0.0245537
0.0267315
0.0289149
0.0310979
0.0332743
0.0354376
0.037581
0.0396975
0.04178
0.0438218
0.0458165
0.0477578
0.0496399
0.0514565
0.053201
0.0548671
0.0564489
0.0579405
0.0593366
0.0606316
0.0618197
0.0628957
0.063855
0.0646935
0.0654081
0.0659959
0.066454
0.0667793
0.0669689
0.0670205
0.066932
0.0667024
0.066331
0.065818
0.065164
0.0643696
0.0634355
0.0623624
0.0611512
0.0598037
0.0583218
0.056708
0.054965
0.0530956
0.0511027
0.0489878
0.0467521
0.0444128
0.0419853
0.0392516
0.0360274
0.0182081
0.0147452
0.0118317
0.00926677
0.00681303
0.0044855
0.00230143
0.000260656
-0.00163763
-0.00339361
-0.00500776
-0.00648077
-0.00781347
-0.00900682
-0.0100618
-0.0109793
-0.0117602
-0.0124054
-0.0129158
-0.0132926
-0.0135372
-0.0136513
-0.0136372
-0.0134969
-0.0132328
-0.0128473
-0.0123427
-0.0117214
-0.0109857
-0.0101385
-0.00918235
-0.00812022
-0.00695558
-0.00569192
-0.00433292
-0.00288276
-0.00134607
0.000272519
0.00196823
0.00373605
0.005571
0.00746841
0.00942369
0.0114319
0.0134874
0.0155847
0.0177179
0.0198813
0.0220689
0.0242747
0.0264927
0.028717
0.0309415
0.03316
0.0353658
0.0375519
0.0397114
0.0418371
0.0439222
0.0459602
0.0479449
0.0498698
0.0517287
0.053515
0.0552221
0.0568438
0.0583742
0.0598075
0.0611378
0.0623592
0.0634663
0.0644541
0.0653187
0.0660564
0.0666642
0.0671385
0.0674762
0.0676741
0.0677293
0.0676396
0.0674035
0.0670204
0.06649
0.0658125
0.0649882
0.0640177
0.0629013
0.06164
0.0602352
0.0586889
0.0570033
0.0551812
0.0532253
0.0511385
0.0489221
0.0465775
0.0441227
0.0415741
0.0387029
0.0353165
0.0183841
0.014764
0.0117194
0.00904007
0.00647859
0.00405069
0.00177435
-0.000351148
-0.00232681
-0.00415273
-0.00582969
-0.00735869
-0.00874067
-0.00997675
-0.0110682
-0.0120163
-0.0128222
-0.0134872
-0.0140124
-0.0143994
-0.0146503
-0.0147669
-0.0147517
-0.014607
-0.0143351
-0.0139386
-0.0134202
-0.0127824
-0.0120281
-0.0111601
-0.0101812
-0.00909427
-0.00790308
-0.00661123
-0.00522256
-0.00374141
-0.00217251
-0.000520511
0.00120985
0.00301352
0.00488542
0.00682081
0.00881507
0.0108632
0.0129596
0.0150986
0.0172746
0.0194817
0.0217141
0.0239655
0.02623
0.0285016
0.030774
0.0330408
0.0352953
0.0375304
0.0397392
0.0419144
0.0440493
0.0461371
0.0481712
0.0501453
0.0520526
0.0538866
0.0556405
0.0573079
0.0588826
0.0603584
0.0617292
0.0629889
0.0641318
0.0651529
0.0660478
0.0668127
0.0674439
0.0679378
0.0682909
0.0684996
0.0685608
0.068472
0.0682316
0.0678383
0.0672916
0.0665915
0.0657379
0.0647312
0.0635715
0.0622597
0.060797
0.0591854
0.057427
0.0555244
0.0534804
0.0512978
0.048978
0.0465222
0.0439499
0.0412781
0.0382677
0.0347168
0.0184135
0.0146348
0.0114578
0.00866335
0.00599311
0.00346376
0.00109414
-0.00111696
-0.00317083
-0.00506766
-0.00680828
-0.00839382
-0.00982547
-0.0111046
-0.0122327
-0.0132112
-0.0140418
-0.0147258
-0.0152651
-0.0156616
-0.0159176
-0.0160354
-0.0160173
-0.015866
-0.0155838
-0.0151739
-0.014639
-0.0139822
-0.0132062
-0.0123142
-0.0113088
-0.0101934
-0.00897169
-0.00764763
-0.00622515
-0.00470872
-0.00310313
-0.00141301
0.00035695
0.00220161
0.00411577
0.00609455
0.00813326
0.0102268
0.0123697
0.0145563
0.016781
0.019038
0.0213214
0.0236248
0.0259422
0.0282674
0.030594
0.0329154
0.0352249
0.0375154
0.0397799
0.0420112
0.0442023
0.0463463
0.0484364
0.0504658
0.0524278
0.0543156
0.0561223
0.0578413
0.059466
0.0609899
0.0624066
0.0637099
0.0648938
0.065953
0.0668829
0.0676791
0.0683377
0.0688548
0.0692264
0.069449
0.069519
0.0694338
0.069191
0.0687894
0.068228
0.0675064
0.0666244
0.065582
0.0643792
0.0630167
0.0614957
0.0598179
0.0579856
0.0560012
0.0538675
0.0515872
0.0491618
0.0465928
0.0439007
0.0411038
0.037952
0.0342342
0.0182895
0.01435
0.011039
0.00812864
0.0053487
0.00271676
0.0002526
-0.00204507
-0.00417796
-0.0061465
-0.0079514
-0.00959385
-0.0110753
-0.0123975
-0.0135621
-0.0145707
-0.0154253
-0.0161277
-0.0166802
-0.0170851
-0.0173449
-0.017462
-0.0174391
-0.0172787
-0.016984
-0.016558
-0.0160041
-0.0153253
-0.0145245
-0.0136049
-0.0125695
-0.0114216
-0.0101655
-0.00880523
-0.00734477
-0.00578869
-0.00414181
-0.00240871
-0.000594096
0.00129678
0.00325851
0.00528611
0.00737482
0.00951954
0.0117147
0.0139548
0.0162343
0.0185475
0.0208882
0.0232501
0.0256267
0.0280118
0.030399
0.0327816
0.0351525
0.0375048
0.0398316
0.0421255
0.0443795
0.0465863
0.0487388
0.0508301
0.0528533
0.0548012
0.0566669
0.0584435
0.0601242
0.0617022
0.0631707
0.0645232
0.0657535
0.066856
0.0678256
0.0686578
0.069348
0.0698922
0.0702863
0.0705261
0.0706082
0.0705293
0.0702869
0.0698791
0.0693048
0.0685632
0.067654
0.0665767
0.0653313