/*--------------------------------*- C++ -*----------------------------------*\
  =========                 |
  \\      /  F ield         | OpenFOAM: The Open Source CFD Toolbox
   \\    /   O peration     | Website:  https://openfoam.org
    \\  /    A nd           | Version:  11
     \\/     M anipulation  |
\*---------------------------------------------------------------------------*/
FoamFile
{
    format      ascii;
    class       volVectorField;
    location    "4.6";
    object      U;
}
// * * * * * * * * * * * * * * * * * * * * * * * * * * * * * * * * * * * * * //

dimensions      [0 1 -1 0 0 0 0];

internalField   nonuniform List<vector> 
10100
(
(-1.2679e-07 -6.08995e-06 0)
(1.48871e-05 -1.11995e-05 0)
(3.21121e-05 -9.13887e-06 0)
(4.98908e-05 -7.33308e-06 0)
(5.93455e-05 -4.72104e-06 0)
(6.10527e-05 -1.7331e-06 0)
(5.38492e-05 1.40669e-06 0)
(3.72633e-05 4.55518e-06 0)
(1.1225e-05 7.62209e-06 0)
(-2.40852e-05 1.0564e-05 0)
(-6.83207e-05 1.33377e-05 0)
(-0.000121028 1.59223e-05 0)
(-0.000181673 1.83132e-05 0)
(-0.000249686 2.05039e-05 0)
(-0.000324455 2.24854e-05 0)
(-0.000405343 2.42565e-05 0)
(-0.000491712 2.58227e-05 0)
(-0.000582924 2.71836e-05 0)
(-0.000678349 2.83496e-05 0)
(-0.000777372 2.93228e-05 0)
(-0.000879383 3.01047e-05 0)
(-0.000983808 3.07182e-05 0)
(-0.00109008 3.11724e-05 0)
(-0.00119763 3.1469e-05 0)
(-0.00130595 3.16163e-05 0)
(-0.0014145 3.16073e-05 0)
(-0.00152277 3.144e-05 0)
(-0.0016303 3.11351e-05 0)
(-0.0017366 3.07067e-05 0)
(-0.00184124 3.01548e-05 0)
(-0.00194378 2.94835e-05 0)
(-0.00204384 2.86969e-05 0)
(-0.00214103 2.77977e-05 0)
(-0.00223496 2.6797e-05 0)
(-0.00232532 2.57073e-05 0)
(-0.00241176 2.45299e-05 0)
(-0.00249398 2.32628e-05 0)
(-0.00257168 2.19139e-05 0)
(-0.0026446 2.04934e-05 0)
(-0.00271248 1.90029e-05 0)
(-0.00277509 1.74402e-05 0)
(-0.0028322 1.58121e-05 0)
(-0.00288362 1.41321e-05 0)
(-0.00292916 1.24077e-05 0)
(-0.00296866 1.06385e-05 0)
(-0.00300198 8.82508e-06 0)
(-0.003029 6.97523e-06 0)
(-0.00304962 5.10116e-06 0)
(-0.00306376 3.21171e-06 0)
(-0.00307136 1.31062e-06 0)
(-0.0030724 -5.9916e-07 0)
(-0.00306685 -2.51221e-06 0)
(-0.00305471 -4.42068e-06 0)
(-0.00303602 -6.31731e-06 0)
(-0.00301082 -8.19737e-06 0)
(-0.00297918 -1.00565e-05 0)
(-0.00294118 -1.18884e-05 0)
(-0.00289695 -1.3685e-05 0)
(-0.00284661 -1.54378e-05 0)
(-0.00279033 -1.71413e-05 0)
(-0.00272828 -1.8793e-05 0)
(-0.00266066 -2.03888e-05 0)
(-0.0025877 -2.19207e-05 0)
(-0.00250964 -2.33787e-05 0)
(-0.00242675 -2.47529e-05 0)
(-0.00233935 -2.60345e-05 0)
(-0.00224775 -2.72153e-05 0)
(-0.00215232 -2.82869e-05 0)
(-0.00205344 -2.92408e-05 0)
(-0.00195152 -3.00695e-05 0)
(-0.00184699 -3.07677e-05 0)
(-0.0017403 -3.13313e-05 0)
(-0.00163191 -3.17552e-05 0)
(-0.00152232 -3.20339e-05 0)
(-0.00141202 -3.21619e-05 0)
(-0.00130153 -3.21344e-05 0)
(-0.0011914 -3.19478e-05 0)
(-0.00108218 -3.1598e-05 0)
(-0.000974438 -3.10788e-05 0)
(-0.00086876 -3.03825e-05 0)
(-0.000765752 -2.95017e-05 0)
(-0.00066603 -2.84311e-05 0)
(-0.00057022 -2.7167e-05 0)
(-0.000478952 -2.57077e-05 0)
(-0.000392851 -2.4053e-05 0)
(-0.000312542 -2.2204e-05 0)
(-0.000238638 -2.01611e-05 0)
(-0.000171739 -1.79247e-05 0)
(-0.000112421 -1.54977e-05 0)
(-6.12216e-05 -1.28887e-05 0)
(-1.86232e-05 -1.01132e-05 0)
(1.49726e-05 -7.19627e-06 0)
(3.92824e-05 -4.17504e-06 0)
(5.41941e-05 -1.10945e-06 0)
(5.98556e-05 1.89691e-06 0)
(5.68167e-05 4.6625e-06 0)
(4.62249e-05 6.86909e-06 0)
(3.02462e-05 7.94251e-06 0)
(1.33126e-05 6.8896e-06 0)
(2.69496e-06 2.68954e-06 0)
(3.11048e-06 -1.30992e-05 0)
(2.35676e-05 -3.30561e-05 0)
(5.3432e-05 -3.09707e-05 0)
(7.5837e-05 -2.23746e-05 0)
(8.25317e-05 -8.87e-06 0)
(6.95268e-05 7.45963e-06 0)
(3.40017e-05 2.52406e-05 0)
(-2.55202e-05 4.35708e-05 0)
(-0.000109542 6.18211e-05 0)
(-0.000217898 7.96006e-05 0)
(-0.000349928 9.66359e-05 0)
(-0.000504601 0.000112733 0)
(-0.000680676 0.000127765 0)
(-0.000876727 0.000141649 0)
(-0.00109121 0.000154331 0)
(-0.00132251 0.000165773 0)
(-0.00156896 0.000175968 0)
(-0.00182886 0.000184923 0)
(-0.00210054 0.000192652 0)
(-0.00238231 0.00019919 0)
(-0.00267252 0.00020455 0)
(-0.00296954 0.000208758 0)
(-0.00327179 0.000211867 0)
(-0.00357772 0.000213909 0)
(-0.00388581 0.000214903 0)
(-0.00419458 0.00021488 0)
(-0.00450266 0.000213875 0)
(-0.00480863 0.000211926 0)
(-0.00511117 0.000209076 0)
(-0.00540905 0.000205366 0)
(-0.00570105 0.00020084 0)
(-0.00598599 0.000195531 0)
(-0.00626276 0.000189474 0)
(-0.00653035 0.000182707 0)
(-0.00678774 0.000175273 0)
(-0.00703397 0.000167209 0)
(-0.00726816 0.000158546 0)
(-0.00748949 0.000149325 0)
(-0.00769718 0.000139584 0)
(-0.00789047 0.000129356 0)
(-0.00806868 0.000118674 0)
(-0.00823123 0.000107572 0)
(-0.00837754 9.60933e-05 0)
(-0.00850708 8.42791e-05 0)
(-0.00861939 7.21658e-05 0)
(-0.00871409 5.97915e-05 0)
(-0.00879083 4.7198e-05 0)
(-0.00884934 3.44291e-05 0)
(-0.00888937 2.1526e-05 0)
(-0.00891076 8.52812e-06 0)
(-0.00891342 -4.52281e-06 0)
(-0.0088973 -1.75836e-05 0)
(-0.00886241 -3.06121e-05 0)
(-0.00880881 -4.35678e-05 0)
(-0.00873665 -5.64111e-05 0)
(-0.00864613 -6.90998e-05 0)
(-0.00853751 -8.15876e-05 0)
(-0.00841113 -9.3827e-05 0)
(-0.00826735 -0.000105773 0)
(-0.00810665 -0.000117382 0)
(-0.00792953 -0.000128613 0)
(-0.00773661 -0.000139425 0)
(-0.00752853 -0.000149768 0)
(-0.00730602 -0.00015959 0)
(-0.00706987 -0.000168835 0)
(-0.00682094 -0.000177452 0)
(-0.00656018 -0.000185389 0)
(-0.00628858 -0.000192595 0)
(-0.00600724 -0.00019902 0)
(-0.0057173 -0.000204617 0)
(-0.00541996 -0.000209343 0)
(-0.00511648 -0.00021316 0)
(-0.00480818 -0.000216033 0)
(-0.00449645 -0.000217927 0)
(-0.0041827 -0.000218804 0)
(-0.00386843 -0.000218633 0)
(-0.00355515 -0.000217378 0)
(-0.00324445 -0.00021501 0)
(-0.00293793 -0.000211494 0)
(-0.00263723 -0.000206802 0)
(-0.00234401 -0.000200905 0)
(-0.00205999 -0.000193786 0)
(-0.00178687 -0.000185434 0)
(-0.00152637 -0.000175848 0)
(-0.00128017 -0.000165035 0)
(-0.00104996 -0.000153011 0)
(-0.000837358 -0.000139805 0)
(-0.00064391 -0.00012546 0)
(-0.000471069 -0.000110042 0)
(-0.000320149 -9.36501e-05 0)
(-0.000192265 -7.64271e-05 0)
(-8.82685e-05 -5.85799e-05 0)
(-8.64034e-06 -4.04051e-05 0)
(4.66451e-05 -2.23358e-05 0)
(7.83296e-05 -5.01491e-06 0)
(8.81537e-05 1.05825e-05 0)
(7.91797e-05 2.29703e-05 0)
(5.63202e-05 2.98806e-05 0)
(2.79871e-05 2.79381e-05 0)
(6.91522e-06 1.3304e-05 0)
(6.8743e-06 -2.98577e-05 0)
(2.76999e-05 -5.81367e-05 0)
(5.06768e-05 -5.43892e-05 0)
(6.10959e-05 -3.15036e-05 0)
(4.81126e-05 3.63675e-06 0)
(5.67788e-06 4.63746e-05 0)
(-7.0188e-05 9.33848e-05 0)
(-0.000181768 0.00014229 0)
(-0.000330022 0.000191447 0)
(-0.000514894 0.000239689 0)
(-0.000735604 0.000286213 0)
(-0.000990813 0.000330437 0)
(-0.00127876 0.000371946 0)
(-0.0015974 0.000410462 0)
(-0.00194451 0.00044579 0)
(-0.00231767 0.000477811 0)
(-0.00271439 0.000506451 0)
(-0.00313213 0.000531704 0)
(-0.00356832 0.000553587 0)
(-0.00402034 0.000572126 0)
(-0.00448566 0.000587386 0)
(-0.00496172 0.000599429 0)
(-0.005446 0.000608317 0)
(-0.00593609 0.000614146 0)
(-0.0064296 0.000617008 0)
(-0.00692418 0.000616976 0)
(-0.00741758 0.000614147 0)
(-0.00790766 0.000608629 0)
(-0.00839228 0.000600524 0)
(-0.00886942 0.000589938 0)
(-0.00933715 0.000576988 0)
(-0.00979362 0.00056178 0)
(-0.010237 0.000544415 0)
(-0.0106657 0.000525002 0)
(-0.0110781 0.000503652 0)
(-0.0114725 0.00048047 0)
(-0.0118477 0.000455559 0)
(-0.0122023 0.00042903 0)
(-0.0125349 0.000400995 0)
(-0.0128445 0.00037156 0)
(-0.0131299 0.000340823 0)
(-0.0133902 0.000308892 0)
(-0.0136244 0.000275878 0)
(-0.0138317 0.000241896 0)
(-0.0140115 0.00020706 0)
(-0.0141629 0.000171483 0)
(-0.0142857 0.000135282 0)
(-0.0143791 9.85732e-05 0)
(-0.014443 6.14729e-05 0)
(-0.014477 2.40992e-05 0)
(-0.014481 -1.34272e-05 0)
(-0.0144548 -5.09837e-05 0)
(-0.0143986 -8.84495e-05 0)
(-0.0143124 -0.000125705 0)
(-0.0141965 -0.000162627 0)
(-0.0140511 -0.000199092 0)
(-0.0138768 -0.000234969 0)
(-0.013674 -0.000270127 0)
(-0.0134433 -0.000304437 0)
(-0.0131856 -0.000337767 0)
(-0.0129016 -0.00036999 0)
(-0.0125924 -0.000400973 0)
(-0.0122589 -0.000430581 0)
(-0.0119024 -0.000458672 0)
(-0.0115241 -0.000485101 0)
(-0.0111255 -0.000509725 0)
(-0.0107079 -0.000532403 0)
(-0.0102731 -0.000552995 0)
(-0.00982276 -0.000571365 0)
(-0.00935867 -0.000587383 0)
(-0.00888274 -0.000600926 0)
(-0.00839699 -0.000611879 0)
(-0.00790352 -0.000620131 0)
(-0.00740451 -0.000625576 0)
(-0.00690226 -0.000628114 0)
(-0.00639911 -0.000627648 0)
(-0.00589749 -0.000624087 0)
(-0.00539988 -0.000617348 0)
(-0.00490884 -0.000607352 0)
(-0.00442694 -0.00059403 0)
(-0.00395681 -0.000577328 0)
(-0.0035011 -0.00055721 0)
(-0.00306245 -0.000533663 0)
(-0.00264351 -0.000506699 0)
(-0.00224689 -0.000476356 0)
(-0.00187512 -0.000442708 0)
(-0.00153066 -0.000405866 0)
(-0.00121582 -0.000365995 0)
(-0.000932723 -0.000323331 0)
(-0.000683251 -0.000278202 0)
(-0.000468951 -0.000231062 0)
(-0.000290931 -0.000182538 0)
(-0.000149713 -0.000133499 0)
(-4.50501e-05 -8.51532e-05 0)
(2.43303e-05 -3.91941e-05 0)
(6.10419e-05 1.98472e-06 0)
(6.93593e-05 3.50163e-05 0)
(5.56643e-05 5.52346e-05 0)
(3.01378e-05 5.6342e-05 0)
(8.01856e-06 3.02994e-05 0)
(6.20312e-06 -4.31357e-05 0)
(2.08686e-05 -7.76676e-05 0)
(2.93301e-05 -6.39381e-05 0)
(1.71433e-05 -1.89727e-05 0)
(-2.66005e-05 4.6736e-05 0)
(-0.000108719 0.000125794 0)
(-0.000233786 0.000212694 0)
(-0.000404515 0.00030339 0)
(-0.000622114 0.000394911 0)
(-0.000886648 0.00048512 0)
(-0.00119725 0.000572442 0)
(-0.00155234 0.000655745 0)
(-0.00194982 0.000734205 0)
(-0.00238717 0.000807223 0)
(-0.00286159 0.000874389 0)
(-0.00337005 0.000935437 0)
(-0.00390937 0.000990192 0)
(-0.00447626 0.00103856 0)
(-0.0050674 0.00108056 0)
(-0.00567942 0.00111621 0)
(-0.00630893 0.00114558 0)
(-0.00695262 0.00116877 0)
(-0.00760717 0.00118592 0)
(-0.00826932 0.00119715 0)
(-0.00893591 0.00120263 0)
(-0.00960385 0.00120252 0)
(-0.0102701 0.00119701 0)
(-0.0109318 0.00118627 0)
(-0.0115861 0.0011705 0)
(-0.0122303 0.00114992 0)
(-0.0128617 0.0011247 0)
(-0.013478 0.00109507 0)
(-0.0140765 0.00106125 0)
(-0.0146552 0.00102342 0)
(-0.0152118 0.000981797 0)
(-0.0157443 0.000936589 0)
(-0.0162507 0.000888007 0)
(-0.0167293 0.000836264 0)
(-0.0171782 0.00078157 0)
(-0.017596 0.000724134 0)
(-0.0179812 0.000664167 0)
(-0.0183324 0.000601881 0)
(-0.0186484 0.00053749 0)
(-0.0189281 0.000471213 0)
(-0.0191705 0.000403273 0)
(-0.0193748 0.000333892 0)
(-0.0195401 0.000263296 0)
(-0.0196661 0.000191709 0)
(-0.019752 0.00011936 0)
(-0.0197976 4.64803e-05 0)
(-0.0198027 -2.66939e-05 0)
(-0.0197671 -9.99276e-05 0)
(-0.0196909 -0.000172985 0)
(-0.0195742 -0.000245626 0)
(-0.0194174 -0.000317609 0)
(-0.019221 -0.000388684 0)
(-0.0189853 -0.000458601 0)
(-0.0187114 -0.000527106 0)
(-0.0183998 -0.000593947 0)
(-0.0180518 -0.000658867 0)
(-0.0176683 -0.000721607 0)
(-0.0172508 -0.000781905 0)
(-0.0168007 -0.000839494 0)
(-0.0163195 -0.000894108 0)
(-0.0158091 -0.000945477 0)
(-0.0152711 -0.000993331 0)
(-0.0147078 -0.0010374 0)
(-0.0141212 -0.00107742 0)
(-0.0135137 -0.00111314 0)
(-0.0128876 -0.0011443 0)
(-0.0122455 -0.00117067 0)
(-0.0115902 -0.00119202 0)
(-0.0109245 -0.00120813 0)
(-0.0102512 -0.0012188 0)
(-0.00957342 -0.00122382 0)
(-0.00889433 -0.00122303 0)
(-0.00821714 -0.00121624 0)
(-0.00754517 -0.0012033 0)
(-0.00688178 -0.00118409 0)
(-0.00623041 -0.00115849 0)
(-0.00559453 -0.00112642 0)
(-0.0049776 -0.00108784 0)
(-0.00438311 -0.00104273 0)
(-0.00381449 -0.000991147 0)
(-0.00327513 -0.000933194 0)
(-0.0027683 -0.000869042 0)
(-0.00229713 -0.000798947 0)
(-0.00186456 -0.000723272 0)
(-0.00147324 -0.000642519 0)
(-0.00112549 -0.000557369 0)
(-0.000823173 -0.000468734 0)
(-0.000567574 -0.000377844 0)
(-0.000359228 -0.000286347 0)
(-0.000197728 -0.000196463 0)
(-8.14671e-05 -0.000111188 0)
(-7.33463e-06 -3.45745e-05 0)
(2.95662e-05 2.79278e-05 0)
(3.63045e-05 6.91151e-05 0)
(2.35959e-05 7.95853e-05 0)
(7.02268e-06 4.6486e-05 0)
(4.1659e-06 -5.31834e-05 0)
(8.46377e-06 -8.35264e-05 0)
(-4.36389e-06 -5.07251e-05 0)
(-4.6982e-05 2.48318e-05 0)
(-0.000129602 0.000129642 0)
(-0.000259147 0.000253729 0)
(-0.000440273 0.000389466 0)
(-0.000675828 0.000531102 0)
(-0.000967104 0.000674266 0)
(-0.00131413 0.00081569 0)
(-0.00171595 0.000952953 0)
(-0.00217079 0.00108422 0)
(-0.00267625 0.00120815 0)
(-0.00322943 0.00132375 0)
(-0.00382706 0.00143031 0)
(-0.00446559 0.00152735 0)
(-0.00514128 0.00161455 0)
(-0.0058502 0.00169172 0)
(-0.00658836 0.00175879 0)
(-0.00735173 0.00181577 0)
(-0.00813625 0.00186275 0)
(-0.00893784 0.00189985 0)
(-0.00975251 0.00192726 0)
(-0.0105763 0.00194517 0)
(-0.0114053 0.00195382 0)
(-0.0122358 0.00195345 0)
(-0.013064 0.00194437 0)
(-0.0138864 0.00192685 0)
(-0.0146995 0.0019012 0)
(-0.0154999 0.00186773 0)
(-0.0162844 0.00182677 0)
(-0.0170499 0.00177864 0)
(-0.0177935 0.00172368 0)
(-0.0185123 0.00166221 0)
(-0.0192037 0.00159458 0)
(-0.0198651 0.00152113 0)
(-0.020494 0.00144219 0)
(-0.0210883 0.0013581 0)
(-0.0216459 0.00126922 0)
(-0.0221647 0.00117588 0)
(-0.0226429 0.00107842 0)
(-0.023079 0.000977204 0)
(-0.0234713 0.000872573 0)
(-0.0238184 0.000764888 0)
(-0.0241193 0.000654505 0)
(-0.0243727 0.000541783 0)
(-0.0245779 0.000427085 0)
(-0.024734 0.000310781 0)
(-0.0248405 0.000193246 0)
(-0.0248969 7.48582e-05 0)
(-0.0249029 -4.40053e-05 0)
(-0.0248584 -0.000162963 0)
(-0.0247634 -0.00028163 0)
(-0.0246183 -0.00039961 0)
(-0.0244233 -0.000516506 0)
(-0.0241791 -0.000631914 0)
(-0.0238863 -0.000745427 0)
(-0.0235458 -0.000856634 0)
(-0.0231588 -0.000965124 0)
(-0.0227264 -0.00107048 0)
(-0.0222502 -0.00117227 0)
(-0.0217317 -0.00127008 0)
(-0.0211727 -0.00136347 0)
(-0.0205752 -0.00145201 0)
(-0.0199414 -0.00153529 0)
(-0.0192735 -0.00161285 0)
(-0.0185742 -0.00168429 0)
(-0.0178459 -0.00174918 0)
(-0.0170916 -0.0018071 0)
(-0.0163143 -0.00185767 0)
(-0.0155172 -0.00190049 0)
(-0.0147035 -0.0019352 0)
(-0.0138767 -0.00196146 0)
(-0.0130405 -0.00197892 0)
(-0.0121985 -0.00198728 0)
(-0.0113547 -0.00198625 0)
(-0.010513 -0.00197556 0)
(-0.00967745 -0.001955 0)
(-0.00885214 -0.00192436 0)
(-0.00804127 -0.00188348 0)
(-0.00724904 -0.00183228 0)
(-0.00647967 -0.00177069 0)
(-0.00573736 -0.00169875 0)
(-0.00502623 -0.00161655 0)
(-0.00435033 -0.00152432 0)
(-0.00371357 -0.00142235 0)
(-0.00311964 -0.00131112 0)
(-0.00257201 -0.00119125 0)
(-0.00207375 -0.00106359 0)
(-0.00162756 -0.000929274 0)
(-0.00123556 -0.000789797 0)
(-0.000899183 -0.00064711 0)
(-0.000619028 -0.000503773 0)
(-0.000394642 -0.000363139 0)
(-0.000224297 -0.000229604 0)
(-0.00010472 -0.000108927 0)
(-3.08428e-05 -8.62386e-06 0)
(4.54413e-06 6.1643e-05 0)
(1.17544e-05 8.94676e-05 0)
(4.93207e-06 5.75294e-05 0)
(1.48772e-06 -5.53866e-05 0)
(-7.06883e-06 -7.03488e-05 0)
(-4.56994e-05 -8.63398e-06 0)
(-0.000124288 0.000106571 0)
(-0.000251659 0.000259065 0)
(-0.000434385 0.000436564 0)
(-0.000676855 0.000629448 0)
(-0.000981749 0.000830254 0)
(-0.00135024 0.00103326 0)
(-0.00178223 0.00123402 0)
(-0.00227658 0.00142915 0)
(-0.00283131 0.0016161 0)
(-0.00344374 0.0017929 0)
(-0.00411062 0.00195809 0)
(-0.00482831 0.00211061 0)
(-0.00559277 0.00224969 0)
(-0.00639976 0.00237483 0)
(-0.00724485 0.00248571 0)
(-0.00812348 0.00258215 0)
(-0.00903098 0.00266413 0)
(-0.00996269 0.00273173 0)
(-0.0109139 0.00278508 0)
(-0.0118801 0.00282442 0)
(-0.0128565 0.00285 0)
(-0.0138388 0.00286217 0)
(-0.0148224 0.00286125 0)
(-0.015803 0.00284764 0)
(-0.0167765 0.00282175 0)
(-0.0177388 0.00278401 0)
(-0.018686 0.00273487 0)
(-0.0196142 0.00267479 0)
(-0.0205199 0.00260424 0)
(-0.0213995 0.00252369 0)
(-0.0222497 0.00243364 0)
(-0.0230674 0.00233455 0)
(-0.0238496 0.00222694 0)
(-0.0245933 0.0021113 0)
(-0.0252961 0.00198813 0)
(-0.0259553 0.00185794 0)
(-0.0265687 0.00172121 0)
(-0.0271341 0.00157846 0)
(-0.0276496 0.00143021 0)
(-0.0281133 0.00127697 0)
(-0.0285236 0.00111926 0)
(-0.0288791 0.000957608 0)
(-0.0291786 0.000792536 0)
(-0.0294209 0.00062458 0)
(-0.0296053 0.00045428 0)
(-0.0297309 0.000282185 0)
(-0.0297973 0.000108846 0)
(-0.0298041 -6.51832e-05 0)
(-0.0297513 -0.000239341 0)
(-0.0296388 -0.000413058 0)
(-0.029467 -0.000585757 0)
(-0.0292362 -0.000756854 0)
(-0.0289472 -0.000925759 0)
(-0.0286009 -0.00109188 0)
(-0.0281982 -0.0012546 0)
(-0.0277405 -0.00141334 0)
(-0.0272293 -0.00156746 0)
(-0.0266662 -0.00171635 0)
(-0.0260532 -0.0018594 0)
(-0.0253924 -0.00199597 0)
(-0.024686 -0.00212545 0)
(-0.0239367 -0.00224721 0)
(-0.0231472 -0.00236063 0)
(-0.0223204 -0.00246509 0)
(-0.0214594 -0.00256 0)
(-0.0205676 -0.00264476 0)
(-0.0196486 -0.0027188 0)
(-0.018706 -0.00278156 0)
(-0.0177437 -0.00283251 0)
(-0.0167658 -0.00287115 0)
(-0.0157765 -0.00289701 0)
(-0.0147801 -0.00290963 0)
(-0.0137813 -0.00290861 0)
(-0.0127845 -0.00289359 0)
(-0.0117945 -0.00286425 0)
(-0.0108161 -0.00282033 0)
(-0.00985418 -0.00276165 0)
(-0.00891352 -0.00268807 0)
(-0.00799901 -0.00259957 0)
(-0.00711549 -0.00249622 0)
(-0.00626769 -0.00237823 0)
(-0.00546025 -0.00224591 0)
(-0.0046976 -0.00209979 0)
(-0.00398395 -0.00194057 0)
(-0.00332318 -0.00176922 0)
(-0.00271879 -0.00158701 0)
(-0.00217377 -0.0013956 0)
(-0.0016905 -0.00119715 0)
(-0.00127061 -0.000994396 0)
(-0.000914829 -0.000790899 0)
(-0.000622781 -0.000591195 0)
(-0.000392826 -0.000401095 0)
(-0.000221814 -0.000228027 0)
(-0.000104856 -8.14625e-05 0)
(-3.50338e-05 2.66654e-05 0)
(-3.14037e-06 8.12657e-05 0)
(2.31898e-06 6.13569e-05 0)
(-1.40594e-06 -4.89067e-05 0)
(-2.41891e-05 -3.53682e-05 0)
(-9.14537e-05 6.63194e-05 0)
(-0.000209669 0.000230844 0)
(-0.000385891 0.000439846 0)
(-0.000625936 0.000679015 0)
(-0.000933684 0.000936905 0)
(-0.00131137 0.0012045 0)
(-0.00175988 0.00147472 0)
(-0.00227886 0.00174202 0)
(-0.0028669 0.002002 0)
(-0.00352177 0.00225132 0)
(-0.00424051 0.0024874 0)
(-0.00501953 0.00270825 0)
(-0.00585479 0.00291238 0)
(-0.0067419 0.00309873 0)
(-0.00767615 0.00326653 0)
(-0.00865262 0.0034153 0)
(-0.00966625 0.00354479 0)
(-0.0107119 0.00365487 0)
(-0.0117843 0.00374559 0)
(-0.0128782 0.00381712 0)
(-0.0139885 0.00386972 0)
(-0.0151099 0.00390371 0)
(-0.0162374 0.00391951 0)
(-0.0173661 0.00391757 0)
(-0.0184909 0.0038984 0)
(-0.0196073 0.00386252 0)
(-0.0207105 0.00381051 0)
(-0.0217961 0.00374297 0)
(-0.0228599 0.00366052 0)
(-0.0238976 0.00356378 0)
(-0.0249053 0.00345339 0)
(-0.0258792 0.00333001 0)
(-0.0268158 0.00319431 0)
(-0.0277116 0.00304695 0)
(-0.0285634 0.00288862 0)
(-0.0293681 0.00271999 0)
(-0.0301229 0.00254174 0)
(-0.0308252 0.00235457 0)
(-0.0314725 0.00215918 0)
(-0.0320625 0.00195627 0)
(-0.0325933 0.00174654 0)
(-0.0330629 0.0015307 0)
(-0.0334698 0.00130947 0)
(-0.0338125 0.00108357 0)
(-0.0340897 0.000853741 0)
(-0.0343006 0.000620718 0)
(-0.0344442 0.000385248 0)
(-0.03452 0.000148083 0)
(-0.0345276 -9.00144e-05 0)
(-0.0344669 -0.000328274 0)
(-0.034338 -0.000565916 0)
(-0.0341411 -0.000802149 0)
(-0.0338768 -0.00103618 0)
(-0.0335458 -0.00126719 0)
(-0.0331492 -0.00149437 0)
(-0.0326882 -0.00171691 0)
(-0.0321642 -0.00193396 0)
(-0.0315789 -0.0021447 0)
(-0.0309343 -0.00234827 0)
(-0.0302325 -0.00254383 0)
(-0.029476 -0.00273054 0)
(-0.0286674 -0.00290755 0)
(-0.0278096 -0.00307401 0)
(-0.0269057 -0.00322909 0)
(-0.0259591 -0.00337195 0)
(-0.0249733 -0.00350179 0)
(-0.0239521 -0.0036178 0)
(-0.0228996 -0.0037192 0)
(-0.02182 -0.00380527 0)
(-0.0207176 -0.00387527 0)
(-0.019597 -0.00392853 0)
(-0.0184632 -0.00396441 0)
(-0.0173209 -0.00398233 0)
(-0.0161752 -0.00398174 0)
(-0.0150315 -0.00396217 0)
(-0.0138949 -0.00392323 0)
(-0.012771 -0.00386457 0)
(-0.011665 -0.00378598 0)
(-0.0105825 -0.00368732 0)
(-0.00952884 -0.0035686 0)
(-0.00850952 -0.00342996 0)
(-0.00752979 -0.0032717 0)
(-0.00659477 -0.00309433 0)
(-0.0057094 -0.00289858 0)
(-0.00487833 -0.00268547 0)
(-0.00410584 -0.00245635 0)
(-0.00339578 -0.00221295 0)
(-0.00275147 -0.00195752 0)
(-0.00217557 -0.00169292 0)
(-0.00166992 -0.00142276 0)
(-0.00123549 -0.00115159 0)
(-0.000872125 -0.000885133 0)
(-0.000578447 -0.000630575 0)
(-0.000351668 -0.000396914 0)
(-0.000187363 -0.000195403 0)
(-7.92343e-05 -3.99719e-05 0)
(-1.96663e-05 5.20434e-05 0)
(-5.09575e-07 5.68961e-05 0)
(-4.34364e-06 -3.32881e-05 0)
(-4.19484e-05 2.30515e-05 0)
(-0.000139472 0.000176666 0)
(-0.00029961 0.000400782 0)
(-0.000527323 0.000675368 0)
(-0.000827534 0.000984419 0)
(-0.00120334 0.00131494 0)
(-0.00165637 0.00165651 0)
(-0.002187 0.00200076 0)
(-0.00279453 0.00234106 0)
(-0.00347723 0.00267211 0)
(-0.0042325 0.00298973 0)
(-0.00505707 0.00329066 0)
(-0.00594703 0.0035724 0)
(-0.00689798 0.00383301 0)
(-0.00790512 0.00407108 0)
(-0.00896335 0.00428558 0)
(-0.0100673 0.00447583 0)
(-0.0112115 0.00464142 0)
(-0.0123902 0.00478216 0)
(-0.0135979 0.00489807 0)
(-0.0148286 0.0049893 0)
(-0.0160768 0.00505614 0)
(-0.0173367 0.005099 0)
(-0.0186028 0.00511835 0)
(-0.0198695 0.00511477 0)
(-0.0211315 0.00508886 0)
(-0.0223835 0.00504132 0)
(-0.0236204 0.00497287 0)
(-0.0248373 0.00488425 0)
(-0.0260295 0.00477625 0)
(-0.0271922 0.00464969 0)
(-0.0283211 0.00450538 0)
(-0.029412 0.00434418 0)
(-0.030461 0.00416693 0)
(-0.0314641 0.00397452 0)
(-0.0324179 0.00376781 0)
(-0.0333189 0.00354768 0)
(-0.0341639 0.00331504 0)
(-0.0349501 0.00307078 0)
(-0.0356746 0.0028158 0)
(-0.036335 0.00255103 0)
(-0.036929 0.00227738 0)
(-0.0374546 0.00199578 0)
(-0.0379099 0.00170717 0)
(-0.0382933 0.00141248 0)
(-0.0386035 0.00111268 0)
(-0.0388393 0.000808728 0)
(-0.0389999 0.000501598 0)
(-0.0390846 0.000192272 0)
(-0.039093 -0.000118256 0)
(-0.0390249 -0.00042898 0)
(-0.0388805 -0.000738882 0)
(-0.0386601 -0.00104693 0)
(-0.0383643 -0.00135209 0)
(-0.0379938 -0.0016533 0)
(-0.0375499 -0.00194951 0)
(-0.037034 -0.00223964 0)
(-0.0364475 -0.00252261 0)
(-0.0357925 -0.00279734 0)
(-0.0350711 -0.00306273 0)
(-0.0342857 -0.00331767 0)
(-0.033439 -0.00356108 0)
(-0.032534 -0.00379186 0)
(-0.0315738 -0.00400891 0)
(-0.030562 -0.00421116 0)
(-0.0295023 -0.00439752 0)
(-0.0283985 -0.00456697 0)
(-0.0272551 -0.00471846 0)
(-0.0260763 -0.004851 0)
(-0.0248669 -0.00496363 0)
(-0.0236317 -0.00505545 0)
(-0.0223759 -0.00512557 0)
(-0.0211048 -0.00517319 0)
(-0.0198238 -0.00519756 0)
(-0.0185384 -0.005198 0)
(-0.0172545 -0.00517392 0)
(-0.015978 -0.00512483 0)
(-0.0147146 -0.00505033 0)
(-0.0134705 -0.00495017 0)
(-0.0122516 -0.00482422 0)
(-0.0110638 -0.00467252 0)
(-0.00991307 -0.0044953 0)
(-0.00880519 -0.004293 0)
(-0.00774576 -0.00406633 0)
(-0.00674014 -0.00381627 0)
(-0.0057934 -0.00354417 0)
(-0.0049102 -0.00325179 0)
(-0.00409477 -0.0029414 0)
(-0.00335072 -0.00261584 0)
(-0.00268104 -0.00227872 0)
(-0.00208788 -0.00193449 0)
(-0.00157251 -0.00158871 0)
(-0.00113512 -0.00124824 0)
(-0.000774779 -0.000921568 0)
(-0.000489234 -0.000619112 0)
(-0.000274754 -0.000353695 0)
(-0.000125895 -0.000140926 0)
(-3.69324e-05 8.35848e-08 0)
(-3.38736e-06 4.36322e-05 0)
(-7.22969e-06 -8.44421e-06 0)
(-5.98522e-05 0.000105709 0)
(-0.000188353 0.000323797 0)
(-0.000391637 0.000618267 0)
(-0.000672477 0.000967798 0)
(-0.00103465 0.00135506 0)
(-0.00148034 0.00176575 0)
(-0.00201044 0.0021882 0)
(-0.00262472 0.00261293 0)
(-0.00332194 0.00303225 0)
(-0.00409998 0.00344 0)
(-0.00495587 0.00383121 0)
(-0.00588594 0.00420196 0)
(-0.00688591 0.00454918 0)
(-0.00795104 0.0048705 0)
(-0.00907615 0.00516413 0)
(-0.0102557 0.00542875 0)
(-0.011484 0.00566348 0)
(-0.0127551 0.00586775 0)
(-0.0140629 0.00604127 0)
(-0.0154012 0.00618399 0)
(-0.0167639 0.00629608 0)
(-0.0181447 0.00637785 0)
(-0.0195377 0.00642974 0)
(-0.0209365 0.00645235 0)
(-0.0223354 0.00644632 0)
(-0.0237285 0.00641243 0)
(-0.0251101 0.00635148 0)
(-0.0264745 0.00626437 0)
(-0.0278165 0.00615201 0)
(-0.0291308 0.00601537 0)
(-0.0304124 0.00585546 0)
(-0.0316565 0.00567329 0)
(-0.0328586 0.00546992 0)
(-0.0340142 0.00524642 0)
(-0.0351192 0.00500387 0)
(-0.0361697 0.00474337 0)
(-0.0371619 0.00446602 0)
(-0.0380925 0.00417295 0)
(-0.0389581 0.00386528 0)
(-0.0397558 0.00354415 0)
(-0.0404829 0.00321072 0)
(-0.0411368 0.00286613 0)
(-0.0417154 0.00251156 0)
(-0.0422165 0.00214818 0)
(-0.0426385 0.00177719 0)
(-0.0429799 0.00139977 0)
(-0.0432395 0.00101715 0)
(-0.0434162 0.000630545 0)
(-0.0435094 0.000241194 0)
(-0.0435186 -0.000149651 0)
(-0.0434437 -0.000540725 0)
(-0.0432848 -0.000930748 0)
(-0.0430422 -0.00131843 0)
(-0.0427166 -0.00170245 0)
(-0.0423089 -0.0020815 0)
(-0.0418204 -0.00245425 0)
(-0.0412526 -0.00281934 0)
(-0.0406071 -0.00317542 0)
(-0.0398862 -0.00352112 0)
(-0.0390922 -0.00385508 0)
(-0.0382277 -0.00417592 0)
(-0.0372957 -0.00448227 0)
(-0.0362994 -0.00477275 0)
(-0.0352423 -0.005046 0)
(-0.0341282 -0.00530068 0)
(-0.0329611 -0.00553545 0)
(-0.0317455 -0.005749 0)
(-0.0304859 -0.00594007 0)
(-0.0291871 -0.00610741 0)
(-0.0278542 -0.00624984 0)
(-0.0264926 -0.00636623 0)
(-0.0251079 -0.00645549 0)
(-0.0237057 -0.00651663 0)
(-0.022292 -0.00654874 0)
(-0.0208729 -0.00655099 0)
(-0.0194546 -0.00652266 0)
(-0.0180435 -0.00646318 0)
(-0.016646 -0.00637209 0)
(-0.0152686 -0.00624908 0)
(-0.0139177 -0.00609406 0)
(-0.0125998 -0.00590712 0)
(-0.0113212 -0.00568857 0)
(-0.0100882 -0.00543903 0)
(-0.00890684 -0.00515941 0)
(-0.00778288 -0.00485098 0)
(-0.00672179 -0.00451545 0)
(-0.00572863 -0.00415501 0)
(-0.00480797 -0.00377246 0)
(-0.00396381 -0.00337127 0)
(-0.00319946 -0.00295578 0)
(-0.00251746 -0.0025313 0)
(-0.00191948 -0.00210435 0)
(-0.00140619 -0.00168286 0)
(-0.000977177 -0.00127648 0)
(-0.000630923 -0.000896927 0)
(-0.000364535 -0.000558346 0)
(-0.000173588 -0.000277707 0)
(-5.43909e-05 -7.54595e-05 0)
(-6.22533e-06 2.14023e-05 0)
(-1.00297e-05 2.5553e-05 0)
(-7.75464e-05 0.000212766 0)
(-0.000237229 0.000508326 0)
(-0.000484157 0.000884256 0)
(-0.000818895 0.00131838 0)
(-0.00124403 0.00179233 0)
(-0.00176073 0.00229075 0)
(-0.00236899 0.00280089 0)
(-0.00306787 0.0033123 0)
(-0.00385557 0.00381636 0)
(-0.00472943 0.00430605 0)
(-0.00568604 0.00477569 0)
(-0.0067213 0.00522073 0)
(-0.00783057 0.00563753 0)
(-0.0090087 0.00602327 0)
(-0.0102501 0.00637579 0)
(-0.0115489 0.00669348 0)
(-0.012899 0.00697522 0)
(-0.014294 0.00722029 0)
(-0.0157275 0.00742828 0)
(-0.0171928 0.00759909 0)
(-0.0186833 0.00773287 0)
(-0.0201925 0.00782994 0)
(-0.0217138 0.00789082 0)
(-0.0232407 0.00791617 0)
(-0.0247668 0.00790676 0)
(-0.0262858 0.00786348 0)
(-0.0277916 0.00778731 0)
(-0.0292783 0.00767929 0)
(-0.03074 0.00754053 0)
(-0.0321712 0.00737219 0)
(-0.0335665 0.00717547 0)
(-0.0349206 0.00695161 0)
(-0.0362287 0.00670188 0)
(-0.0374861 0.00642758 0)
(-0.0386882 0.00613002 0)
(-0.0398308 0.00581054 0)
(-0.04091 0.00547049 0)
(-0.041922 0.00511123 0)
(-0.0428633 0.00473414 0)
(-0.0437307 0.00434061 0)
(-0.0445212 0.00393205 0)
(-0.0452321 0.00350986 0)
(-0.0458611 0.00307548 0)
(-0.0464059 0.00263034 0)
(-0.0468646 0.0021759 0)
(-0.0472358 0.00171363 0)
(-0.047518 0.00124501 0)
(-0.0477101 0.000771528 0)
(-0.0478115 0.000294708 0)
(-0.0478216 -0.000183923 0)
(-0.0477404 -0.000662817 0)
(-0.0475678 -0.00114041 0)
(-0.0473043 -0.00161512 0)
(-0.0469506 -0.00208535 0)
(-0.0465077 -0.00254948 0)
(-0.0459769 -0.00300589 0)
(-0.0453599 -0.00345293 0)
(-0.0446586 -0.00388894 0)
(-0.0438752 -0.00431227 0)
(-0.0430123 -0.00472125 0)
(-0.0420727 -0.00511419 0)
(-0.0410596 -0.00548942 0)
(-0.0399765 -0.00584529 0)
(-0.0388272 -0.00618013 0)
(-0.0376157 -0.00649231 0)
(-0.0363464 -0.00678022 0)
(-0.0350241 -0.00704227 0)
(-0.0336535 -0.00727691 0)
(-0.0322401 -0.00748266 0)
(-0.0307892 -0.00765808 0)
(-0.0293066 -0.0078018 0)
(-0.0277982 -0.00791254 0)
(-0.0262702 -0.00798909 0)
(-0.024729 -0.00803036 0)
(-0.0231811 -0.00803538 0)
(-0.0216333 -0.0080033 0)
(-0.0200922 -0.00793345 0)
(-0.0185648 -0.0078253 0)
(-0.017058 -0.00767854 0)
(-0.0155787 -0.00749306 0)
(-0.0141339 -0.00726903 0)
(-0.0127303 -0.00700688 0)
(-0.0113745 -0.00670738 0)
(-0.0100731 -0.00637168 0)
(-0.0088323 -0.00600134 0)
(-0.00765785 -0.00559844 0)
(-0.00655525 -0.00516564 0)
(-0.00552947 -0.00470624 0)
(-0.00458488 -0.00422437 0)
(-0.00372521 -0.00372507 0)
(-0.00295344 -0.00321446 0)
(-0.00227171 -0.00269998 0)
(-0.00168125 -0.00219054 0)
(-0.00118233 -0.00169685 0)
(-0.000774234 -0.00123173 0)
(-0.000455025 -0.00081044 0)
(-0.00022139 -0.000451014 0)
(-7.17141e-05 -0.000174857 0)
(-8.97863e-06 -9.74789e-06 0)
(-1.27256e-05 6.8501e-05 0)
(-9.49076e-05 0.0003441 0)
(-0.000285526 0.000730312 0)
(-0.000576085 0.00119908 0)
(-0.000964962 0.00172767 0)
(-0.00145346 0.00229694 0)
(-0.00204168 0.0028907 0)
(-0.00272869 0.00349535 0)
(-0.00351273 0.00409953 0)
(-0.00439134 0.00469383 0)
(-0.00536128 0.00527047 0)
(-0.00641862 0.00582309 0)
(-0.00755881 0.00634651 0)
(-0.00877678 0.0068366 0)
(-0.010067 0.00729007 0)
(-0.0114234 0.0077044 0)
(-0.0128398 0.00807769 0)
(-0.0143096 0.00840859 0)
(-0.0158262 0.0086962 0)
(-0.0173826 0.00894002 0)
(-0.0189718 0.00913986 0)
(-0.0205869 0.00929586 0)
(-0.0222208 0.00940837 0)
(-0.0238667 0.00947794 0)
(-0.0255176 0.00950534 0)
(-0.0271666 0.00949144 0)
(-0.0288073 0.00943728 0)
(-0.030433 0.00934398 0)
(-0.0320374 0.00921276 0)
(-0.0336143 0.00904492 0)
(-0.0351578 0.00884182 0)
(-0.0366622 0.00860489 0)
(-0.0381219 0.00833558 0)
(-0.0395318 0.00803541 0)
(-0.0408866 0.00770591 0)
(-0.0421818 0.00734864 0)
(-0.0434126 0.00696519 0)
(-0.044575 0.00655717 0)
(-0.0456649 0.00612621 0)
(-0.0466785 0.00567395 0)
(-0.0476125 0.00520204 0)
(-0.0484636 0.00471218 0)
(-0.0492291 0.00420603 0)
(-0.0499063 0.00368533 0)
(-0.0504928 0.00315177 0)
(-0.0509868 0.00260711 0)
(-0.0513864 0.00205309 0)
(-0.0516903 0.00149149 0)
(-0.0518974 0.000924105 0)
(-0.0520068 0.000352738 0)
(-0.0520179 -0.000220779 0)
(-0.0519308 -0.000794595 0)
(-0.0517454 -0.00136684 0)
(-0.0514621 -0.00193562 0)
(-0.0510818 -0.00249903 0)
(-0.0506055 -0.00305514 0)
(-0.0500347 -0.00360201 0)
(-0.049371 -0.00413767 0)
(-0.0486165 -0.00466015 0)
(-0.0477736 -0.00516746 0)
(-0.046845 -0.00565761 0)
(-0.0458338 -0.00612861 0)
(-0.0447434 -0.00657846 0)
(-0.0435774 -0.0070052 0)
(-0.04234 -0.00740683 0)
(-0.0410354 -0.00778143 0)
(-0.0396683 -0.00812708 0)
(-0.0382436 -0.00844189 0)
(-0.0367668 -0.00872405 0)
(-0.0352433 -0.00897178 0)
(-0.0336789 -0.00918338 0)