/*--------------------------------*- C++ -*----------------------------------*\
  =========                 |
  \\      /  F ield         | OpenFOAM: The Open Source CFD Toolbox
   \\    /   O peration     | Website:  https://openfoam.org
    \\  /    A nd           | Version:  11
     \\/     M anipulation  |
\*---------------------------------------------------------------------------*/
FoamFile
{
    format      ascii;
    class       volScalarField;
    location    "2";
    object      p;
}
// * * * * * * * * * * * * * * * * * * * * * * * * * * * * * * * * * * * * * //

dimensions      [0 2 -2 0 0 0 0];

internalField   nonuniform List<scalar> 
10100
(
-4.53071e-07
5.282e-05
-0.000165542
-0.000706123
-0.00152541
-0.00256274
-0.00376005
-0.00505497
-0.0063994
-0.00774683
-0.00906152
-0.0103119
-0.011472
-0.0125186
-0.0134321
-0.0141989
-0.0148059
-0.0152468
-0.0155182
-0.0156196
-0.0155514
-0.0153161
-0.0149141
-0.0143523
-0.0136375
-0.0127712
-0.0117531
-0.0105845
-0.00926748
-0.00780703
-0.0062121
-0.00449215
-0.00265346
-0.000700603
0.00136001
0.00352075
0.0057749
0.00811486
0.0105319
0.0130185
0.0155691
0.0181804
0.0208494
0.0235718
0.0263438
0.0291615
0.032019
0.0349101
0.0378297
0.0407735
0.0437359
0.0467095
0.049686
0.0526565
0.0556128
0.0585462
0.0614465
0.0643033
0.0671079
0.0698529
0.0725312
0.075135
0.0776556
0.0800849
0.0824168
0.0846462
0.0867667
0.0887708
0.0906514
0.0924026
0.0940182
0.0954925
0.0968203
0.0979977
0.0990222
0.0998941
0.100616
0.101192
0.101622
0.101906
0.102047
0.102047
0.10191
0.101638
0.101238
0.100715
0.10008
0.0993439
0.0985173
0.0976126
0.0966447
0.0956336
0.0946059
0.0935939
0.0926352
0.0917722
0.0910512
0.0905236
0.0902458
0.0902204
-2.00357e-05
-7.08695e-05
-0.000350407
-0.000878725
-0.00161485
-0.00251794
-0.00354595
-0.00465621
-0.00580759
-0.00696618
-0.0080974
-0.00917522
-0.0101741
-0.0110729
-0.0118561
-0.0125085
-0.01302
-0.0133832
-0.0135915
-0.0136465
-0.0135486
-0.0132964
-0.0128915
-0.0123357
-0.011632
-0.0107844
-0.0097956
-0.00866718
-0.00740029
-0.00599729
-0.00446411
-0.00280804
-0.00103545
0.000847273
0.0028333
0.00491576
0.00708823
0.0093443
0.0116762
0.0140766
0.0165408
0.0190649
0.0216446
0.0242761
0.0269559
0.0296803
0.0324433
0.0352385
0.0380606
0.0409051
0.0437657
0.0466348
0.0495048
0.052368
0.0552171
0.0580428
0.0608347
0.0635833
0.0662811
0.0689213
0.0714976
0.0740029
0.0764293
0.0787693
0.0810171
0.0831676
0.0852137
0.0871482
0.0889659
0.0906623
0.0922313
0.0936663
0.0949621
0.0961154
0.0971244
0.0979899
0.0987143
0.0992994
0.0997454
0.100053
0.100225
0.100266
0.100181
0.0999714
0.0996433
0.0992033
0.0986606
0.0980253
0.0973082
0.0965218
0.0956807
0.0948044
0.0939178
0.0930507
0.0922361
0.0915087
0.0909033
0.0904552
0.090213
0.0902024
0.000245685
7.32763e-05
-0.000276213
-0.000823911
-0.00152709
-0.00235452
-0.00327548
-0.00426035
-0.00527761
-0.00629869
-0.00729569
-0.00824307
-0.0091204
-0.00990792
-0.0105886
-0.0111511
-0.0115869
-0.0118851
-0.0120432
-0.012058
-0.0119319
-0.0116639
-0.0112535
-0.010701
-0.0100077
-0.00917578
-0.00820863
-0.00711011
-0.00588162
-0.00452375
-0.00304032
-0.00143688
0.000281514
0.00210772
0.00403369
0.00605337
0.00816056
0.0103482
0.0126098
0.0149393
0.0173319
0.0197839
0.02229
0.0248463
0.0274498
0.0300965
0.0327807
0.0354964
0.0382387
0.0410021
0.0437795
0.0465637
0.0493475
0.0521241
0.054886
0.0576236
0.0603265
0.0629865
0.065598
0.0681546
0.0706492
0.0730754
0.0754268
0.0776966
0.0798786
0.081967
0.0839545
0.0858338
0.0876009
0.0892528
0.0907845
0.0921888
0.0934598
0.0945947
0.0955928
0.0964544
0.097181
0.0977734
0.0982319
0.0985579
0.0987555
0.0988298
0.0987855
0.0986261
0.0983555
0.0979797
0.0975067
0.0969459
0.0963081
0.0956061
0.0948548
0.0940728
0.0932834
0.092513
0.09179
0.0911433
0.0906009
0.0901908
0.0899572
0.0899347
0.000727962
0.000412962
-2.58508e-05
-0.000612984
-0.00131442
-0.00210209
-0.00295887
-0.00385923
-0.00478104
-0.00570164
-0.00659677
-0.00744557
-0.00822902
-0.00892898
-0.00953062
-0.0100214
-0.0103935
-0.01064
-0.0107558
-0.010737
-0.0105853
-0.0103006
-0.00988216
-0.00933061
-0.0086463
-0.00782923
-0.00688187
-0.00580722
-0.00460726
-0.00328424
-0.00184101
-0.000281152
0.00139074
0.00316817
0.00504348
0.00701066
0.00906356
0.0111944
0.0133969
0.0156667
0.0179988
0.020389
0.0228331
0.0253267
0.027866
0.0304472
0.0330646
0.0357128
0.0383874
0.0410822
0.0437891
0.0465015
0.0492134
0.0519174
0.0546049
0.0572665
0.0598931
0.062478
0.0650167
0.0675033
0.0699302
0.0722913
0.0745811
0.0767933
0.0789215
0.0809588
0.0828978
0.0847322
0.0864585
0.0880742
0.0895746
0.0909536
0.0922062
0.093329
0.0943205
0.0951802
0.0959091
0.0965076
0.0969762
0.0973176
0.0975373
0.0976411
0.0976328
0.0975143
0.0972885
0.0969612
0.0965398
0.096033
0.0954508
0.0948063
0.0941153
0.0933964
0.0926707
0.0919605
0.0912888
0.0906803
0.0901592
0.0897508
0.0894901
0.0894051
0.00135077
0.00088681
0.00035444
-0.000279469
-0.000992668
-0.00176023
-0.00257155
-0.00341274
-0.00426489
-0.00510888
-0.00592511
-0.00669487
-0.00740171
-0.00803022
-0.00856533
-0.0089971
-0.00931606
-0.00951748
-0.00959513
-0.00954895
-0.00937566
-0.00907482
-0.00864704
-0.00809331
-0.00741407
-0.0066096
-0.00568096
-0.00462885
-0.00345463
-0.00216162
-0.000752516
0.000769966
0.00240071
0.0041337
0.0059631
0.00788264
0.00988563
0.0119649
0.0141148
0.0163307
0.0186076
0.020941
0.0233278
0.0257639
0.0282447
0.0307658
0.0333226
0.0359098
0.038522
0.0411528
0.0437948
0.0464417
0.0490876
0.0517246
0.0543436
0.0569352
0.0594918
0.0620086
0.0644815
0.0669039
0.0692689
0.0715718
0.0738075
0.0759684
0.0780472
0.0800376
0.0819329
0.0837272
0.0854173
0.0870008
0.0884737
0.0898301
0.0910656
0.0921776
0.0931636
0.094022
0.0947526
0.0953559
0.0958338
0.0961902
0.0964314
0.0965631
0.0965872
0.0965039
0.0963156
0.0960276
0.0956477
0.0951839
0.0946456
0.0940457
0.0934
0.0927267
0.0920448
0.0913727
0.0907288
0.0901332
0.0896081
0.0891762
0.088858
0.0886667
0.0020664
0.00145745
0.000833569
0.000153178
-0.000580014
-0.00134036
-0.00212615
-0.00292617
-0.00372964
-0.00452023
-0.00527888
-0.0059895
-0.00663792
-0.00720924
-0.00769172
-0.00807557
-0.00835173
-0.00851605
-0.00856308
-0.00849161
-0.00830037
-0.00798802
-0.00755326
-0.00699684
-0.00632053
-0.00552524
-0.0046111
-0.00357856
-0.00242828
-0.00116181
0.000218123
0.00170799
0.00330298
0.00499777
0.00678697
0.00866388
0.0106216
0.0126546
0.0147578
0.0169257
0.0191533
0.0214366
0.023772
0.026156
0.0285841
0.0310516
0.0335541
0.0360864
0.0386426
0.0412152
0.043798
0.046386
0.0489725
0.0515479
0.0541038
0.056633
0.0591281
0.0615841
0.0639971
0.0663616
0.068671
0.0709214
0.073108
0.075223
0.077258
0.079206
0.0810612
0.0828192
0.0844777
0.0860336
0.0874817
0.0888167
0.0900355
0.091136
0.0921153
0.0929707
0.0937019
0.0943102
0.0947982
0.0951702
0.0954317
0.0955871
0.0956374
0.0955822
0.0954235
0.0951668
0.0948195
0.0943896
0.0938858
0.09332
0.0927073
0.0920647
0.0914088
0.0907547
0.0901178
0.0895156
0.088968
0.0884938
0.0880953
0.0877689
0.00283602
0.00209244
0.00138241
0.000652769
-0.000105442
-0.000873308
-0.00164645
-0.0024229
-0.00319479
-0.00394683
-0.0046656
-0.00533464
-0.0059393
-0.00646818
-0.00691023
-0.00725515
-0.00749887
-0.00763376
-0.00765661
-0.00756428
-0.00735746
-0.00703496
-0.00659545
-0.00603884
-0.00536614
-0.00457843
-0.00367575
-0.0026589
-0.00152854
-0.000284813
0.00106986
0.00253122
0.00409529
0.00575748
0.00751178
0.00935145
0.0112699
0.0132624
0.0153245
0.0174504
0.0196347
0.0218745
0.0241661
0.0265046
0.028886
0.031307
0.0337624
0.0362456
0.038751
0.0412723
0.0438032
0.0463383
0.048871
0.0513918
0.0538923
0.056366
0.0588068
0.0612098
0.0635704
0.0658829
0.0681422
0.0703455
0.072488
0.0745612
0.076556
0.0784661
0.0802865
0.0820133
0.0836437
0.0851745
0.0865999
0.0879147
0.0891165
0.090204
0.0911743
0.092025
0.092756
0.0933698
0.093869
0.0942566
0.0945358
0.0947094
0.0947785
0.0947438
0.0946078
0.094376
0.0940545
0.0936503
0.0931718
0.09263
0.092039
0.0914137
0.0907678
0.0901146
0.0894685
0.0888448
0.0882606
0.0877293
0.0872349
0.0867579
0.00363711
0.00276611
0.00197267
0.00119513
0.000404772
-0.000379045
-0.00115426
-0.00192129
-0.00267403
-0.00340275
-0.00409281
-0.0047306
-0.00530471
-0.00580313
-0.00621399
-0.0065299
-0.00674763
-0.00686032
-0.00686432
-0.00675702
-0.00653802
-0.00620647
-0.00576256
-0.00520658
-0.00453829
-0.0037576
-0.00286496
-0.00186132
-0.000746991
0.00047801
0.00181112
0.003248
0.00478554
0.00641966
0.0081434
0.00995033
0.0118356
0.0137938
0.0158199
0.0179093
0.0200571
0.0222592
0.0245126
0.0268129
0.0291551
0.0315355
0.0339495
0.0363901
0.038851
0.0413263
0.043811
0.0463
0.0487855
0.0512578
0.0537098
0.0561365
0.0585311
0.0608873
0.0632009
0.0654675
0.0676833
0.0698453
0.0719478
0.0739822
0.0759403
0.077817
0.0796076
0.0813075
0.0829133
0.0844209
0.0858246
0.0871196
0.0883042
0.0893777
0.090338
0.0911833
0.0919147
0.0925345
0.0930445
0.0934452
0.0937379
0.0939245
0.094007
0.0939873
0.0938689
0.0936565
0.0933552
0.0929704
0.0925092
0.0919819
0.0914016
0.0907816
0.0901335
0.0894695
0.0888028
0.0881463
0.0875136
0.0869135
0.0863139
0.085681
0.00444727
0.00345986
0.00258482
0.00175724
0.000930201
0.000121294
-0.000667368
-0.00143528
-0.00218158
-0.00289757
-0.00356908
-0.00418548
-0.00473705
-0.00521259
-0.00560121
-0.00589654
-0.00609288
-0.00618872
-0.00617823
-0.00605981
-0.00583231
-0.00549495
-0.0050478
-0.00449193
-0.00382733
-0.00305283
-0.00216887
-0.00117622
-7.49666e-05
0.00113411
0.00244874
0.00386538
0.00538044
0.00698997
0.00868749
0.0104663
0.0123225
0.0142521
0.0162485
0.0183064
0.0204226
0.0225938
0.0248154
0.0270825
0.0293914
0.0317385
0.0341172
0.0365199
0.0389416
0.0413779
0.043823
0.0462711
0.048715
0.051146
0.0535578
0.055945
0.0582999
0.0606157
0.0628886
0.0651157
0.0672939
0.0694198
0.071487
0.0734865
0.0754117
0.0772591
0.0790242
0.0807012
0.082285
0.0837712
0.0851547
0.0864312
0.0875993
0.0886588
0.0896089
0.0904496
0.0911824
0.0918086
0.0923271
0.0927364
0.0930377
0.0932335
0.0933265
0.0933189
0.0932137
0.0930157
0.0927292
0.0923576
0.0919063
0.0913849
0.0908061
0.0901822
0.0895233
0.0888402
0.0881443
0.0874456
0.0867544
0.0860777
0.0853691
0.0845813
0.00525038
0.00415395
0.00320134
0.00232131
0.00145377
0.00061171
-0.000197812
-0.000978227
-0.00172755
-0.00243896
-0.00310267
-0.0037065
-0.00424131
-0.00470039
-0.00507407
-0.0053539
-0.00553533
-0.00561706
-0.00559546
-0.00546847
-0.00523453
-0.00489345
-0.004445
-0.00388984
-0.00322785
-0.00245795
-0.00158096
-0.000597389
0.00049328
0.00168919
0.00298767
0.00438719
0.0058841
0.00747227
0.00914655
0.0109027
0.0127355
0.0146397
0.0166104
0.0186432
0.020734
0.0228786
0.0250733
0.0273139
0.0295958
0.0319144
0.0342625
0.0366332
0.0390222
0.0414254
0.0438366
0.0462498
0.0486586
0.0510554
0.0534342
0.0557886
0.0581099
0.0603915
0.0626307
0.0648252
0.0669717
0.0690665
0.0711026
0.0730718
0.0749689
0.0767914
0.0785341
0.0801903
0.0817542
0.0832217
0.084588
0.0858485
0.0870018
0.0880486
0.0889898
0.0898267
0.0905608
0.0911911
0.0917144
0.0921283
0.0924346
0.0926373
0.092739
0.092741
0.0926456
0.0924568
0.0921785
0.0918131
0.0913649
0.0908428
0.0902591
0.0896249
0.0889491
0.0882406
0.0875083
0.0867597
0.0860037
0.0852468
0.0844289
0.0834905
0.00602999
0.00483369
0.00380616
0.00287339
0.00196078
0.00108108
0.00024129
-0.000558932
-0.00131859
-0.00203457
-0.00269804
-0.00329708
-0.00382297
-0.00427099
-0.00463385
-0.00490226
-0.00507427
-0.00514538
-0.00511519
-0.00498148
-0.00474257
-0.00439879
-0.00394986
-0.00339541
-0.00273539
-0.00196923
-0.00109702
-0.00012013
0.000961055
0.00214626
0.00343286
0.00481767
0.00629786
0.00786893
0.00952529
0.0112622
0.0130752
0.0149592
0.0169093
0.0189212
0.0209908
0.0231139
0.0252872
0.0275063
0.0297661
0.0320608
0.0343837
0.036728
0.0390903
0.0414662
0.0438492
0.0462334
0.0486134
0.0509827
0.0533347
0.0556616
0.0579546
0.0602082
0.0624209
0.0645899
0.0667107
0.0687787
0.0707882
0.0727323
0.0746065
0.0764076
0.07813
0.079767
0.0813136
0.082766
0.0841185
0.0853661
0.0865075
0.0875444
0.0884787
0.0893118
0.0900446
0.0906752
0.0911995
0.0916153
0.0919251
0.0921332
0.0922417
0.0922505
0.0921606
0.0919752
0.0916982
0.0913323
0.0908817
0.0903545
0.0897615
0.0891122
0.0884143
0.0876749
0.0869009
0.0860978
0.0852744
0.0844366
0.0835105
0.0824272
0.00677474
0.0054836
0.00438558
0.00339807
0.00243796
0.00151659
0.000640901
-0.00018549
-0.000963452
-0.00169026
-0.00235878
-0.0029595
-0.00348403
-0.00392669
-0.00428186
-0.00454333
-0.00470811
-0.00477306
-0.0047368
-0.00459787
-0.00435559
-0.00400965
-0.00356039
-0.00300639
-0.00234674
-0.00158284
-0.000714972
0.000257237
0.00133237
0.00250875
0.00378513
0.00515893
0.00662625
0.00818306
0.00982516
0.0115476
0.0133452
0.015213
0.0171467
0.0191419
0.0211944
0.0233004
0.0254568
0.0276591
0.0299008
0.0321761
0.0344786
0.0368024
0.0391438
0.0414979
0.0438578
0.0462186
0.048576
0.0509233
0.0532532
0.0555571
0.0578271
0.0600592
0.0622521
0.0644015
0.0665018
0.0685487
0.0705372
0.0724616
0.074317
0.0760996
0.0778039
0.0794242
0.0809571
0.0823982
0.083741
0.0849796
0.0861128
0.087143
0.0880719
0.0889007
0.0896295
0.0902571
0.0907799
0.0911964
0.0915091
0.0917215
0.0918342
0.0918454
0.0917554
0.0915675
0.0912862
0.090915
0.090458
0.0899222
0.089316
0.0886472
0.0879222
0.0871473
0.0863279
0.0854683
0.0845771
0.0836585
0.0826263
0.0814046
0.00747594
0.00609405
0.00492556
0.00388279
0.00287255
0.00190573
0.000992059
0.000133164
-0.000669248
-0.00141175
-0.00209064
-0.00269816
-0.0032262
-0.00366869
-0.00402063
-0.00427908
-0.00443888
-0.00450049
-0.00446024
-0.00431738
-0.00407347
-0.00372651
-0.00327514
-0.00272031
-0.00206179
-0.0012986
-0.000431739
0.000537092
0.00160724
0.00277791
0.00404718
0.00541227
0.00687003
0.00841695
0.0100489
0.0117606
0.0135467
0.0154026
0.017324
0.0193064
0.0213456
0.0234386
0.0255824
0.0277717
0.0299991
0.032259
0.0345464
0.0368555
0.0391813
0.0415182
0.0438602
0.0462034
0.0485435
0.0508732
0.0531847
0.0554703
0.0577234
0.0599404
0.062119
0.0642539
0.0663393
0.0683713
0.0703455
0.0722555
0.0740961
0.0758633
0.0775528
0.0791606
0.080684
0.0821185
0.0834561
0.08469
0.0858189
0.086845
0.0877698
0.0885942
0.0893186
0.0899423
0.090463
0.0908799
0.0911947
0.0914093
0.0915222
0.0915304
0.0914348
0.0912398
0.0909508
0.0905713
0.0901045
0.089556
0.0889323
0.0882397
0.0874834
0.086669
0.0858014
0.084884
0.0839242
0.0829247
0.0817894
0.0804364
0.0081279
0.00665641
0.00541667
0.00431838
0.00325524
0.00224075
0.00128518
0.000390376
-0.000440447
-0.00120471
-0.00189924
-0.0025177
-0.00305282
-0.00349874
-0.00385231
-0.00411091
-0.00426983
-0.00432832
-0.00428621
-0.00414247
-0.00389622
-0.00354725
-0.00309448
-0.00253807
-0.00187855
-0.00111491
-0.000247834
0.000719921
0.00178731
0.00295428
0.00421895
0.00557853
0.00703044
0.00857139
0.0101969
0.0119016
0.0136805
0.0155287
0.0174413
0.0194144
0.0214447
0.0235292
0.025664
0.0278432
0.0300599
0.0323096
0.0345876
0.0368869
0.0392017
0.0415264
0.0438561
0.0461871
0.0485143
0.0508301
0.0531276
0.0554004
0.0576427
0.0598503
0.0620197
0.0641453
0.0662218
0.0682457
0.070212
0.0721132
0.0739436
0.0757001
0.0773798
0.07898
0.0804989
0.0819313
0.0832682
0.0845017
0.0856298
0.0866545
0.0875771
0.0883985
0.0891199
0.0897411
0.0902606
0.0906775
0.0909925
0.0912056
0.0913136
0.0913139
0.0912084
0.0910037
0.0907053
0.0903152
0.0898348
0.0892684
0.0886221
0.0879013
0.0871101
0.0862533
0.0853352
0.0843582
0.0833282
0.0822476
0.0810126
0.0795352
0.0087263
0.00716327
0.00585284
0.00469644
0.00358058
0.00251536
0.00151414
0.000581752
-0.000280913
-0.00107233
-0.0017875
-0.00242028
-0.00296599
-0.00342046
-0.00377961
-0.00403949
-0.00420076
-0.00425948
-0.00421633
-0.00407208
-0.00382431
-0.00347254
-0.00301766
-0.00245961
-0.00179741
-0.00103099
-0.000162652
0.00080511
0.00187196
0.00303783
0.00430067
0.00565785
0.00710724
0.0086458
0.0102689
0.0119708
0.0137463
0.0155901
0.0174978
0.0194661
0.0214921
0.0235716
0.0257004
0.027873
0.0300838
0.0323287
0.0346019
0.0368959
0.0392045
0.0415224
0.0438453
0.0461689
0.0484876
0.0507942
0.0530831
0.0553491
0.0575862
0.0597894
0.0619545
0.0640763
0.0661502
0.0681725
0.070137
0.0720351
0.0738611
0.0756128
0.0772887
0.0788871
0.0804061
0.0818402
0.0831796
0.0844158
0.0855465
0.0865729
0.0874963
0.0883178
0.0890388
0.0896595
0.0901783
0.0905938
0.0909056
0.0911126
0.0912116
0.0912006
0.0910835
0.0908677
0.0905577
0.0901536
0.089655
0.0890655
0.0883917
0.0876386
0.0868095
0.0859078
0.0849371
0.0838982
0.0827963
0.0816354
0.0803038
0.078708
0.00926564
0.0076116
0.00622757
0.00501195
0.003841
0.00272433
0.00167638
0.000701763
-0.000197117
-0.00101767
-0.00175673
-0.00240941
-0.00296998
-0.00343553
-0.0038031
-0.0040691
-0.00423316
-0.00429453
-0.00425258
-0.00410682
-0.0038573
-0.00350384
-0.0030464
-0.00248476
-0.00181842
-0.00104858
-0.000178052
0.000791545
0.00186027
0.00302742
0.00429086
0.0056487
0.00709932
0.00863938
0.0102636
0.0119661
0.0137415
0.0155851
0.0174926
0.0194608
0.0214861
0.023564
0.0256904
0.0278612
0.0300714
0.0323161
0.0345889
0.036882
0.0391894
0.0415061
0.0438271
0.046148
0.048463
0.050766
0.0530527
0.055318
0.057555
0.0597582
0.0619237
0.064047
0.066124
0.0681506
0.0701189
0.0720198
0.0738477
0.0756015
0.07728
0.078882
0.0804051
0.0818435
0.0831875
0.0844288
0.085565
0.0865968
0.087525
0.0883502
0.0890737
0.0896955
0.0902133
0.090625
0.0909299
0.0911272
0.0912146
0.0911916
0.0910625
0.0908339
0.0905086
0.0900854
0.0895635
0.0889469
0.088242
0.0874535
0.0865838
0.0856349
0.0846089
0.0835061
0.0823322
0.0810923
0.0796661
0.0779562
0.00974353
0.00799633
0.00653629
0.00525975
0.00403182
0.00286271
0.00176453
0.000744433
-0.000192972
-0.00104651
-0.00181328
-0.00248882
-0.00306818
-0.00354783
-0.00392563
-0.00420141
-0.00437091
-0.00443547
-0.00439538
-0.00424937
-0.00399827
-0.00364262
-0.00318187
-0.00261546
-0.0019442
-0.00117035
-0.000296142
0.000677468
0.0017501
0.00292067
0.00418755
0.00554961
0.00700509
0.00854988
0.0101783
0.0118847
0.013664
0.015512
0.017424
0.0193961
0.0214245
0.0235048
0.0256338
0.027808
0.0300224
0.0322714
0.034548
0.0368449
0.0391564
0.041477
0.043801
0.0461238
0.0484408
0.0507468
0.0530377
0.0553077
0.0575493
0.059757
0.0619276
0.0640575
0.0661428
0.0681783
0.0701556
0.0720652
0.0739018
0.0756644
0.0773517
0.0789616
0.0804918
0.0819366
0.0832872
0.0845363
0.0856813
0.0867222
0.0876589
0.0884912
0.0892197
0.0898435
0.0903596
0.0907655
0.0910612
0.0912473
0.091323
0.0912883
0.0911466
0.0909023
0.090557
0.0901095
0.0895604
0.0889141
0.088176
0.0873499
0.086437
0.0854381
0.0843543
0.0831863
0.081941
0.0806229
0.0791037
0.0772824
0.0101541
0.00831233
0.00677774
0.00543539
0.00414671
0.00292251
0.00177374
0.000705864
-0.000274381
-0.00116457
-0.00196208
-0.00266293
-0.00326412
-0.00376156
-0.00415273
-0.00443799
-0.00461617
-0.00468602
-0.00464738
-0.00450185
-0.00425027
-0.00389202
-0.00342645
-0.00285429
-0.00217782
-0.00139903
-0.000519098
0.000460737
0.00153927
0.00271576
0.00398947
0.00535926
0.00682251
0.00837463
0.0100102
0.0117243
0.0135122
0.0153691
0.0172897
0.0192696
0.0213054
0.0233934
0.0255307
0.0277136
0.0299367
0.0321942
0.0344795
0.0367854
0.039106
0.0414351
0.043767
0.0460976
0.0484232
0.0507391
0.0530404
0.0553203
0.0575711
0.0597882
0.0619691
0.0641105
0.0662082
0.068257
0.0702482
0.0721727
0.0740248
0.0758023
0.077503
0.0791244
0.0806643
0.0821183
0.0834786
0.0847386
0.0858956
0.0869489
0.087897
0.0887386
0.0894733
0.0900994
0.0906133
0.0910132
0.0913003
0.0914764
0.0915414
0.0914949
0.0913383
0.0910745
0.090705
0.0902301
0.0896518
0.0889741
0.0882011
0.087335
0.086376
0.0853243
0.084181
0.0829473
0.0816307
0.0802343
0.0786232
0.076692
0.0104931
0.00855601
0.00694322
0.0055342
0.00418188
0.00289795
0.00169649
0.000579256
-0.000446484
-0.00137582
-0.00220757
-0.00293786
-0.00356246
-0.00407914
-0.00448779
-0.00478527
-0.00497224
-0.00504762
-0.00501221
-0.00486847
-0.00461606
-0.00425387
-0.00378255
-0.00320463
-0.00252234
-0.00173661
-0.000848683
0.000139191
0.00122579
0.00241139
0.00369549
0.00507587
0.0065491
0.00811107
0.00975753
0.0114837
0.0132843
0.0151539
0.017087
0.0190795
0.0211283
0.0232299
0.0253812
0.0275778
0.0298143
0.0320854
0.0343847
0.0367049
0.0390394
0.0413819
0.0437275
0.0460728
0.048414
0.0507464
0.0530641
0.0553597
0.0576257
0.0598581
0.0620547
0.0642121
0.0663262
0.0683925
0.0704029
0.0723481
0.0742215
0.076019
0.077737
0.0793731
0.0809263
0.082393
0.0837664
0.0850404
0.086212
0.0872795
0.0882405
0.0890923
0.0898335
0.0904617
0.0909742
0.09137
0.0916511
0.0918195
0.0918744
0.0918141
0.0916393
0.0913527
0.0909569
0.0904535
0.0898448
0.0891338
0.0883232
0.0874142
0.0864062
0.0852997
0.084096
0.0827961
0.0814068
0.0799315
0.0782288
0.0761889
0.0107575
0.00871934
0.00702619
0.00554991
0.00413028
0.00278296
0.00152539
0.000357649
-0.000715806
-0.00168783
-0.00255552
-0.00331689
-0.00396836
-0.00450779
-0.00493425
-0.00524608
-0.00544266
-0.00552467
-0.00549422
-0.00535194
-0.00509719
-0.00473033
-0.0042536
-0.00366967
-0.00297977
-0.00218486
-0.00128741
-0.00028984
0.000807748
0.00200598
0.0033032
0.00469612
0.00618171
0.00775715
0.00941872
0.0111609
0.0129776
0.0148637
0.0168141
0.0188249
0.0208929
0.023014
0.0251844
0.0273999
0.0296554
0.0319459
0.0342647
0.0366043
0.038958
0.04132
0.043686
0.046053
0.0484167
0.0507718
0.0531124
0.0554306
0.0577188
0.059973
0.0621909
0.0643691
0.0665044
0.068593
0.0706276
0.0725983
0.0744971
0.0763182
0.0780574
0.0797126
0.0812835
0.0827671
0.0841569
0.0854469
0.0866343
0.0877166
0.0886906
0.0895525
0.0903
0.0909312
0.091444
0.0918385
0.0921166
0.0922788
0.0923227
0.092246
0.0920502
0.0917393
0.0913169
0.0907846
0.0901435
0.0893961
0.0885445
0.0875894
0.08653
0.085367
0.0841019
0.0827343
0.0812705
0.0797153
0.0779207
0.0757731
0.0109417
0.00879618
0.00701811
0.00547136
0.00398473
0.00257208
0.00125356
3.2407e-05
-0.00108938
-0.00210601
-0.00301267
-0.00380712
-0.00448747
-0.00505176
-0.00549659
-0.00582325
-0.0060311
-0.00612128
-0.00609535
-0.00595322
-0.00569575
-0.00532479
-0.00484271
-0.00425144
-0.00355217
-0.00274696
-0.00183875
-0.000828914
0.000283001
0.00149641
0.00280843
0.00421619
0.00571791
0.00731116
0.0089915
0.0107527
0.0125892
0.0144963
0.0164697
0.0185049
0.0205976
0.0227434
0.0249385
0.0271788
0.0294592
0.0317745
0.0341182
0.0364828
0.0388619
0.0412502
0.0436436
0.0460388
0.0484314
0.0508159
0.0531863
0.0555344
0.0578523
0.0601351
0.0623802
0.0645851
0.0667472
0.0688634
0.0709264
0.072926
0.0748533
0.0767016
0.0784662
0.0801455
0.0817391
0.0832438
0.084653
0.0859607
0.0871642
0.0882611
0.0892474
0.0901193
0.0908742
0.0915103
0.0920261
0.0924217
0.0926979
0.0928536
0.0928851
0.0927908
0.0925736
0.0922389
0.0917902
0.0912277
0.0905517
0.0897645
0.0888687
0.0878646
0.0867515
0.0855304
0.0842018
0.082764
0.0812239
0.0795876
0.0777005
0.0754452
0.0110365
0.00878111
0.00691223
0.00529048
0.00373559
0.00225625
0.000874993
-0.000402605
-0.00157462
-0.00263679
-0.00358461
-0.00441484
-0.00512508
-0.00571339
-0.00617864
-0.00652086
-0.00674058
-0.00683878
-0.00681612
-0.00667404
-0.00641472
-0.00604001
-0.00555178
-0.00495195
-0.00424264
-0.00342645
-0.00250547
-0.00148034
-0.000351562
0.000878782
0.00220788
0.00363421
0.00515645
0.00677118
0.00847315
0.0102566
0.0121171
0.0140506
0.0160524
0.018117
0.0202395
0.0224153
0.0246405
0.0269112
0.0292221
0.0315678
0.0339421
0.0363379
0.038749
0.04117
0.043597
0.0460266
0.0484543
0.050875
0.0532823
0.0556677
0.0580223
0.0603408
0.0626201
0.0648581
0.0670531
0.0692019
0.0712972
0.0733288
0.0752879
0.0771675
0.0789626
0.0806712
0.0822922
0.0838219
0.0852533
0.0865805
0.0878011
0.0889126
0.0899116
0.0907942
0.0915585
0.0922023
0.0927236
0.0931213
0.0933951
0.0935433
0.0935625
0.0934521
0.0932159
0.092859
0.0923838
0.0917893
0.0910759
0.0902464
0.0893042
0.0882493
0.0870805
0.0857985
0.0844032
0.0828927
0.0812748
0.079556
0.0775759
0.0752116
0.0110339
0.00866637
0.00670287
0.00500106
0.0033744
0.00182771
0.000382768
-0.000953551
-0.00217804
-0.00328696
-0.00427647
-0.00514331
-0.00588438
-0.00649698
-0.00698315
-0.00734165
-0.0075729
-0.00767799
-0.00765852
-0.00751751
-0.00725694
-0.00687803
-0.0063827
-0.00577377
-0.00505401
-0.00422536
-0.00328898
-0.00224608
-0.00109864
0.000150942
0.00150087
0.00295021
0.0044967
0.00613572
0.00786215
0.00967173
0.011561
0.0135259
0.0155606
0.017659
0.0198159
0.0220266
0.0242871
0.0265932
0.0289398
0.0313215
0.0337325
0.0361658
0.0386151
0.0410749
0.0435411
0.0460108
0.0484799
0.050943
0.0533937
0.0558231
0.0582217
0.0605834
0.0629044
0.0651824
0.0674161
0.0696024
0.0717341
0.0738017
0.0757967
0.0777122
0.079543
0.0812859
0.0829387
0.0844967
0.0859529
0.087302
0.0885416
0.0896698
0.0906832
0.091579
0.0923552
0.0930089
0.093537
0.0939368
0.0942077
0.0943486
0.0943578
0.0942349
0.0939828
0.0936049
0.0931023
0.0924743
0.0917221
0.0908494
0.0898596
0.0887523
0.0875257
0.0861799
0.0847152
0.0831302
0.0814329
0.0796303
0.0775567
0.0750816
0.0109218
0.0084431
0.00638457
0.00459769
0.0028947
0.00127955
-0.000229969
-0.00162625
-0.00290477
-0.00406168
-0.00509325
-0.00599616
-0.00676789
-0.00740697
-0.00791346
-0.00828765
-0.0085299
-0.0086418
-0.00862669
-0.00848736
-0.00822501
-0.00784102
-0.0073381
-0.00671972
-0.00598825
-0.00514459
-0.00419014
-0.0031276
-0.00195949
-0.000687182
0.000688165
0.00216453
0.0037381
0.00540401
0.00715848
0.00899872
0.0109216
0.0129221
0.0149937
0.01713
0.0193258
0.0215761
0.0238765
0.0262229
0.0286103
0.0310337
0.0334871
0.035964
0.0384575
0.0409616
0.0434727
0.045988
0.0485039
0.0510151
0.053515
0.0559946
0.0584442
0.0608565
0.0632265
0.0655514
0.0678297
0.0700587
0.0722317
0.0743401
0.0763758
0.0783321
0.0802031
0.0819847
0.0836733
0.085263
0.086747
0.0881208
0.0893827
0.0905311
0.0915629
0.092475
0.0932652
0.0939298
0.0944645
0.0948666
0.0951358
0.0952723
0.0952749
0.0951426
0.094876
0.0944769
0.093946
0.0932838
0.0924926
0.0915764
0.0905379
0.0893765
0.08809
0.0866783
0.0851426
0.0834819
0.0817037
0.0798164
0.0776481
0.0750614
0.0106906
0.0081016
0.00594853
0.00407489
0.00229177
0.000605432
-0.000969638
-0.00242654
-0.00375979
-0.00496498
-0.00603893
-0.00697866
-0.00778136
-0.00844708
-0.00897376
-0.00936306
-0.00961646
-0.00973634
-0.00972607
-0.00958752
-0.00932222
-0.00893256
-0.00842169
-0.00779262
-0.00704685
-0.00618536
-0.00521083
-0.00412673
-0.0029347
-0.0016351
-0.00023002
0.00127642
0.00287958
0.0045758
0.00636302
0.00823899
0.0101999
0.0122401
0.0143525
0.0165309
0.0187702
0.0210646
0.0234098
0.0258014
0.0282349
0.0307053
0.0332069
0.0357329
0.0382762
0.0408306
0.0433921
0.0459582
0.0485257
0.05109
0.0536447
0.0561805
0.0586873
0.0611566
0.0635822
0.0659604
0.0682897
0.0705675
0.0727879
0.0749427
0.0770242
0.0790255
0.0809405
0.0827645
0.0844925
0.0861177
0.0876335
0.0890361
0.0903248
0.0914981
0.0925525
0.0934844
0.0942904
0.0949663
0.095508
0.0959139
0.0961848
0.0963206
0.0963193
0.0961783
0.0958966
0.0954752
0.0949156
0.0942195
0.0933894
0.0924288
0.09134
0.0901224
0.0887743
0.0872958
0.0856885
0.0839508
0.0820907
0.0801179
0.0778534
0.0751548
0.0103377
0.00763402
0.00538586
0.00342632
0.00156046
-0.000200392
-0.00184175
-0.00335942
-0.00474794
-0.00600231
-0.00711915
-0.00809642
-0.00893142
-0.00962241
-0.0101697
-0.010575
-0.0108404
-0.0109685
-0.0109619
-0.0108227
-0.0105538
-0.0101578
-0.00963743
-0.00899499
-0.00823209
-0.00735082
-0.00635454
-0.00524585
-0.00402524
-0.00269374
-0.0012557
0.000283274
0.0019194
0.00365096
0.00547664
0.00739349
0.00939682
0.0114807
0.0136382
0.0158636
0.0181511
0.0204947
0.0228893
0.0253311
0.0278159
0.030339
0.0328946
0.0354755
0.0380744
0.0406846
0.0433018
0.045924
0.0485483
0.051171
0.0537858
0.0563833
0.0589525
0.0614841
0.0639711
0.0664092
0.0687964
0.0711299
0.0734039
0.0756109
0.0777432
0.0797939
0.0817567
0.0836263
0.0853973
0.0870625
0.0886151
0.0900521
0.0913729
0.092576
0.0936572
0.0946117
0.0954353
0.0961241
0.0966752
0.0970886
0.0973651
0.0975033
0.0974988
0.0973478
0.0970494
0.0966053
0.0960177
0.095288
0.0944183
0.0934118
0.0922707
0.0909955
0.0895847
0.0880389
0.0863591
0.0845432
0.0826003
0.0805408
0.0781791
0.0753669
0.00986243
0.00703706
0.00469017
0.00264453
0.000695569
-0.00114198
-0.00285134
-0.00443042
-0.00587489
-0.0071797
-0.00834086
-0.0093558
-0.0102232
-0.0109402
-0.011509
-0.0119311
-0.0122084
-0.0123436
-0.0123394
-0.012199
-0.0119257
-0.0115216
-0.010989
-0.0103305
-0.00954863
-0.00864609
-0.0076253
-0.00648752
-0.00523366
-0.00386702
-0.00239373
-0.000818949
0.000855349
0.00262849
0.00449836
0.00646065
0.00851046
0.0106426
0.0128507
0.0151285
0.0174696
0.0198671
0.0223161
0.0248132
0.0273549
0.0299367
0.0325524
0.0351945
0.0378549
0.0405265
0.0432054
0.0458893
0.0485761
0.0512626
0.0539427
0.0566066
0.0592428
0.0618415
0.0643954
0.0668999
0.0693519
0.0717479
0.074082
0.0763467
0.0785347
0.0806393
0.082654
0.0845732
0.0863911
0.0881009
0.0896962
0.0911739
0.0925327
0.09377
0.094881
0.0958608
0.0967051
0.0974107
0.0979759
0.098401
0.098686
0.0988275
0.0988191
0.098657
0.0983416
0.0978757
0.0972607
0.096497
0.0955863
0.0945323
0.093338
0.0920041
0.0905299
0.0889159
0.0871621
0.0852671
0.0832404
0.0810927
0.0786329
0.0757038
0.0092613
0.00630826
0.0038568
0.00172301
-0.000308614
-0.00222382
-0.00400401
-0.00564669
-0.00714819
-0.00850366
-0.00970995
-0.010764
-0.0116637
-0.0124085
-0.0129993
-0.0134378
-0.0137262
-0.0138673
-0.013865
-0.0137229
-0.0134433
-0.0130285
-0.0124813
-0.0118053
-0.0110032
-0.0100767
-0.00902701
-0.00785558
-0.00656543
-0.00516173
-0.00365027
-0.00203453
-0.000315595
0.00150503
0.00342367
0.00543543
0.00753635
0.00972237
0.0119872
0.0143232
0.0167229
0.0191795
0.0216882
0.0242465
0.0268513
0.029498
0.0321802
0.0348897
0.0376177
0.0403572
0.0431041
0.0458564
0.048612
0.0513677
0.0541176
0.0568519
0.0595593
0.06223
0.0648564
0.0674331
0.0699562
0.072421
0.074821
0.0771489
0.0793978
0.0815611
0.0836323
0.0856056
0.0874754
0.0892351
0.0908787
0.0924028
0.0938046
0.0950802
0.0962243
0.0972326
0.0981022
0.0988302
0.0994149
0.0998554
0.10015
0.100294
0.100281
0.100109
0.0997783
0.0992919
0.0986494
0.0978502
0.0968969
0.0957946
0.0945468
0.0931538
0.0916151
0.089931
0.0881016
0.0861261
0.0840143
0.0817776
0.0792176
0.0761689
0.00852764