/*--------------------------------*- C++ -*----------------------------------*\
  =========                 |
  \\      /  F ield         | OpenFOAM: The Open Source CFD Toolbox
   \\    /   O peration     | Website:  https://openfoam.org
    \\  /    A nd           | Version:  11
     \\/     M anipulation  |
\*---------------------------------------------------------------------------*/
FoamFile
{
    format      ascii;
    class       surfaceScalarField;
    location    "2";
    object      phi;
}
// * * * * * * * * * * * * * * * * * * * * * * * * * * * * * * * * * * * * * //

dimensions      [0 3 -1 0 0 0 0];

internalField   nonuniform List<scalar> 
19980
(
7.28621e-07
-7.26893e-07
2.31982e-06
-1.59099e-06
4.09193e-06
-1.77224e-06
5.50229e-06
-1.41044e-06
6.21324e-06
-7.10862e-07
6.06605e-06
1.47103e-07
4.98129e-06
1.08474e-06
2.95848e-06
2.02299e-06
1.96515e-08
2.93881e-06
-3.77972e-06
3.7995e-06
-8.38437e-06
4.60459e-06
-1.37265e-05
5.34215e-06
-1.97385e-05
6.01194e-06
-2.63479e-05
6.60935e-06
-3.34814e-05
7.13333e-06
-4.10678e-05
7.5863e-06
-4.90311e-05
7.96331e-06
-5.73034e-05
8.27233e-06
-6.58123e-05
8.50904e-06
-7.44987e-05
8.68641e-06
-8.32992e-05
8.80052e-06
-9.21595e-05
8.86047e-06
-0.000101033
8.87336e-06
-0.000109881
8.84818e-06
-0.000118669
8.78775e-06
-0.000127367
8.69811e-06
-0.000135943
8.5759e-06
-0.000144361
8.41793e-06
-0.000152587
8.22624e-06
-0.00016059
8.00347e-06
-0.000168342
7.75158e-06
-0.000175817
7.47472e-06
-0.000182994
7.17712e-06
-0.000189853
6.85925e-06
-0.000196376
6.5227e-06
-0.000202549
6.17245e-06
-0.00020836
5.81121e-06
-0.0002138
5.44007e-06
-0.000218861
5.06113e-06
-0.000223539
4.67779e-06
-0.000227831
4.29168e-06
-0.000231732
3.90087e-06
-0.000235236
3.50461e-06
-0.000238339
3.10318e-06
-0.000241034
2.69495e-06
-0.000243313
2.27847e-06
-0.000245167
1.85383e-06
-0.000246588
1.42169e-06
-0.000247571
9.8255e-07
-0.000248107
5.35933e-07
-0.000248187
8.05434e-08
-0.000247803
-3.83873e-07
-0.000246948
-8.55376e-07
-0.000245617
-1.33102e-06
-0.000243808
-1.8088e-06
-0.000241521
-2.28717e-06
-0.000238757
-2.76405e-06
-0.00023552
-3.23692e-06
-0.000231817
-3.70323e-06
-0.000227656
-4.1611e-06
-0.000223046
-4.60946e-06
-0.000218
-5.04629e-06
-0.000212532
-5.46783e-06
-0.000206661
-5.87104e-06
-0.000200406
-6.25507e-06
-0.000193787
-6.61877e-06
-0.000186828
-6.95933e-06
-0.000179554
-7.27438e-06
-0.000171991
-7.56276e-06
-0.000164169
-7.82239e-06
-0.000156118
-8.05016e-06
-0.000147874
-8.2443e-06
-0.00013947
-8.40384e-06
-0.000130944
-8.52605e-06
-0.000122336
-8.60784e-06
-0.000113687
-8.64962e-06
-0.000105032
-8.65489e-06
-9.64063e-05
-8.62561e-06
-8.78465e-05
-8.55976e-06
-7.93927e-05
-8.45373e-06
-7.10879e-05
-8.30479e-06
-6.29766e-05
-8.11129e-06
-5.51047e-05
-7.87191e-06
-4.75194e-05
-7.58523e-06
-4.02695e-05
-7.24994e-06
-3.34046e-05
-6.86492e-06
-2.69761e-05
-6.42849e-06
-2.10371e-05
-5.93903e-06
-1.56406e-05
-5.39648e-06
-1.08394e-05
-4.80116e-06
-6.68627e-06
-4.15308e-06
-3.23266e-06
-3.45365e-06
-5.25898e-07
-2.70681e-06
1.39671e-06
-1.92258e-06
2.51897e-06
-1.12221e-06
2.85994e-06
-3.40964e-07
2.49795e-06
3.61995e-07
1.61298e-06
8.8485e-07
5.67909e-07
1.04469e-06
5.67564e-07
1.13793e-06
-1.86473e-06
3.09567e-06
-3.54899e-06
4.90892e-06
-3.58523e-06
5.66414e-06
-2.16572e-06
4.75061e-06
2.02928e-07
1.81854e-06
3.07915e-06
-3.28531e-06
6.1887e-06
-1.06087e-05
9.34629e-06
-2.01078e-05
1.24379e-05
-3.16945e-05
1.53862e-05
-4.52404e-05
1.81506e-05
-6.06025e-05
2.07043e-05
-7.76232e-05
2.30328e-05
-9.61416e-05
2.51279e-05
-0.000115986
2.69783e-05
-0.000136992
2.85917e-05
-0.000158989
2.9961e-05
-0.000181814
3.10967e-05
-0.000205306
3.20008e-05
-0.000229313
3.26931e-05
-0.000253688
3.31757e-05
-0.000278298
3.34704e-05
-0.000303015
3.35903e-05
-0.000327721
3.35545e-05
-0.000352311
3.33781e-05
-0.000376683
3.30699e-05
-0.000400737
3.26302e-05
-0.000424383
3.20634e-05
-0.000447532
3.13748e-05
-0.000470097
3.05689e-05
-0.000492001
2.96555e-05
-0.000513172
2.86461e-05
-0.000533544
2.75493e-05
-0.000553057
2.6372e-05
-0.000571657
2.51226e-05
-0.000589296
2.38113e-05
-0.00060593
2.24457e-05
-0.000621522
2.10319e-05
-0.000636038
1.95771e-05
-0.000649449
1.80882e-05
-0.000661726
1.65695e-05
-0.000672848
1.50223e-05
-0.000682791
1.34478e-05
-0.000691535
1.18469e-05
-0.000699058
1.02186e-05
-0.000705342
8.56255e-06
-0.000710369
6.88014e-06
-0.000714121
5.17358e-06
-0.000716583
3.44544e-06
-0.000717744
1.69668e-06
-0.000717591
-7.26089e-08
-0.000716114
-1.86011e-06
-0.000713309
-3.66086e-06
-0.000709171
-5.4687e-06
-0.000703703
-7.2771e-06
-0.000696911
-9.0795e-06
-0.000688805
-1.08696e-05
-0.000679401
-1.26413e-05
-0.000668716
-1.43877e-05
-0.000656775
-1.6102e-05
-0.000643607
-1.77775e-05
-0.000629246
-1.94074e-05
-0.00061373
-2.09835e-05
-0.000597104
-2.24974e-05
-0.000579417
-2.39421e-05
-0.000560724
-2.53114e-05
-0.000541085
-2.65983e-05
-0.000520565
-2.77946e-05
-0.000499235
-2.88929e-05
-0.000477171
-2.98866e-05
-0.000454452
-3.07684e-05
-0.000431166
-3.15305e-05
-0.000407405
-3.21649e-05
-0.000383267
-3.26643e-05
-0.000358851
-3.30234e-05
-0.000334262
-3.32386e-05
-0.000309608
-3.3309e-05
-0.000285
-3.32331e-05
-0.000260554
-3.30064e-05
-0.000236387
-3.26207e-05
-0.000212625
-3.20665e-05
-0.0001894
-3.13361e-05
-0.000166847
-3.0425e-05
-0.000145103
-2.93299e-05
-0.000124306
-2.80462e-05
-0.000104603
-2.65684e-05
-8.61387e-05
-2.48926e-05
-6.90601e-05
-2.30176e-05
-5.35101e-05
-2.09463e-05
-3.96266e-05
-1.86846e-05
-2.7539e-05
-1.62408e-05
-1.73617e-05
-1.36309e-05
-9.18498e-06
-1.08835e-05
-3.06126e-06
-8.04639e-06
1.01633e-06
-5.20001e-06
3.14441e-06
-2.46909e-06
3.55148e-06
-4.47334e-08
2.65395e-06
1.78306e-06
1.11678e-06
2.58279e-06
1.68406e-06
6.39072e-07
-2.50389e-06
1.44896e-06
-4.35868e-06
1.49432e-06
-3.63071e-06
-2.46349e-07
-4.25135e-07
-4.46655e-06
4.4231e-06
-1.15853e-05
1.01978e-05
-2.17996e-05
1.6403e-05
-3.51699e-05
2.27165e-05
-5.16447e-05
2.89127e-05
-7.11168e-05
3.48583e-05
-9.34205e-05
4.04541e-05
-0.000118364
4.56481e-05
-0.000145733
5.04017e-05
-0.000175297
5.46912e-05
-0.000206829
5.85104e-05
-0.000240085
6.18484e-05
-0.000274838
6.47137e-05
-0.000310852
6.7111e-05
-0.000347908
6.90567e-05
-0.000385778
7.05628e-05
-0.000424258
7.16556e-05
-0.00046314
7.23529e-05
-0.000502235
7.26856e-05
-0.000541358
7.2677e-05
-0.00058033
7.23503e-05
-0.000618985
7.1725e-05
-0.000657167
7.08122e-05
-0.000694727
6.96234e-05
-0.000731526
6.81732e-05
-0.000767432
6.64752e-05
-0.000802324
6.4547e-05
-0.000836086
6.24079e-05
-0.00086861
6.00736e-05
-0.000899798
5.75602e-05
-0.00092956
5.48845e-05
-0.000957811
5.20622e-05
-0.000984474
4.91089e-05
-0.00100948
4.60374e-05
-0.00103276
4.28609e-05
-0.00105427
3.95924e-05
-0.00107394
3.62409e-05
-0.00109173
3.28128e-05
-0.0011076
2.93151e-05
-0.0011215
2.57527e-05
-0.00113341
2.21285e-05
-0.0011433
1.84467e-05
-0.00115113
1.4713e-05
-0.00115689
1.09329e-05
-0.00116056
7.11245e-06
-0.00116212
3.2572e-06
-0.00116156
-6.27653e-07
-0.00115889
-4.53531e-06
-0.00115409
-8.45649e-06
-0.00114718
-1.23799e-05
-0.00113816
-1.62936e-05
-0.00112706
-2.0186e-05
-0.00111388
-2.40455e-05
-0.00109866
-2.78591e-05
-0.00108144
-3.16137e-05
-0.00106224
-3.5297e-05
-0.00104112
-3.88958e-05
-0.00101814
-4.23948e-05
-0.000993341
-4.57787e-05
-0.000966805
-4.90335e-05
-0.000938602
-5.21452e-05
-0.000908815
-5.50982e-05
-0.000877537
-5.78771e-05
-0.000844864
-6.0467e-05
-0.000810904
-6.28532e-05
-0.000775771
-6.50193e-05
-0.00073959
-6.69492e-05
-0.000702493
-6.8628e-05
-0.000664617
-7.00406e-05
-0.000626111
-7.1171e-05
-0.000587129
-7.20045e-05
-0.000547838
-7.25302e-05
-0.000508407
-7.27397e-05
-0.000469017
-7.26228e-05
-0.000429857
-7.21664e-05
-0.000391123
-7.13549e-05
-0.000353016
-7.01731e-05
-0.000315745
-6.86071e-05
-0.000279525
-6.66454e-05
-0.000244576
-6.42786e-05
-0.000211125
-6.1498e-05
-0.000179396
-5.82966e-05
-0.000149618
-5.46711e-05
-0.000122013
-5.06226e-05
-9.67989e-05
-4.61604e-05
-7.41809e-05
-4.13026e-05
-5.43435e-05
-3.60781e-05
-3.74411e-05
-3.05333e-05
-2.35847e-05
-2.47399e-05
-1.28227e-05
-1.88084e-05
-5.11649e-06
-1.29063e-05
-3.0732e-07
-7.27845e-06
1.9271e-06
-2.27969e-06
2.11693e-06
1.59295e-06
1.05927e-06
3.64086e-06
2.74328e-06
-1.00611e-07
-2.40338e-06
-9.39397e-07
-3.52001e-06
-3.30053e-06
-1.26968e-06
-8.19817e-06
4.47267e-06
-1.63402e-05
1.25651e-05
-2.81505e-05
2.20081e-05
-4.38379e-05
3.20904e-05
-6.34639e-05
4.23426e-05
-8.69819e-05
5.24307e-05
-0.000114254
6.21302e-05
-0.000145094
7.12946e-05
-0.000179268
7.98218e-05
-0.000216516
8.76503e-05
-0.000256565
9.47396e-05
-0.000299123
0.000101069
-0.000343901
0.000106626
-0.00039061
0.000111423
-0.000438953
0.000115454
-0.000488652
0.000118755
-0.000539427
0.000121338
-0.000591008
0.000123237
-0.000643134
0.000124479
-0.000695551
0.000125102
-0.000748014
0.00012514
-0.00080029
0.000124626
-0.000852154
0.000123589
-0.000903397
0.000122055
-0.000953822
0.000120049
-0.00100324
0.000117594
-0.00105149
0.000114717
-0.00109838
0.000111445
-0.00114378
0.000107806
-0.00118753
0.000103827
-0.00122951
9.95341e-05
-0.00126958
9.49547e-05
-0.00130763
9.01123e-05
-0.00134355
8.503e-05
-0.00137724
7.97315e-05
-0.00140862
7.42369e-05
-0.00143759
6.85658e-05
-0.00146409
6.27359e-05
-0.00148804
5.67613e-05
-0.00150938
5.06556e-05
-0.00152806
4.44312e-05
-0.00154402
3.8098e-05
-0.00155724
3.16668e-05
-0.00156768
2.51495e-05
-0.00157531
1.8558e-05
-0.0015801
1.19045e-05
-0.00158204
5.20031e-06
-0.00158113
-1.54275e-06
-0.00157735
-8.30944e-06
-0.00157072
-1.50843e-05
-0.00156125
-2.18517e-05
-0.00154895
-2.85931e-05
-0.00153385
-3.52881e-05
-0.00151598
-4.19179e-05
-0.00149537
-4.84638e-05
-0.00147208
-5.49046e-05
-0.00144616
-6.12182e-05
-0.00141767
-6.73833e-05
-0.00138669
-7.33774e-05
-0.00135329
-7.91765e-05
-0.00131757
-8.47556e-05
-0.00127963
-9.00909e-05
-0.00123957
-9.51586e-05
-0.00119751
-9.99335e-05
-0.00115359
-0.000104389
-0.00110794
-0.000108498
-0.00106072
-0.000112236
-0.0010121
-0.000115577
-0.000962231
-0.000118494
-0.000911313
-0.000120958
-0.000859539
-0.000122945
-0.000807114
-0.00012443
-0.000754254
-0.00012539
-0.000701189
-0.000125804
-0.000648163
-0.000125649
-0.000595427
-0.000124903
-0.000543242
-0.00012354
-0.000491876
-0.000121539
-0.000441608
-0.000118875
-0.000392723
-0.000115531
-0.000345511
-0.000111491
-0.000300266
-0.000106742
-0.000257285
-0.000101278
-0.00021686
-9.50959e-05
-0.000179277
-8.82055e-05
-0.00014481
-8.06279e-05
-0.000113712
-7.24004e-05
-8.62099e-05
-6.35804e-05
-6.24874e-05
-5.42558e-05
-4.267e-05
-4.45573e-05
-2.68046e-05
-3.46737e-05
-1.48363e-05
-2.48743e-05
-6.57742e-06
-1.55371e-05
-1.67242e-06
-7.18471e-06
4.41895e-07
-5.21554e-07
5.8858e-07
3.49425e-06
3.3319e-06
-8.69105e-07
-1.53412e-06
-3.58355e-06
-8.05345e-07
-8.71888e-06
3.86559e-06
-1.71774e-05
1.29312e-05
-2.96182e-05
2.5006e-05
-4.64353e-05
3.88251e-05
-6.7831e-05
5.3486e-05
-9.38509e-05
6.83624e-05
-0.000124425
8.30049e-05
-0.000159412
9.7117e-05
-0.000198589
0.000110472
-0.000241697
0.00012293
-0.00028844
0.000134393
-0.000338499
0.000144798
-0.000391539
0.000154109
-0.000447227
0.000162313
-0.000505209
0.000169405
-0.000565157
0.000175402
-0.000626724
0.000180322
-0.000689583
0.000184197
-0.000753408
0.000187061
-0.000817886
0.000188958
-0.000882712
0.000189928
-0.000947588
0.000190016
-0.00101223
0.000189269
-0.00107637
0.000187726
-0.00113974
0.000185428
-0.00120211
0.000182416
-0.00126324
0.000178726
-0.00132292
0.000174398
-0.00138095
0.000169472
-0.00143713
0.000163987
-0.00149129
0.000157982
-0.00154325
0.000151496
-0.00159286
0.000144566
-0.00163997
0.000137228
-0.00168446
0.000129514
-0.00172619
0.000121459
-0.00176504
0.000113094
-0.00180092
0.000104445
-0.00183373
9.55416e-05
-0.00186337
8.64068e-05
-0.00188978
7.70639e-05
-0.00191288
6.75336e-05
-0.00193262
5.78349e-05
-0.00194894
4.79887e-05
-0.00196181
3.80148e-05
-0.00197118
2.79317e-05
-0.00197704
1.77599e-05
-0.00197936
7.52085e-06
-0.00197814
-2.76538e-06
-0.00197337
-1.30771e-05
-0.00196506
-2.339e-05
-0.00195323
-3.36789e-05
-0.00193791
-4.39179e-05
-0.00191912
-5.40801e-05
-0.0018969
-6.41368e-05
-0.0018713
-7.40582e-05
-0.00184239
-8.38146e-05
-0.00181024
-9.33761e-05
-0.00177491
-0.00010271
-0.00173651
-0.000111782
-0.00169512
-0.000120557
-0.00165088
-0.000129003
-0.00160389
-0.000137083
-0.00155429
-0.000144758
-0.00150223
-0.000151993
-0.00144787
-0.000158747
-0.00139138
-0.000164985
-0.00133295
-0.000170665
-0.00127278
-0.000175748
-0.00121108
-0.000180193
-0.00114808
-0.000183961
-0.00108401
-0.000187013
-0.00101913
-0.000189309
-0.000953709
-0.000190814
-0.000888022
-0.000191491
-0.000822365
-0.000191305
-0.000757047
-0.000190221
-0.000692386
-0.000188201
-0.000628711
-0.000185214
-0.000566357
-0.000181229
-0.000505668
-0.000176219
-0.000446996
-0.000170163
-0.000390693
-0.000163045
-0.000337111
-0.00015486
-0.000286595
-0.000145611
-0.000239482
-0.000135319
-0.00019609
-0.00012402
-0.000156714
-0.000111777
-0.000121609
-9.86848e-05
-9.09843e-05
-8.48805e-05
-6.49806e-05
-7.05612e-05
-4.36537e-05
-5.60007e-05
-2.69528e-05
-4.15752e-05
-1.4693e-05
-2.77969e-05
-6.5275e-06
-1.53499e-05
-1.91849e-06
-5.13067e-06
-1.01021e-07
1.67679e-06
3.23087e-06
-1.63358e-06
9.93162e-08
-6.32659e-06
3.8876e-06
-1.4444e-05
1.19829e-05
-2.67269e-05
2.52141e-05
-4.37346e-05
4.20136e-05
-6.57938e-05
6.08843e-05
-9.30675e-05
8.07597e-05
-0.000125572
0.000100867
-0.000163225
0.000120658
-0.000205844
0.000139736
-0.000253196
0.000157823
-0.000304988
0.000174722
-0.000360891
0.000190296
-0.000420552
0.000204459
-0.000483598
0.000217155
-0.00054965
0.000228365
-0.000618318
0.000238073
-0.000689218
0.000246303
-0.000761962
0.000253067
-0.000836176
0.000258411
-0.000911486
0.000262371
-0.000987528
0.000265
-0.00106395
0.000266352
-0.00114042
0.000266481
-0.00121659
0.000265445
-0.00129217
0.0002633
-0.00136684
0.0002601
-0.00144032
0.000255901
-0.00151235
0.000250756
-0.00158268
0.00024472
-0.00165105
0.000237846
-0.00171725
0.000230188
-0.00178107
0.000221799
-0.0018423
0.000212731
-0.00190077
0.000203033
-0.0019563
0.000192754
-0.00200872
0.000181941
-0.0020579
0.000170638
-0.0021037
0.000158887
-0.00214598
0.000146728
-0.00218464
0.0001342
-0.00221957
0.000121338
-0.00225068
0.000108174
-0.00227789
9.47433e-05
-0.00230113
8.10742e-05
-0.00232034
6.71967e-05
-0.00233546
5.31412e-05
-0.00234647
3.89381e-05
-0.00235332
2.46164e-05
-0.00235601
1.02054e-05
-0.00235451
-4.26297e-06
-0.00234883
-1.87552e-05
-0.00233898
-3.32392e-05
-0.00232498
-4.76822e-05
-0.00230685
-6.20467e-05
-0.00228464
-7.62934e-05
-0.00225839
-9.03849e-05
-0.00222817
-0.000104283
-0.00219403
-0.000117946
-0.00215608
-0.00013133
-0.0021144
-0.000144391
-0.0020691
-0.000157085
-0.00202029
-0.000169364
-0.00196811
-0.00018118
-0.00191271
-0.000192485
-0.00185424
-0.000203226
-0.00179288
-0.000213354
-0.00172882
-0.000222814
-0.00166225
-0.000231552
-0.0015934
-0.000239516
-0.0015225
-0.000246649
-0.00144979
-0.000252896
-0.00137555
-0.000258202
-0.00130005
-0.000262511
-0.00122359
-0.00026577
-0.00114648
-0.000267926
-0.00106905
-0.000268926
-0.00099163
-0.000268722
-0.000914588
-0.000267262
-0.000838289
-0.000264501
-0.00076311
-0.000260393
-0.000689441
-0.000254898
-0.000617677
-0.000247983
-0.000548218
-0.000239621
-0.000481465
-0.000229798
-0.000417818
-0.000218507
-0.000357667
-0.000205762
-0.000301389
-0.000191596
-0.000249342
-0.000176067
-0.000201852
-0.000159268
-0.000159203
-0.000141334
-0.000121627
-0.000122456
-8.92872e-05
-0.000102901
-6.22577e-05
-8.30302e-05
-4.05091e-05
-6.33238e-05
-2.3886e-05
-4.44201e-05
-1.20859e-05
-2.71499e-05
-4.63917e-06
-1.25775e-05
-8.92792e-07
-2.06954e-06
2.33801e-06
-2.35635e-06
2.45563e-06
-9.05865e-06
1.059e-05
-2.02638e-05
2.31879e-05
-3.652e-05
4.14702e-05
-5.82454e-05
6.37389e-05
-8.56852e-05
8.8324e-05
-0.00011894
0.000114014
-0.000157986
0.000139913
-0.000202701
0.000165374
-0.000252883
0.000189918
-0.000308262
0.000213202
-0.000368517
0.000234977
-0.000433293
0.000255073
-0.000502202
0.000273368
-0.000574841
0.000289794
-0.000650786
0.000304309
-0.000729617
0.000316904
-0.000810901
0.000327586
-0.000894219
0.000336384
-0.000979144
0.000343336
-0.00106527
0.000348494
-0.00115218
0.000351915
-0.00123949
0.000353664
-0.00132682
0.00035381
-0.0014138
0.000352423
-0.00150007
0.000349573
-0.00158531
0.000345332
-0.00166917
0.00033977
-0.00175138
0.000332959
-0.00183163
0.000324968
-0.00190965
0.000315869
-0.00198519
0.00030573
-0.00205801
0.000294619
-0.00212788
0.000282603
-0.0021946
0.000269747
-0.00225795
0.000256112
-0.00231777
0.000241759
-0.00237388
0.000226749
-0.00242613
0.000211134
-0.00247437
0.000194968
-0.00251847
0.000178301
-0.00255832
0.000161184
-0.00259381
0.000143662
-0.00262484
0.000125776
-0.00265134
0.000107572
-0.00267323
8.90934e-05
-0.00269047
7.03796e-05
-0.002703
5.14698e-05
-0.00271079
3.24074e-05
-0.00271382
1.32354e-05
-0.00271208
-6.00555e-06
-0.00270556
-2.52731e-05
-0.00269428
-4.45219e-05
-0.00267826
-6.37054e-05
-0.00265753
-8.27763e-05
-0.00263214
-0.000101686
-0.00260214
-0.000120385
-0.0025676
-0.000138819
-0.00252861
-0.000156936
-0.00248526
-0.000174679
-0.00243766
-0.000191993
-0.00238593
-0.000208816
-0.0023302
-0.000225087
-0.00227064
-0.000240746
-0.0022074
-0.000255727
-0.00214066
-0.000269963
-0.00207063
-0.000283387
-0.00199751
-0.00029593
-0.00192154
-0.000307521
-0.00184297
-0.000318089
-0.00176206
-0.000327562
-0.00167909
-0.000335866
-0.00159436
-0.00034293
-0.00150819
-0.000348681
-0.00142091
-0.000353048
-0.00133288
-0.00035596
-0.00124445
-0.000357349
-0.00115603
-0.000357148
-0.001068
-0.000355293
-0.000980773
-0.000351725
-0.000894779
-0.000346386
-0.000810449
-0.000339229
-0.000728221
-0.000330211
-0.000648538
-0.000319304
-0.000571845
-0.000306491
-0.000498581
-0.000291772
-0.000429174
-0.000275169
-0.000364038
-0.000256732
-0.000303562
-0.000236543
-0.000248104
-0.000214726
-0.000197977
-0.000191461
-0.000153439
-0.000166994
-0.000114678
-0.000141662
-8.18015e-05
-0.000115907
-5.48163e-05
-9.03091e-05
-3.3618e-05
-6.56184e-05
-1.79736e-05
-4.27943e-05
-7.51065e-06
-2.30405e-05
-1.71894e-06
-7.86121e-06
6.19042e-07
-3.04859e-06
5.50431e-06
-1.17281e-05
1.92695e-05
-2.6034e-05
3.74937e-05
-4.6311e-05
6.17472e-05
-7.28198e-05
9.02476e-05
-0.000105703
0.000121207
-0.000144978
0.000153289
-0.00019057
0.000185505
-0.000242312
0.000217116
-0.000299965
0.000247571
-0.000363227
0.000276465
-0.000431752
0.000303501
-0.000505148
0.000328469
-0.000583
0.000351219
-0.000664869
0.000371663
-0.000750302
0.000389742
-0.000838842
0.000405444
-0.000930022
0.000418766
-0.00102338
0.000429744
-0.00111846
0.000438416
-0.00121481
0.000444845
-0.00131199
0.000449095
-0.00140957
0.000451243
-0.00150713
0.000451368
-0.00160426
0.000449557
-0.00170059
0.000445897
-0.00179573
0.000440474
-0.00188934
0.000433377
-0.00198107
0.000424695
-0.00207062
0.000414515
-0.00215768
0.000402924
-0.00224196
0.00039001
-0.00232319
0.000375858
-0.00240114
0.000360549
-0.00247556
0.000344164
-0.00254623
0.000326783
-0.00261295
0.000308482
-0.00267553
0.000289332
-0.0027338
0.000269403
-0.0027876
0.000248766
-0.00283679
0.000227485
-0.00288122
0.000205619
-0.00292079
0.00018323
-0.00295539
0.000160378
-0.00298494
0.000137117
-0.00300934
0.000113502
-0.00302855
8.95875e-05
-0.00304251
6.54289e-05
-0.00305118
4.10792e-05
-0.00305454
1.65924e-05
-0.00305257
-7.97626e-06
-0.00304527
-3.25705e-05
-0.00303266
-5.71339e-05
-0.00301476
-8.16082e-05
-0.0029916
-0.000105933
-0.00296324
-0.000130044
-0.00292975
-0.00015388
-0.00289119
-0.000177375
-0.00284766
-0.000200461
-0.00279928
-0.000223068
-0.00274615
-0.000245122
-0.00268841
-0.000266549
-0.00262623
-0.000287275
-0.00255975
-0.000307218
-0.00248918
-0.000326298
-0.00241472
-0.00034443
-0.00233657
-0.000361531
-0.00225499
-0.000377512
-0.00217022
-0.000392286
-0.00208255
-0.000405762
-0.00199227
-0.000417848
-0.00189968
-0.000428454
-0.00180512
-0.000437488
-0.00170894
-0.000444859
-0.00161151
-0.000450477
-0.00151322
-0.000454253
-0.00141447
-0.000456101
-0.00131568
-0.000455937
-0.00121729
-0.000453682
-0.00111975
-0.000449262
-0.00102353
-0.00044261
-0.000929091
-0.000433667
-0.000836916
-0.000422386
-0.000747485
-0.000408735
-0.000661279
-0.000392696
-0.000578773
-0.000374278
-0.00050043
-0.000353512
-0.000426696
-0.000330466
-0.000357993
-0.000305246
-0.000294706
-0.000278013
-0.000237179
-0.000248988
-0.0001857
-0.000218473
-0.000140493
-0.000186868
-0.000101705
-0.000154695
-6.93942e-05
-0.00012262
-4.35218e-05
-9.14908e-05
-2.39419e-05
-6.23742e-05
-1.03983e-05
-3.65841e-05
-2.53603e-06
-1.57234e-05
-1.91696e-06
-3.69979e-06
9.20403e-06
-1.4305e-05
2.98747e-05
-3.16768e-05
5.48654e-05
-5.59483e-05
8.60186e-05
-8.72342e-05
0.000121533
-0.000125546
0.000159519
-0.000170825
0.000198569
-0.000222925
0.000237604
-0.000281628
0.000275819
-0.000346653
0.000312596
-0.000417661
0.000347473
-0.000494269
0.00038011
-0.000576059
0.000410258
-0.000662583
0.000437744
-0.00075337
0.00046245
-0.00084794
0.000484312
-0.000945796
0.000503299
-0.00104645
0.000519417
-0.00114939
0.000532691
-0.00125415
0.000543169
-0.00136022
0.000550919
-0.00146714
0.000556014
-0.00157444
0.000558544
-0.00168167
0.000558602
-0.00178841
0.000556288
-0.00189421
0.000551705
-0.0019987
0.00054496
-0.00210148
0.000536156
-0.00220218
0.000525402
-0.00230047
0.000512804
-0.00239602
0.000498468
-0.00248851
0.000482499
-0.00257765
0.000464999
-0.00266317
0.00044607
-0.00274481
0.00042581
-0.00282234
0.000404313
-0.00289554
0.000381673
-0.00296418
0.00035798
-0.0030281
0.00033332
-0.00308711
0.000307774
-0.00314105
0.000281425
-0.00318978
0.000254351
-0.00323318
0.000226626
-0.00327112
0.000198323
-0.00330351
0.000169511
-0.00333028
0.000140264
-0.00335134
0.000110647
-0.00336663
8.07278e-05
-0.00337613
5.05759e-05
-0.0033798
2.02599e-05
-0.00337762
-1.01526e-05
-0.0033696
-4.05925e-05
-0.00335575
-7.09884e-05
-0.00333609
-0.000101267
-0.00331067
-0.000131354
-0.00327954
-0.000161173
-0.00324277
-0.000190648
-0.00320045
-0.000219695
-0.00315268
-0.000248232
-0.00309957
-0.000276173
-0.00304127
-0.000303429
-0.00297791
-0.000329909
-0.00290966
-0.000355519
-0.00283672
-0.000380163
-0.00275927
-0.000403741
-0.00267756
-0.00042615
-0.0025918
-0.000447287
-0.00250227
-0.000467044
-0.00240924
-0.000485314
-0.00231302
-0.000501986
-0.00221392
-0.000516949
-0.00211228
-0.000530091
-0.00200846
-0.000541301
-0.00190286
-0.000550468
-0.00179585
-0.000557481
-0.00168787
-0.000562232
-0.00157936
-0.000564616
-0.00147076
-0.000564533
-0.00136255
-0.000561888
-0.00125522
-0.000556593
-0.00114927
-0.000548568
-0.00104519
-0.000537746
-0.000943502
-0.000524072
-0.000844723
-0.000507513
-0.000749366
-0.000488054
-0.000657937
-0.000465707
-0.000570933
-0.000440517
-0.00048883
-0.000412569
-0.000412079
-0.000381997
-0.000341099
-0.000348993
-0.000276264
-0.000313822
-0.000217898
-0.000276838
-0.000166268
-0.000238499
-0.000121567
-0.000199396
-8.39165e-05
-0.00016027
-5.33535e-05
-0.000122054
-2.98304e-05
-8.58974e-05
-1.32165e-05
-5.3198e-05
-3.31629e-06
-2.56236e-05
-5.23324e-06
-4.31927e-06
1.35233e-05
-1.67777e-05
4.2333e-05
-3.71331e-05
7.52207e-05
-6.53347e-05
0.00011422
-0.000101326
0.000157524
-0.000145014
0.000203207
-0.000196233
0.000249788
-0.000254769
0.00029614
-0.000320341
0.000341391
-0.000392623
0.000384877
-0.000471234
0.000426084
-0.000555755
0.000464631
-0.000645733
0.000500237
-0.00074069
0.0005327
-0.000840123
0.000561883
-0.00094352
0.00058771
-0.00105036
0.000610137
-0.00116011
0.000629171
-0.00127225
0.000644832
-0.00138626
0.000657178
-0.00150162
0.000666278
-0.00161783
0.00067222
-0.00173439
0.000675102
-0.00185082
0.000675033
-0.00196666
0.000672129
-0.00208146
0.000666508
-0.00219479
0.000658293
-0.00230625
0.000647612
-0.00241544
0.000634591
-0.00252199
0.000619352
-0.00262554
0.000602023
-0.00272577
0.00058273
-0.00282237
0.000561593
-0.00291503
0.000538731
-0.00300348
0.000514261
-0.00308747
0.0004883
-0.00316675
0.000460957
-0.00324111
0.000432336
-0.00331033
0.000402543
-0.00337424
0.000371681
-0.00343266
0.000339844
-0.00348543
0.000307126
-0.00353242
0.000273618
-0.00357351
0.000239412
-0.00360859
0.000204591
-0.00363757
0.000169241
-0.00366037
0.000133446
-0.00367693
9.72898e-05
-0.00368721
6.0855e-05
-0.00369117
2.42244e-05
-0.00368881
-1.25188e-05
-0.00368011
-4.92898e-05
-0.00366509
-8.60024e-05
-0.00364379
-0.000122569
-0.00361625
-0.000158899
-0.00358252
-0.000194902
-0.00354268
-0.000230483
-0.00349683
-0.000265545
-0.00344508
-0.000299988
-0.00338754
-0.000333709
-0.00332437
-0.000366601
-0.00325572
-0.000398556
-0.00318178
-0.000429461
-0.00310274
-0.0004592
-0.00301883
-0.000487653
-0.00293028
-0.0005147
-0.00283735
-0.000540215
-0.00274033
-0.00056407
-0.0026395
-0.000586137
-0.00253521
-0.000606283
-0.00242778
-0.000624376
-0.00231759
-0.000640283
-0.00220502
-0.000653871
-0.00209048
-0.000665008
-0.0019744
-0.000673561
-0.00185723
-0.000679404
-0.00173943
-0.000682411
-0.0016215
-0.000682465
-0.00150393
-0.000679454
-0.00138725
-0.000673277
-0.00127198
-0.00066384
-0.00115866
-0.000651068
-0.00104783
-0.000634901
-0.00094004
-0.000615301
-0.000835838
-0.000592256
-0.00073576
-0.000565785
-0.000640331
-0.000535945
-0.00055006
-0.00050284
-0.000465429
-0.000466628
-0.000386889
-0.000427533
-0.00031485
-0.000385861
-0.000249679
-0.00034201
-0.000191685
-0.000296494
-0.00014112
-0.00024996
-9.81712e-05
-0.000203219
-6.29602e-05
-0.000157265
-3.55433e-05
-0.000113314
-1.59183e-05
-7.28232e-05
-4.04771e-06
-3.74941e-05
-9.28098e-06
-4.90069e-06
1.8424e-05
-1.91382e-05
5.65705e-05
-4.2383e-05
9.84653e-05
-7.44083e-05
0.000146245
-0.000115013
0.000198129
-0.000163975
0.000252169
-0.000221038
0.000306851
-0.000285907
0.000361009
-0.000358241
0.000413725
-0.000437655
0.000464291
-0.000523726
0.000512155
-0.000615996
0.0005569
-0.000713974
0.000598215
-0.000817147
0.000635873
-0.000924989
0.000669724
-0.00103695
0.000699668
-0.00115248
0.000725668
-0.00127102
0.000747712
-0.00139202
0.000765833
-0.00151493
0.000780088
-0.0016392
0.000790551
-0.00176431
0.000797323
-0.00188972
0.000800516
-0.00201494
0.000800251
-0.00213947
0.000796658
-0.00226284
0.000789878
-0.0023846
0.000780051
-0.00250431
0.000767321
-0.00262155
0.000751834
-0.00273594
0.000733739
-0.00284709
0.00071318
-0.00295466
0.000690301
-0.00305831
0.000665244
-0.00315773
0.00063815
-0.00325263
0.000609157
-0.00334272
0.000578396
-0.00342776
0.000545997
-0.00350752
0.000512087
-0.00358176
0.000476788
-0.0036503
0.000440217
-0.00371294
0.00040249
-0.00376953
0.000363718
-0.00381993
0.00032401
-0.00386399
0.000283472
-0.0039016
0.000242205
-0.00393267
0.000200313
-0.00395712
0.000157894
-0.00397488
0.00011505
-0.0039859
7.18771e-05
-0.00399015
2.84754e-05
-0.00398762
-1.50559e-05
-0.00397829
-5.86159e-05
-0.00396219
-0.000102103
-0.00393935
-0.000145413
-0.00390981
-0.000188439
-0.00387363
-0.000231074
-0.00383091
-0.000273206
-0.00378173
-0.000314721
-0.00372622
-0.000355499
-0.00366451
-0.000395422
-0.00359675
-0.000434362
-0.00352311
-0.000472193
-0.00344379
-0.000508781
-0.003359
-0.00054399
-0.00326897
-0.00057768
-0.00317397
-0.000609709
-0.00307425
-0.00063993
-0.00297013
-0.000668193
-0.00286192
-0.000694347
-0.00274996
-0.000718236
-0.00263463
-0.000739707
-0.00251631
-0.000758603
-0.00239542
-0.000774769
-0.00227237
-0.00078805
-0.00214764
-0.000798293
-0.0020217
-0.000805348
-0.00189503
-0.000809073
-0.00176817
-0.000809331
-0.00164163
-0.000805993
-0.00151597
-0.000798941
-0.00139173
-0.000788073
-0.0012695
-0.000773302
-0.00114984
-0.000754561
-0.00103333
-0.000731812
-0.000920539
-0.000705043
-0.000812045
-0.00067428
-0.000708398
-0.000639592
-0.000610139
-0.000601099
-0.000517783
-0.000558984
-0.000431817
-0.0005135
-0.000352689
-0.000464988
-0.00028081
-0.000413889
-0.000216541
-0.000360762
-0.000160194
-0.000306307
-0.000112029
-0.000251384
-7.22541e-05
-0.00019704
-4.10319e-05
-0.000144536
-1.84857e-05
-9.53694e-05
-4.73093e-06
-5.12489e-05
-1.40119e-05
-5.45219e-06
2.38761e-05
-2.139e-05
7.25082e-05
-4.74143e-05
0.000124489
-8.31475e-05
0.000181979
-0.000128242
0.000243224
-0.000182358
0.000306285
-0.000245148
0.00036964
-0.00031623
0.000432091
-0.0003952
0.000492695
-0.000481615
0.000550706
-0.000575004
0.000605544
-0.000674865
0.000656761
-0.00078067
0.00070402
-0.000891872
0.000747075
-0.00100791
0.000785761
-0.0011282
0.000819962
-0.00125217
0.00084964
-0.00137924
0.000874777
-0.00150881
0.000895409
-0.00164032
0.000911594
-0.00177319
0.000923421
-0.00190686
0.000930997
-0.00204079
0.000934445
-0.00217445
0.000933904
-0.00230731
0.000929523
-0.00243889
0.000921457
-0.0025687
0.000909865
-0.0026963
0.000894915
-0.00282124
0.000876772
-0.0029431
0.000855604
-0.0030615
0.000831578
-0.00317606
0.00080486
-0.00328643
0.000775614
-0.00339228
0.000744
-0.0034933
0.000710176
-0.0035892
0.000674296
-0.00367971
0.00063651
-0.00376459
0.000596963
-0.0038436
0.000555796
-0.00391653
0.000513147
-0.00398319
0.000469151
-0.0040434
0.000423936
-0.00409702
0.000377628
-0.0041439
0.000330353
-0.00418393
0.000282229
-0.00421699
0.000233376
-0.00424301
0.000183911
-0.00426191
0.000133952
-0.00427364
8.36116e-05
-0.00427817
3.3007e-05
-0.00427549
-1.77454e-05
-0.00426557
-6.85281e-05
-0.00424845
-0.000119222
-0.00422416
-0.000169707
-0.00419274
-0.000219859
-0.00415426
-0.000269551
-0.00410881
-0.000318655
-0.0040565
-0.000367038
-0.00399743
-0.000414561
-0.00393177
-0.000461087
-0.00385966
-0.000506468
-0.0037813
-0.000550557
-0.00369688
-0.0005932
-0.00360663
-0.000634239
-0.0035108
-0.000673513
-0.00340965
-0.000710856
-0.00330348
-0.000746099
-0.00319261
-0.00077907
-0.00307736
-0.000809591
-0.00295811
-0.000837487
-0.00283524
-0.000862578
-0.00270916
-0.000884686
-0.0025803
-0.000903629
-0.00244912
-0.00091923
-0.00231609
-0.000931315
-0.00218173
-0.000939712
-0.00204655
-0.000944257
-0.00191108
-0.000944795
-0.0017759
-0.000941179
-0.00164156
-0.000933277
-0.00150866
-0.000920973
-0.00137779
-0.000904169
-0.00124956
-0.000882795
-0.00112456
-0.000856807
-0.00100341
-0.000826196
-0.000886698
-0.000790992
-0.000775014
-0.000751276
-0.000668928
-0.000707184
-0.000568992
-0.00065892
-0.000475729
-0.000606763