/*--------------------------------*- C++ -*----------------------------------*\
  =========                 |
  \\      /  F ield         | OpenFOAM: The Open Source CFD Toolbox
   \\    /   O peration     | Website:  https://openfoam.org
    \\  /    A nd           | Version:  11
     \\/     M anipulation  |
\*---------------------------------------------------------------------------*/
FoamFile
{
    format      ascii;
    class       volVectorField;
    location    "2";
    object      U;
}
// * * * * * * * * * * * * * * * * * * * * * * * * * * * * * * * * * * * * * //

dimensions      [0 1 -1 0 0 0 0];

internalField   nonuniform List<vector> 
10100
(
(3.12386e-06 -4.03224e-06 0)
(1.45897e-05 -8.99611e-06 0)
(3.22754e-05 -1.08084e-05 0)
(4.91203e-05 -1.00487e-05 0)
(6.03234e-05 -7.80717e-06 0)
(6.33695e-05 -4.70484e-06 0)
(5.73375e-05 -1.26671e-06 0)
(4.18143e-05 2.27938e-06 0)
(1.6897e-05 5.75875e-06 0)
(-1.68577e-05 8.96703e-06 0)
(-5.90485e-05 1.20572e-05 0)
(-0.000108895 1.48326e-05 0)
(-0.000165864 1.74065e-05 0)
(-0.000229101 1.97078e-05 0)
(-0.000297991 2.16501e-05 0)
(-0.000371766 2.33197e-05 0)
(-0.000449652 2.47044e-05 0)
(-0.000531005 2.57176e-05 0)
(-0.00061507 2.65251e-05 0)
(-0.000701173 2.70583e-05 0)
(-0.000788778 2.73288e-05 0)
(-0.000877203 2.73674e-05 0)
(-0.000965924 2.72713e-05 0)
(-0.00105467 2.70852e-05 0)
(-0.00114294 2.68366e-05 0)
(-0.00123043 2.65305e-05 0)
(-0.00131689 2.60856e-05 0)
(-0.00140194 2.54658e-05 0)
(-0.00148522 2.47296e-05 0)
(-0.00156643 2.39186e-05 0)
(-0.00164529 2.30412e-05 0)
(-0.00172149 2.2129e-05 0)
(-0.0017948 2.11876e-05 0)
(-0.00186502 2.01871e-05 0)
(-0.00193197 1.91255e-05 0)
(-0.00199548 1.80237e-05 0)
(-0.00205541 1.69126e-05 0)
(-0.0021117 1.58081e-05 0)
(-0.00216423 1.46991e-05 0)
(-0.00221294 1.36121e-05 0)
(-0.00225781 1.25609e-05 0)
(-0.00229877 1.15067e-05 0)
(-0.00233581 1.04417e-05 0)
(-0.00236887 9.37289e-06 0)
(-0.00239787 8.2865e-06 0)
(-0.00242275 7.18132e-06 0)
(-0.00244344 6.05062e-06 0)
(-0.00245984 4.87981e-06 0)
(-0.00247188 3.67348e-06 0)
(-0.00247948 2.43115e-06 0)
(-0.00248258 1.13078e-06 0)
(-0.00248108 -2.38368e-07 0)
(-0.0024749 -1.65659e-06 0)
(-0.00246398 -3.09825e-06 0)
(-0.00244828 -4.55425e-06 0)
(-0.00242779 -6.02354e-06 0)
(-0.00240253 -7.50248e-06 0)
(-0.00237252 -8.98572e-06 0)
(-0.00233781 -1.0461e-05 0)
(-0.00229846 -1.19105e-05 0)
(-0.00225458 -1.33259e-05 0)
(-0.00220626 -1.4703e-05 0)
(-0.00215366 -1.60238e-05 0)
(-0.00209693 -1.72699e-05 0)
(-0.00203625 -1.84444e-05 0)
(-0.00197181 -1.95563e-05 0)
(-0.00190386 -2.05947e-05 0)
(-0.00183263 -2.15398e-05 0)
(-0.00175838 -2.23823e-05 0)
(-0.00168138 -2.31172e-05 0)
(-0.00160193 -2.37382e-05 0)
(-0.00152038 -2.42478e-05 0)
(-0.00143706 -2.46518e-05 0)
(-0.00135232 -2.4938e-05 0)
(-0.00126656 -2.50821e-05 0)
(-0.00118019 -2.50841e-05 0)
(-0.00109357 -2.49783e-05 0)
(-0.00100707 -2.48e-05 0)
(-0.000921054 -2.45543e-05 0)
(-0.00083589 -2.42216e-05 0)
(-0.000751993 -2.37776e-05 0)
(-0.000669799 -2.32066e-05 0)
(-0.000589769 -2.25046e-05 0)
(-0.000512373 -2.16713e-05 0)
(-0.000438089 -2.07065e-05 0)
(-0.000367398 -1.96092e-05 0)
(-0.000300801 -1.83665e-05 0)
(-0.000238833 -1.69657e-05 0)
(-0.000182031 -1.54118e-05 0)
(-0.00013093 -1.37023e-05 0)
(-8.60607e-05 -1.18214e-05 0)
(-4.79323e-05 -9.75641e-06 0)
(-1.70448e-05 -7.48364e-06 0)
(6.14979e-06 -5.00829e-06 0)
(2.13616e-05 -2.38892e-06 0)
(2.85546e-05 2.71559e-07 0)
(2.81302e-05 2.73746e-06 0)
(2.12659e-05 4.56158e-06 0)
(1.09705e-05 4.89874e-06 0)
(2.69116e-06 2.55732e-06 0)
(4.47337e-06 -1.35101e-05 0)
(2.06723e-05 -2.73378e-05 0)
(4.14522e-05 -2.95917e-05 0)
(5.62038e-05 -2.25642e-05 0)
(5.65747e-05 -9.33781e-06 0)
(3.79158e-05 6.7871e-06 0)
(-2.07002e-06 2.45545e-05 0)
(-6.41435e-05 4.23327e-05 0)
(-0.000148449 5.98048e-05 0)
(-0.000254133 7.63085e-05 0)
(-0.00038008 9.17372e-05 0)
(-0.000525043 0.000105935 0)
(-0.000687264 0.000118839 0)
(-0.000865395 0.000130393 0)
(-0.00105762 0.00014056 0)
(-0.00126223 0.000149386 0)
(-0.0014777 0.000156731 0)
(-0.00170217 0.000162825 0)
(-0.00193409 0.000167538 0)
(-0.00217202 0.000171091 0)
(-0.00241425 0.00017342 0)
(-0.00265949 0.000174766 0)
(-0.00290644 0.000175125 0)
(-0.00315381 0.000174715 0)
(-0.00340056 0.000173638 0)
(-0.00364564 0.000171928 0)
(-0.00388801 0.000169548 0)
(-0.00412673 0.000166487 0)
(-0.0043609 0.000162752 0)
(-0.00458966 0.000158388 0)
(-0.00481219 0.000153466 0)
(-0.00502774 0.000148065 0)
(-0.00523562 0.000142248 0)
(-0.00543518 0.000136023 0)
(-0.00562587 0.000129431 0)
(-0.00580719 0.000122556 0)
(-0.00597865 0.000115425 0)
(-0.00613986 0.000108078 0)
(-0.00629049 0.000100573 0)
(-0.00643021 9.29423e-05 0)
(-0.00655871 8.52192e-05 0)
(-0.00667576 7.73952e-05 0)
(-0.00678114 6.9446e-05 0)
(-0.00687463 6.13802e-05 0)
(-0.00695601 5.31819e-05 0)
(-0.00702508 4.4826e-05 0)
(-0.00708168 3.63226e-05 0)
(-0.00712563 2.7685e-05 0)
(-0.00715673 1.89135e-05 0)
(-0.00717486 1.00038e-05 0)
(-0.00717992 9.47351e-07 0)
(-0.0071718 -8.25806e-06 0)
(-0.0071504 -1.75862e-05 0)
(-0.00711568 -2.69837e-05 0)
(-0.00706763 -3.64027e-05 0)
(-0.0070063 -4.58166e-05 0)
(-0.00693179 -5.5195e-05 0)
(-0.00684421 -6.44908e-05 0)
(-0.00674372 -7.36598e-05 0)
(-0.00663052 -8.26715e-05 0)
(-0.00650489 -9.14928e-05 0)
(-0.00636715 -0.000100075 0)
(-0.00621767 -0.000108361 0)
(-0.00605686 -0.000116307 0)
(-0.00588515 -0.000123876 0)
(-0.0057031 -0.000131035 0)
(-0.0055113 -0.000137749 0)
(-0.00531034 -0.000143979 0)
(-0.0051009 -0.000149685 0)
(-0.00488372 -0.00015482 0)
(-0.00465961 -0.00015934 0)
(-0.00442938 -0.000163214 0)
(-0.00419391 -0.000166411 0)
(-0.00395418 -0.000168886 0)
(-0.00371117 -0.000170594 0)
(-0.00346588 -0.000171528 0)
(-0.00321938 -0.000171718 0)
(-0.00297278 -0.000171187 0)
(-0.00272724 -0.000169914 0)
(-0.00248388 -0.000167845 0)
(-0.00224391 -0.000164926 0)
(-0.00200864 -0.000161115 0)
(-0.00177941 -0.000156381 0)
(-0.00155759 -0.000150701 0)
(-0.00134455 -0.000144045 0)
(-0.00114169 -0.000136386 0)
(-0.000950491 -0.000127701 0)
(-0.000772419 -0.00011797 0)
(-0.000608936 -0.000107197 0)
(-0.000461453 -9.53933e-05 0)
(-0.000331323 -8.25768e-05 0)
(-0.000219771 -6.87991e-05 0)
(-0.000127836 -5.41737e-05 0)
(-5.62769e-05 -3.8913e-05 0)
(-5.38117e-06 -2.34302e-05 0)
(2.52748e-05 -8.42706e-06 0)
(3.71714e-05 4.97298e-06 0)
(3.32502e-05 1.49098e-05 0)
(1.95131e-05 1.84521e-05 0)
(5.5959e-06 1.11281e-05 0)
(1.99947e-06 -2.31321e-05 0)
(1.13736e-05 -4.27766e-05 0)
(1.783e-05 -4.11158e-05 0)
(1.15168e-05 -1.9897e-05 0)
(-1.683e-05 1.40173e-05 0)
(-7.28835e-05 5.51417e-05 0)
(-0.000159193 9.93258e-05 0)
(-0.000277189 0.000144475 0)
(-0.000426564 0.000188587 0)
(-0.000606674 0.000230872 0)
(-0.000815979 0.000270525 0)
(-0.00105268 0.000307277 0)
(-0.00131485 0.000340792 0)
(-0.00160003 0.000370985 0)
(-0.00190604 0.000397774 0)
(-0.00223064 0.000421133 0)
(-0.0025712 0.000441077 0)
(-0.00292559 0.000457706 0)
(-0.0032915 0.000471011 0)
(-0.00366663 0.000481308 0)
(-0.00404894 0.000488643 0)
(-0.00443623 0.00049317 0)
(-0.00482658 0.000495204 0)
(-0.00521811 0.000494908 0)
(-0.00560902 0.000492445 0)
(-0.00599754 0.000488018 0)
(-0.00638212 0.000481674 0)
(-0.00676121 0.000473451 0)
(-0.00713333 0.000463435 0)
(-0.00749714 0.000451709 0)
(-0.00785144 0.000438394 0)
(-0.00819498 0.000423635 0)
(-0.00852665 0.00040757 0)
(-0.00884545 0.000390322 0)
(-0.00915044 0.000371989 0)
(-0.00944069 0.000352702 0)
(-0.00971545 0.000332589 0)
(-0.00997396 0.000311709 0)
(-0.0102156 0.000290163 0)
(-0.0104397 0.000268067 0)
(-0.0106457 0.000245468 0)
(-0.0108331 0.000222406 0)
(-0.0110015 0.000198917 0)
(-0.0111504 0.000175007 0)
(-0.0112796 0.000150686 0)
(-0.0113886 0.000125969 0)
(-0.0114773 0.000100868 0)
(-0.0115453 7.54314e-05 0)
(-0.0115924 4.97088e-05 0)
(-0.0116186 2.37153e-05 0)
(-0.0116236 -2.53868e-06 0)
(-0.0116075 -2.90056e-05 0)
(-0.0115701 -5.5615e-05 0)
(-0.0115116 -8.22924e-05 0)
(-0.0114319 -0.000108949 0)
(-0.0113312 -0.000135491 0)
(-0.0112098 -0.000161833 0)
(-0.0110678 -0.000187894 0)
(-0.0109054 -0.000213567 0)
(-0.0107232 -0.000238748 0)
(-0.0105215 -0.000263357 0)
(-0.0103009 -0.000287306 0)
(-0.0100618 -0.00031047 0)
(-0.00980496 -0.000332723 0)
(-0.00953106 -0.00035397 0)
(-0.00924088 -0.000374124 0)
(-0.00893533 -0.000393078 0)
(-0.00861535 -0.000410721 0)
(-0.0082819 -0.000426951 0)
(-0.00793611 -0.000441661 0)
(-0.00757922 -0.000454736 0)
(-0.00721251 -0.000466066 0)
(-0.00683731 -0.000475544 0)
(-0.00645502 -0.000483064 0)
(-0.00606719 -0.000488534 0)
(-0.00567541 -0.000491896 0)
(-0.00528135 -0.000493114 0)
(-0.00488679 -0.000492142 0)
(-0.00449358 -0.000488897 0)
(-0.00410362 -0.000483267 0)
(-0.0037189 -0.000475134 0)
(-0.00334148 -0.000464393 0)
(-0.00297347 -0.000450964 0)
(-0.00261708 -0.000434787 0)
(-0.00227452 -0.000415798 0)
(-0.00194807 -0.000393938 0)
(-0.00163998 -0.000369163 0)
(-0.00135252 -0.000341466 0)
(-0.0010879 -0.000310898 0)
(-0.000848266 -0.000277554 0)
(-0.000635588 -0.000241594 0)
(-0.000451573 -0.000203289 0)
(-0.000297581 -0.000163097 0)
(-0.000174468 -0.000121762 0)
(-8.23479e-05 -8.04716e-05 0)
(-2.03302e-05 -4.10129e-05 0)
(1.3833e-05 -6.06358e-06 0)
(2.41561e-05 2.04917e-05 0)
(1.77565e-05 3.3054e-05 0)
(5.82365e-06 2.26746e-05 0)
(-1.0408e-06 -2.61927e-05 0)
(-2.43037e-06 -4.36392e-05 0)
(-1.6089e-05 -3.09263e-05 0)
(-5.03442e-05 1.18154e-05 0)
(-0.00011397 7.46437e-05 0)
(-0.000213052 0.00014881 0)
(-0.000350279 0.000228432 0)
(-0.000526757 0.000309358 0)
(-0.000742803 0.000389008 0)
(-0.000997138 0.000465468 0)
(-0.0012882 0.000537616 0)
(-0.00161392 0.000604588 0)
(-0.00197166 0.000666018 0)
(-0.00235885 0.000721518 0)
(-0.0027726 0.000770975 0)
(-0.00320996 0.000814308 0)
(-0.00366814 0.000851653 0)
(-0.00414412 0.000882886 0)
(-0.00463499 0.000908448 0)
(-0.00513803 0.000928266 0)
(-0.0056505 0.0009428 0)
(-0.00616967 0.000952236 0)
(-0.006693 0.000956872 0)
(-0.00721801 0.000956987 0)
(-0.00774227 0.000952889 0)
(-0.00826349 0.000944793 0)
(-0.00877954 0.000932889 0)
(-0.00928837 0.000917393 0)
(-0.00978805 0.000898489 0)
(-0.0102768 0.000876322 0)
(-0.0107529 0.000851118 0)
(-0.0112147 0.000823131 0)
(-0.0116608 0.000792542 0)
(-0.0120898 0.000759566 0)
(-0.0125003 0.000724442 0)
(-0.0128912 0.000687351 0)
(-0.0132613 0.00064848 0)
(-0.0136096 0.000608009 0)
(-0.0139352 0.000566087 0)
(-0.0142371 0.000522882 0)
(-0.0145147 0.000478521 0)
(-0.014767 0.000433091 0)
(-0.0149936 0.000386712 0)
(-0.0151939 0.000339463 0)
(-0.0153672 0.00029138 0)
(-0.0155132 0.000242546 0)
(-0.0156316 0.000193047 0)
(-0.015722 0.000142952 0)
(-0.0157841 9.2352e-05 0)
(-0.0158178 4.13384e-05 0)
(-0.015823 -1.00167e-05 0)
(-0.0157995 -6.1616e-05 0)
(-0.0157475 -0.000113327 0)
(-0.0156669 -0.000165013 0)
(-0.015558 -0.000216544 0)
(-0.0154209 -0.000267775 0)
(-0.015256 -0.000318542 0)
(-0.0150635 -0.000368672 0)
(-0.0148439 -0.000418009 0)
(-0.0145977 -0.000466397 0)
(-0.0143255 -0.00051366 0)
(-0.0140279 -0.000559605 0)
(-0.0137058 -0.000604049 0)
(-0.01336 -0.000646812 0)
(-0.0129914 -0.000687705 0)
(-0.0126011 -0.000726526 0)
(-0.0121902 -0.000763079 0)
(-0.01176 -0.000797168 0)
(-0.0113118 -0.000828594 0)
(-0.010847 -0.000857157 0)
(-0.0103674 -0.00088265 0)
(-0.00987448 -0.000904861 0)
(-0.0093701 -0.000923576 0)
(-0.00885615 -0.0009386 0)
(-0.00833463 -0.000949761 0)
(-0.00780765 -0.000956897 0)
(-0.00727743 -0.000959859 0)
(-0.00674636 -0.000958493 0)
(-0.00621693 -0.000952626 0)
(-0.00569168 -0.00094206 0)
(-0.00517323 -0.00092659 0)
(-0.00466434 -0.000906034 0)
(-0.00416785 -0.000880253 0)
(-0.00368664 -0.000849137 0)
(-0.00322364 -0.00081258 0)
(-0.00278178 -0.000770497 0)
(-0.00236403 -0.000722857 0)
(-0.0019733 -0.000669702 0)
(-0.00161241 -0.000611178 0)
(-0.00128399 -0.00054754 0)
(-0.000990486 -0.000479189 0)
(-0.000733977 -0.000406769 0)
(-0.000516051 -0.000331265 0)
(-0.00033764 -0.000254153 0)
(-0.000198757 -0.000177607 0)
(-9.82733e-05 -0.000104726 0)
(-3.35899e-05 -3.99028e-05 0)
(-2.98086e-07 1.08558e-05 0)
(8.79442e-06 3.91858e-05 0)
(4.30174e-06 3.1659e-05 0)
(-3.95852e-06 -2.13939e-05 0)
(-1.70459e-05 -2.62878e-05 0)
(-5.42427e-05 5.92469e-06 0)
(-0.000120411 7.79306e-05 0)
(-0.000223445 0.00017689 0)
(-0.000369059 0.000291497 0)
(-0.000559824 0.000413537 0)
(-0.000797035 0.000537564 0)
(-0.00108022 0.000659617 0)
(-0.00140853 0.000777139 0)
(-0.00177995 0.000888257 0)
(-0.00219204 0.000991835 0)
(-0.0026421 0.00108699 0)
(-0.00312689 0.00117325 0)
(-0.0036432 0.00125039 0)
(-0.0041877 0.00131818 0)
(-0.00475689 0.00137677 0)
(-0.00534737 0.00142618 0)
(-0.00595578 0.00146668 0)
(-0.00657875 0.00149846 0)
(-0.00721293 0.00152191 0)
(-0.00785522 0.00153737 0)
(-0.0085025 0.00154524 0)
(-0.00915174 0.00154591 0)
(-0.00980003 0.00153975 0)
(-0.0104446 0.00152709 0)
(-0.0110828 0.00150828 0)
(-0.011712 0.00148363 0)
(-0.0123301 0.00145346 0)
(-0.0129347 0.00141809 0)
(-0.0135237 0.00137786 0)
(-0.0140952 0.00133309 0)
(-0.0146473 0.00128409 0)
(-0.0151783 0.0012312 0)
(-0.0156866 0.00117472 0)
(-0.0161705 0.00111496 0)
(-0.0166289 0.00105218 0)
(-0.0170602 0.000986687 0)
(-0.0174634 0.00091872 0)
(-0.0178374 0.000848501 0)
(-0.018181 0.000776261 0)
(-0.0184935 0.000702177 0)
(-0.0187739 0.000626424 0)
(-0.0190216 0.000549188 0)
(-0.019236 0.000470604 0)
(-0.0194164 0.000390801 0)
(-0.0195624 0.000309951 0)
(-0.0196737 0.00022822 0)
(-0.0197499 0.000145739 0)
(-0.0197908 6.26539e-05 0)
(-0.0197963 -2.08544e-05 0)
(-0.0197663 -0.000104593 0)
(-0.0197009 -0.000188386 0)
(-0.0196002 -0.000272046 0)
(-0.0194644 -0.000355338 0)
(-0.0192937 -0.000438024 0)
(-0.0190886 -0.000519879 0)
(-0.0188494 -0.000600669 0)
(-0.0185767 -0.000680138 0)
(-0.0182712 -0.000758029 0)
(-0.0179335 -0.000834076 0)
(-0.0175646 -0.000907997 0)
(-0.0171654 -0.000979503 0)
(-0.016737 -0.00104831 0)
(-0.0162805 -0.00111414 0)
(-0.0157972 -0.00117668 0)
(-0.0152885 -0.00123561 0)
(-0.014756 -0.00129062 0)
(-0.0142013 -0.00134138 0)
(-0.0136263 -0.00138758 0)
(-0.0130327 -0.0014289 0)
(-0.0124229 -0.001465 0)
(-0.0117988 -0.00149556 0)
(-0.0111628 -0.00152025 0)
(-0.0105174 -0.00153876 0)
(-0.00986523 -0.0015508 0)
(-0.00920896 -0.00155611 0)
(-0.0085515 -0.00155439 0)
(-0.00789586 -0.00154535 0)
(-0.00724516 -0.00152868 0)
(-0.00660263 -0.00150411 0)
(-0.00597161 -0.00147137 0)
(-0.00535553 -0.00143023 0)
(-0.00475787 -0.00138052 0)
(-0.00418213 -0.00132211 0)
(-0.00363183 -0.00125491 0)
(-0.00311049 -0.00117893 0)
(-0.00262154 -0.0010943 0)
(-0.00216826 -0.0010013 0)
(-0.00175374 -0.000900416 0)
(-0.00138076 -0.000792402 0)
(-0.00105166 -0.000678364 0)
(-0.000768254 -0.000559923 0)
(-0.000531588 -0.000439386 0)
(-0.000341739 -0.000319983 0)
(-0.000197593 -0.000206187 0)
(-9.65507e-05 -0.000104049 0)
(-3.42565e-05 -2.16212e-05 0)
(-4.27124e-06 3.02694e-05 0)
(1.9065e-06 3.44875e-05 0)
(-6.44572e-06 -8.89224e-06 0)
(-3.1982e-05 1.05888e-05 0)
(-9.40535e-05 7.17521e-05 0)
(-0.00019487 0.000181092 0)
(-0.000339986 0.000323583 0)
(-0.000534736 0.000485381 0)
(-0.000781287 0.000656469 0)
(-0.0010802 0.000829968 0)
(-0.00143144 0.00100072 0)
(-0.0018333 0.00116534 0)
(-0.00228379 0.00132127 0)
(-0.00278031 0.00146683 0)
(-0.00331963 0.0016009 0)
(-0.00389833 0.00172274 0)
(-0.00451283 0.0018318 0)
(-0.00515924 0.00192807 0)
(-0.0058338 0.00201132 0)
(-0.00653262 0.00208185 0)
(-0.00725176 0.00213973 0)
(-0.0079875 0.00218547 0)
(-0.00873604 0.0022193 0)
(-0.00949369 0.00224173 0)
(-0.0102569 0.00225326 0)
(-0.0110222 0.0022544 0)
(-0.0117862 0.00224564 0)
(-0.0125457 0.00222745 0)
(-0.0132977 0.00220033 0)
(-0.0140391 0.00216473 0)
(-0.0147673 0.00212108 0)
(-0.0154797 0.00206988 0)
(-0.0161738 0.0020116 0)
(-0.0168472 0.00194668 0)
(-0.0174978 0.00187558 0)
(-0.0181235 0.00179876 0)
(-0.0187225 0.00171664 0)
(-0.0192929 0.00162963 0)
(-0.019833 0.00153811 0)
(-0.0203414 0.00144251 0)
(-0.0208166 0.00134317 0)
(-0.0212573 0.00124043 0)
(-0.0216623 0.00113458 0)
(-0.0220305 0.00102597 0)
(-0.0223609 0.000914855 0)
(-0.0226527 0.000801465 0)
(-0.0229051 0.000686073 0)
(-0.0231174 0.000568945 0)
(-0.0232892 0.000450304 0)
(-0.02342 0.00033038 0)
(-0.0235093 0.000209438 0)
(-0.0235571 8.77292e-05 0)
(-0.023563 -3.45065e-05 0)
(-0.0235271 -0.000156994 0)
(-0.0234494 -0.000279447 0)
(-0.0233301 -0.000401584 0)
(-0.0231694 -0.000523098 0)
(-0.0229676 -0.000643653 0)
(-0.0227252 -0.000762917 0)
(-0.0224426 -0.00088056 0)
(-0.0221206 -0.000996234 0)
(-0.02176 -0.00110957 0)
(-0.0213616 -0.00122019 0)
(-0.0209264 -0.00132771 0)
(-0.0204555 -0.00143172 0)
(-0.0199502 -0.0015318 0)
(-0.019412 -0.00162754 0)
(-0.0188422 -0.00171852 0)
(-0.0182426 -0.00180429 0)
(-0.017615 -0.0018844 0)
(-0.0169613 -0.00195836 0)
(-0.0162836 -0.00202574 0)
(-0.0155843 -0.00208607 0)
(-0.0148656 -0.00213888 0)
(-0.0141302 -0.00218368 0)
(-0.0133808 -0.00222001 0)
(-0.0126202 -0.00224742 0)
(-0.0118516 -0.00226547 0)
(-0.011078 -0.00227371 0)
(-0.0103029 -0.00227172 0)
(-0.00952973 -0.00225906 0)
(-0.0087621 -0.00223533 0)
(-0.00800373 -0.00220015 0)
(-0.00725849 -0.00215317 0)
(-0.00653033 -0.00209409 0)
(-0.00582323 -0.00202267 0)
(-0.00514119 -0.00193875 0)
(-0.00448821 -0.00184226 0)
(-0.00386825 -0.00173328 0)
(-0.0032852 -0.00161208 0)
(-0.00274274 -0.00147911 0)
(-0.0022443 -0.00133514 0)
(-0.00179295 -0.00118132 0)
(-0.00139132 -0.00101929 0)
(-0.00104142 -0.00085137 0)
(-0.000744513 -0.000680735 0)
(-0.000500858 -0.000511679 0)
(-0.000309575 -0.000349971 0)
(-0.000168377 -0.00020322 0)
(-7.3371e-05 -8.13133e-05 0)
(-1.93616e-05 2.856e-06 0)
(-8.69616e-07 2.96667e-05 0)
(-8.5913e-06 1.11123e-05 0)
(-4.62277e-05 6.74917e-05 0)
(-0.000134302 0.000168258 0)
(-0.000270855 0.00032349 0)
(-0.000459778 0.000517012 0)
(-0.000705195 0.000732547 0)
(-0.00100854 0.000958991 0)
(-0.00137036 0.00118759 0)
(-0.00178955 0.00141261 0)
(-0.00226464 0.00162956 0)
(-0.00279322 0.00183529 0)
(-0.00337219 0.00202761 0)
(-0.00399828 0.00220501 0)
(-0.00466773 0.00236639 0)
(-0.00537645 0.00251121 0)
(-0.00612043 0.00263916 0)
(-0.00689538 0.00275002 0)
(-0.007697 0.00284408 0)
(-0.00852106 0.00292147 0)
(-0.00936331 0.00298263 0)
(-0.0102196 0.00302801 0)
(-0.0110858 0.00305816 0)
(-0.0119579 0.00307364 0)
(-0.012832 0.00307508 0)
(-0.0137044 0.00306312 0)
(-0.0145716 0.0030384 0)
(-0.0154299 0.00300155 0)
(-0.0162762 0.00295319 0)
(-0.0171073 0.00289393 0)
(-0.0179202 0.00282441 0)
(-0.0187122 0.00274522 0)
(-0.0194807 0.00265698 0)
(-0.0202231 0.00256031 0)
(-0.0209371 0.00245578 0)
(-0.0216205 0.00234396 0)
(-0.0222714 0.0022254 0)
(-0.0228877 0.00210065 0)
(-0.0234677 0.00197018 0)
(-0.0240099 0.0018345 0)
(-0.0245127 0.00169408 0)
(-0.0249747 0.00154936 0)
(-0.0253947 0.00140072 0)
(-0.0257716 0.0012486 0)
(-0.0261044 0.00109336 0)
(-0.0263923 0.000935354 0)
(-0.0266344 0.000774943 0)
(-0.0268302 0.000612497 0)
(-0.0269792 0.000448348 0)
(-0.0270808 0.000282844 0)
(-0.027135 0.000116353 0)
(-0.0271414 -5.07594e-05 0)
(-0.0271001 -0.000218126 0)
(-0.027011 -0.000385365 0)
(-0.0268745 -0.000552077 0)
(-0.0266906 -0.000717846 0)
(-0.0264599 -0.000882241 0)
(-0.0261828 -0.00104482 0)
(-0.0258599 -0.00120512 0)
(-0.025492 -0.00136268 0)
(-0.0250801 -0.00151703 0)
(-0.0246251 -0.00166764 0)
(-0.0241281 -0.00181399 0)
(-0.0235904 -0.00195556 0)
(-0.0230136 -0.0020918 0)
(-0.0223991 -0.00222214 0)
(-0.0217487 -0.00234599 0)
(-0.0210644 -0.00246276 0)
(-0.0203481 -0.00257186 0)
(-0.0196021 -0.00267266 0)
(-0.0188287 -0.00276454 0)
(-0.0180306 -0.00284686 0)
(-0.0172105 -0.002919 0)
(-0.0163712 -0.00298031 0)
(-0.0155159 -0.00303017 0)
(-0.0146478 -0.00306794 0)
(-0.0137704 -0.00309302 0)
(-0.0128872 -0.00310481 0)
(-0.0120019 -0.00310272 0)
(-0.0111186 -0.00308617 0)
(-0.0102413 -0.00305464 0)
(-0.00937416 -0.00300763 0)
(-0.00852144 -0.00294472 0)
(-0.00768755 -0.00286552 0)
(-0.0068769 -0.00276974 0)
(-0.00609393 -0.00265721 0)
(-0.00534305 -0.0025279 0)
(-0.00462864 -0.002382 0)
(-0.00395493 -0.0022199 0)
(-0.00332596 -0.0020423 0)
(-0.00274546 -0.00185029 0)
(-0.0022168 -0.00164543 0)
(-0.0017429 -0.00142993 0)
(-0.00132604 -0.0012068 0)
(-0.000967708 -0.000980077 0)
(-0.000668517 -0.000755068 0)
(-0.000428022 -0.000538745 0)
(-0.000244503 -0.000340119 0)
(-0.00011477 -0.000170617 0)
(-3.51976e-05 -4.47061e-05 0)
(-3.73592e-06 1.66269e-05 0)
(-1.04213e-05 3.82314e-05 0)
(-6.00911e-05 0.000144547 0)
(-0.000173717 0.000295747 0)
(-0.000346598 0.000506201 0)
(-0.000579859 0.000758018 0)
(-0.00087657 0.0010342 0)
(-0.00123749 0.00132151 0)
(-0.00166215 0.00161084 0)
(-0.00214937 0.00189504 0)
(-0.00269705 0.00216891 0)
(-0.00330241 0.00242886 0)
(-0.00396228 0.00267202 0)
(-0.00467291 0.00289648 0)
(-0.00543021 0.00310095 0)
(-0.00622988 0.00328464 0)
(-0.00706755 0.00344698 0)
(-0.00793858 0.003588 0)
(-0.00883831 0.00370756 0)
(-0.00976216 0.00380612 0)
(-0.0107055 0.00388398 0)
(-0.0116638 0.00394175 0)
(-0.0126325 0.00398004 0)
(-0.0136074 0.00399956 0)
(-0.0145841 0.00400103 0)
(-0.0155585 0.00398521 0)
(-0.0165268 0.00395293 0)
(-0.017485 0.00390497 0)
(-0.0184296 0.0038421 0)
(-0.0193571 0.00376514 0)
(-0.0202643 0.00367487 0)
(-0.0211481 0.00357208 0)
(-0.0220054 0.00345754 0)
(-0.0228336 0.00333199 0)
(-0.0236302 0.00319621 0)
(-0.0243926 0.00305091 0)
(-0.0251185 0.00289677 0)
(-0.025806 0.00273449 0)
(-0.026453 0.00256475 0)
(-0.0270577 0.00238813 0)
(-0.0276184 0.00220522 0)
(-0.0281336 0.00201664 0)
(-0.028602 0.00182293 0)
(-0.0290223 0.00162459 0)
(-0.0293934 0.00142214 0)
(-0.0297144 0.00121609 0)
(-0.0299843 0.00100691 0)
(-0.0302025 0.000795072 0)
(-0.0303685 0.00058105 0)
(-0.0304817 0.000365316 0)
(-0.0305419 0.000148346 0)
(-0.0305488 -6.93697e-05 0)
(-0.0305025 -0.000287336 0)
(-0.0304029 -0.000505061 0)
(-0.0302502 -0.000722032 0)
(-0.0300448 -0.000937695 0)
(-0.0297871 -0.00115149 0)
(-0.0294777 -0.00136286 0)
(-0.0291172 -0.00157125 0)
(-0.0287065 -0.00177603 0)
(-0.0282467 -0.00197657 0)
(-0.0277388 -0.00217221 0)
(-0.0271841 -0.00236231 0)
(-0.0265841 -0.00254618 0)
(-0.0259404 -0.00272313 0)
(-0.0252547 -0.00289241 0)
(-0.0245289 -0.00305328 0)
(-0.0237653 -0.00320498 0)
(-0.0229661 -0.00334673 0)
(-0.0221337 -0.00347774 0)
(-0.0212708 -0.00359722 0)
(-0.0203802 -0.00370436 0)
(-0.0194651 -0.00379832 0)
(-0.0185285 -0.0038783 0)
(-0.0175739 -0.00394348 0)
(-0.0166049 -0.00399305 0)
(-0.0156253 -0.00402622 0)
(-0.0146391 -0.00404222 0)
(-0.0136503 -0.00404028 0)
(-0.0126633 -0.00401972 0)
(-0.0116825 -0.00397986 0)
(-0.0107126 -0.00392009 0)
(-0.00975806 -0.00383986 0)
(-0.00882379 -0.00373874 0)
(-0.00791457 -0.0036164 0)
(-0.00703519 -0.00347269 0)
(-0.00619045 -0.00330762 0)
(-0.00538507 -0.00312148 0)
(-0.00462362 -0.00291484 0)
(-0.00391044 -0.00268865 0)
(-0.00324958 -0.00244434 0)
(-0.0026447 -0.00218391 0)
(-0.00209902 -0.00191012 0)
(-0.00161513 -0.00162664 0)
(-0.0011949 -0.00133832 0)
(-0.000839367 -0.0010514 0)
(-0.000548686 -0.000773936 0)
(-0.000321862 -0.000516108 0)
(-0.000156573 -0.000290582 0)
(-5.09679e-05 -0.000112973 0)
(-6.49395e-06 -4.67391e-06 0)
(-1.19862e-05 7.20228e-05 0)
(-7.31751e-05 0.000241095 0)
(-0.000212127 0.000454347 0)
(-0.000420818 0.000728967 0)
(-0.000698363 0.00104715 0)
(-0.00104635 0.00139015 0)
(-0.00146457 0.00174442 0)
(-0.00195194 0.00209942 0)
(-0.00250667 0.0024474 0)
(-0.00312607 0.0027826 0)
(-0.00380712 0.00310054 0)
(-0.00454622 0.00339809 0)
(-0.00533931 0.00367296 0)
(-0.006182 0.00392349 0)
(-0.00706974 0.00414865 0)
(-0.00799772 0.00434784 0)
(-0.0089611 0.00452089 0)
(-0.00995489 0.00466773 0)
(-0.0109741 0.00478873 0)
(-0.0120138 0.0048843 0)
(-0.0130691 0.00495508 0)
(-0.0141353 0.00500178 0)
(-0.0152075 0.00502522 0)
(-0.0162813 0.00502627 0)
(-0.0173522 0.00500586 0)
(-0.0184159 0.00496494 0)
(-0.0194684 0.00490444 0)
(-0.0205056 0.00482536 0)
(-0.0215239 0.00472869 0)
(-0.0225197 0.00461536 0)
(-0.0234897 0.00448634 0)
(-0.0244306 0.00434262 0)
(-0.0253395 0.00418513 0)
(-0.0262134 0.00401472 0)
(-0.0270499 0.00383233 0)
(-0.0278464 0.00363885 0)
(-0.0286005 0.00343509 0)
(-0.0293101 0.00322185 0)
(-0.0299734 0.00299994 0)
(-0.0305885 0.00277009 0)
(-0.0311536 0.00253302 0)
(-0.0316673 0.00228945 0)
(-0.0321282 0.00204003 0)
(-0.0325352 0.00178541 0)
(-0.0328871 0.00152624 0)
(-0.0331831 0.00126314 0)
(-0.0334224 0.000996714 0)
(-0.0336043 0.000727547 0)
(-0.0337283 0.000456275 0)
(-0.0337942 0.000183519 0)
(-0.0338017 -9.01277e-05 0)
(-0.0337507 -0.000364054 0)
(-0.0336412 -0.000637609 0)
(-0.0334736 -0.000910124 0)
(-0.0332481 -0.00118093 0)
(-0.0329652 -0.00144936 0)
(-0.0326255 -0.0017147 0)
(-0.0322298 -0.00197622 0)
(-0.0317791 -0.00223317 0)
(-0.0312744 -0.00248476 0)
(-0.030717 -0.0027302 0)
(-0.0301083 -0.00296865 0)
(-0.0294498 -0.00319927 0)
(-0.0287434 -0.0034212 0)
(-0.0279909 -0.00363353 0)
(-0.0271945 -0.00383531 0)
(-0.0263565 -0.00402561 0)
(-0.0254794 -0.00420347 0)
(-0.0245659 -0.00436792 0)
(-0.0236188 -0.00451796 0)
(-0.0226414 -0.00465257 0)
(-0.0216369 -0.00477074 0)
(-0.0206087 -0.00487146 0)
(-0.0195606 -0.00495372 0)
(-0.0184965 -0.00501653 0)
(-0.0174205 -0.00505887 0)
(-0.0163369 -0.00507981 0)
(-0.0152502 -0.00507843 0)
(-0.014165 -0.00505388 0)
(-0.0130861 -0.00500536 0)
(-0.0120184 -0.00493211 0)
(-0.0109669 -0.00483349 0)
(-0.00993684 -0.00470901 0)
(-0.00893324 -0.00455832 0)
(-0.00796128 -0.00438128 0)
(-0.00702609 -0.00417797 0)
(-0.00613271 -0.00394879 0)
(-0.00528602 -0.00369449 0)
(-0.00449069 -0.0034163 0)
(-0.00375105 -0.00311596 0)
(-0.00307107 -0.00279592 0)
(-0.00245432 -0.00245945 0)
(-0.00190378 -0.00211088 0)
(-0.00142172 -0.00175576 0)
(-0.00100975 -0.00140118 0)
(-0.000668712 -0.00105609 0)
(-0.000398444 -0.000731632 0)
(-0.000197582 -0.000441408 0)
(-6.61565e-05 -0.000201847 0)
(-9.02736e-06 -3.39788e-05 0)
(-1.34203e-05 0.000112226 0)
(-8.56394e-05 0.000356588 0)
(-0.000249034 0.000643166 0)
(-0.000492873 0.000991581 0)
(-0.000813977 0.0013837 0)
(-0.00121263 0.00180037 0)
(-0.00168761 0.00222712 0)
(-0.00223708 0.00265278 0)
(-0.00285838 0.00306906 0)
(-0.00354857 0.00346941 0)
(-0.00430404 0.00384897 0)
(-0.00512075 0.00420415 0)
(-0.00599443 0.00453227 0)
(-0.00692035 0.00483145 0)
(-0.00789354 0.00510036 0)
(-0.00890896 0.00533841 0)
(-0.00996146 0.00554509 0)
(-0.0110457 0.00572061 0)
(-0.0121565 0.00586507 0)
(-0.0132886 0.00597907 0)
(-0.0144367 0.00606326 0)
(-0.0155958 0.00611847 0)
(-0.0167608 0.00614561 0)
(-0.0179269 0.00614572 0)
(-0.0190894 0.00611985 0)
(-0.0202437 0.00606913 0)
(-0.0213855 0.0059947 0)
(-0.0225104 0.0058977 0)
(-0.0236146 0.0057793 0)
(-0.0246942 0.00564068 0)
(-0.0257455 0.00548297 0)
(-0.0267652 0.00530731 0)
(-0.0277501 0.00511484 0)
(-0.0286971 0.00490665 0)
(-0.0296034 0.00468381 0)
(-0.0304662 0.00444737 0)
(-0.0312831 0.00419835 0)
(-0.0320518 0.00393771 0)
(-0.0327702 0.00366641 0)
(-0.0334363 0.00338538 0)
(-0.0340484 0.00309549 0)
(-0.0346047 0.00279757 0)
(-0.0351038 0.00249249 0)
(-0.0355445 0.00218105 0)
(-0.0359256 0.00186402 0)
(-0.0362461 0.00154216 0)
(-0.0365052 0.00121624 0)
(-0.0367021 0.000887031 0)
(-0.0368364 0.000555271 0)
(-0.0369077 0.00022171 0)
(-0.0369157 -0.000112891 0)
(-0.0368603 -0.000447764 0)
(-0.0367417 -0.000782128 0)
(-0.0365601 -0.00111518 0)
(-0.0363157 -0.00144609 0)
(-0.0360091 -0.00177404 0)
(-0.0356411 -0.00209818 0)
(-0.0352125 -0.0024176 0)
(-0.0347241 -0.0027314 0)
(-0.0341773 -0.00303862 0)
(-0.0335734 -0.0033383 0)
(-0.0329139 -0.00362945 0)
(-0.0322005 -0.00391104 0)
(-0.0314351 -0.00418199 0)
(-0.0306198 -0.00444122 0)
(-0.0297568 -0.00468761 0)
(-0.0288487 -0.00492003 0)
(-0.0278983 -0.00513731 0)
(-0.0269082 -0.00533826 0)
(-0.0258818 -0.00552167 0)
(-0.0248223 -0.00568633 0)
(-0.0237333 -0.00583102 0)
(-0.0226185 -0.00595451 0)
(-0.0214819 -0.0060556 0)
(-0.0203277 -0.00613306 0)
(-0.0191603 -0.00618573 0)
(-0.0179842 -0.00621245 0)
(-0.0168044 -0.00621215 0)
(-0.0156256 -0.00618379 0)
(-0.0144531 -0.00612644 0)
(-0.013292 -0.00603921 0)
(-0.0121476 -0.00592139 0)
(-0.0110255 -0.00577241 0)
(-0.00993108 -0.0055919 0)
(-0.00886978 -0.00537975 0)
(-0.00784703 -0.00513611 0)
(-0.0068682 -0.00486149 0)
(-0.00593848 -0.00455683 0)
(-0.00506283 -0.00422361 0)
(-0.0042459 -0.00386389 0)
(-0.00349201 -0.00348054 0)
(-0.0028051 -0.00307734 0)
(-0.00218858 -0.00265916 0)
(-0.00164523 -0.00223221 0)
(-0.00117726 -0.0018043 0)
(-0.000786279 -0.0013851 0)
(-0.000473004 -0.00098648 0)
(-0.000237108 -0.000622751 0)
(-8.05167e-05 -0.000310845 0)
(-1.13116e-05 -7.08748e-05 0)
(-1.45965e-05 0.000158358 0)
(-9.74294e-05 0.000490267 0)
(-0.000284414 0.00086142 0)
(-0.00056231 0.00129302 0)
(-0.00092601 0.00176695 0)
(-0.00137434 0.00226394 0)
(-0.00190515 0.00276875 0)
(-0.00251562 0.00327012 0)
(-0.00320257 0.00375888 0)
(-0.00396236 0.0042282 0)
(-0.00479089 0.00467275 0)
(-0.00568374 0.00508851 0)
(-0.00663623 0.00547248 0)
(-0.00764334 0.00582258 0)
(-0.00869972 0.00613731 0)
(-0.00980008 0.00641581 0)
(-0.0109389 0.00665762 0)
(-0.0121106 0.00686281 0)
(-0.0133098 0.00703156 0)
(-0.0145307 0.00716448 0)
(-0.0157679 0.00726229 0)
(-0.0170161 0.00732593 0)
(-0.01827 0.0073564 0)
(-0.0195244 0.00735491 0)
(-0.0207744 0.00732269 0)
(-0.022015 0.00726098 0)
(-0.0232418 0.00717114 0)
(-0.0244502 0.00705453 0)
(-0.0256359 0.00691247 0)
(-0.026795 0.00674632 0)
(-0.0279237 0.00655749 0)
(-0.0290182 0.00634727 0)
(-0.030075 0.00611698 0)
(-0.0310911 0.00586793 0)
(-0.0320634 0.00560141 0)
(-0.0329891 0.0053186 0)
(-0.0338654 0.00502073 0)
(-0.0346899 0.00470898 0)
(-0.0354604 0.00438445 0)
(-0.0361748 0.00404822 0)
(-0.0368311 0.00370137 0)
(-0.0374277 0.00334493 0)
(-0.0379629 0.00297988 0)
(-0.0384355 0.00260719 0)
(-0.0388441 0.00222782 0)
(-0.0391878 0.00184268 0)
(-0.0394656 0.0014527 0)
(-0.0396768 0.00105879 0)
(-0.0398208 0.000661854 0)
(-0.0398972 0.000262806 0)
(-0.0399058 -0.000137451 0)
(-0.0398465 -0.000537995 0)
(-0.0397193 -0.00093788 0)
(-0.0395244 -0.00133614 0)
(-0.0392624 -0.00173181 0)
(-0.0389336 -0.00212391 0)
(-0.038539 -0.00251141 0)
(-0.0380792 -0.00289323 0)
(-0.0375554 -0.00326828 0)
(-0.036969 -0.00363546 0)
(-0.0363212 -0.00399362 0)
(-0.0356137 -0.00434158 0)
(-0.0348484 -0.0046781 0)
(-0.0340274 -0.00500192 0)
(-0.0331526 -0.00531175 0)
(-0.0322268 -0.00560628 0)