/*--------------------------------*- C++ -*----------------------------------*\
  =========                 |
  \\      /  F ield         | OpenFOAM: The Open Source CFD Toolbox
   \\    /   O peration     | Website:  https://openfoam.org
    \\  /    A nd           | Version:  11
     \\/     M anipulation  |
\*---------------------------------------------------------------------------*/
FoamFile
{
    format      ascii;
    class       volScalarField;
    location    "0.2";
    object      p;
}
// * * * * * * * * * * * * * * * * * * * * * * * * * * * * * * * * * * * * * //

dimensions      [0 2 -2 0 0 0 0];

internalField   nonuniform List<scalar> 
10100
(
-8.33667e-08
-0.347167
-0.841055
-1.28623
-1.62129
-1.88957
-2.1111
-2.29894
-2.46093
-2.60161
-2.72447
-2.8329
-2.9299
-3.01763
-3.09742
-3.17026
-3.237
-3.2984
-3.35512
-3.40776
-3.45687
-3.50303
-3.54678
-3.5886
-3.62883
-3.66769
-3.70523
-3.74144
-3.77633
-3.80993
-3.8424
-3.87397
-3.90488
-3.93539
-3.96566
-3.99572
-4.02547
-4.05477
-4.08346
-4.1114
-4.13851
-4.16474
-4.19005
-4.21432
-4.23741
-4.25925
-4.27984
-4.29929
-4.31787
-4.33596
-4.35396
-4.37216
-4.39067
-4.4095
-4.42862
-4.44804
-4.46776
-4.48778
-4.50804
-4.52841
-4.54875
-4.56895
-4.5889
-4.6085
-4.62764
-4.64618
-4.66391
-4.68055
-4.69584
-4.70966
-4.72196
-4.73277
-4.74216
-4.75027
-4.75729
-4.76341
-4.76873
-4.7733
-4.7771
-4.78009
-4.78221
-4.78343
-4.78367
-4.78284
-4.78084
-4.77767
-4.7734
-4.76814
-4.76208
-4.75549
-4.74871
-4.74204
-4.73567
-4.72977
-4.7245
-4.71994
-4.71602
-4.71255
-4.70936
-4.70635
-0.342959
-0.66135
-1.04746
-1.40143
-1.69653
-1.94322
-2.15126
-2.32941
-2.48431
-2.62022
-2.74011
-2.84657
-2.94201
-3.02839
-3.10711
-3.17914
-3.24522
-3.30604
-3.36222
-3.41434
-3.46299
-3.50872
-3.55206
-3.59348
-3.6333
-3.67173
-3.70885
-3.74467
-3.7792
-3.81251
-3.84476
-3.87615
-3.9069
-3.93722
-3.96726
-3.997
-4.02631
-4.05508
-4.08318
-4.1105
-4.13698
-4.16266
-4.18752
-4.21148
-4.23441
-4.25622
-4.27695
-4.29668
-4.31566
-4.33423
-4.35275
-4.37143
-4.39037
-4.40953
-4.4289
-4.44849
-4.46835
-4.48846
-4.50877
-4.52913
-4.54937
-4.56938
-4.58905
-4.60831
-4.62705
-4.64516
-4.66245
-4.67869
-4.69365
-4.70725
-4.71949
-4.73038
-4.73997
-4.74836
-4.75573
-4.7622
-4.76783
-4.77262
-4.77653
-4.77952
-4.78157
-4.78267
-4.7828
-4.78186
-4.77979
-4.77659
-4.77237
-4.76722
-4.7613
-4.75486
-4.74823
-4.74167
-4.73536
-4.72942
-4.72398
-4.71915
-4.7149
-4.71112
-4.70772
-4.70447
-0.836289
-1.04677
-1.30252
-1.56484
-1.8069
-2.0223
-2.21075
-2.37535
-2.52022
-2.64887
-2.76375
-2.86672
-2.95954
-3.0438
-3.12078
-3.19143
-3.2564
-3.31626
-3.37158
-3.42291
-3.47082
-3.51588
-3.5586
-3.5994
-3.63865
-3.6765
-3.71302
-3.74824
-3.7822
-3.81495
-3.84666
-3.87757
-3.90789
-3.93782
-3.96747
-3.9968
-4.02568
-4.05397
-4.08157
-4.10841
-4.13448
-4.15986
-4.18456
-4.2085
-4.23155
-4.25362
-4.27471
-4.2949
-4.31442
-4.33358
-4.35268
-4.3719
-4.39128
-4.41077
-4.43035
-4.45005
-4.46994
-4.49003
-4.51023
-4.5304
-4.55032
-4.56987
-4.58896
-4.60757
-4.62561
-4.64299
-4.65956
-4.67511
-4.6895
-4.70269
-4.71475
-4.72568
-4.73552
-4.74434
-4.75226
-4.75937
-4.76563
-4.77098
-4.77535
-4.77867
-4.78092
-4.78209
-4.78219
-4.78113
-4.77888
-4.7755
-4.77113
-4.7659
-4.75998
-4.75361
-4.7471
-4.74073
-4.73464
-4.72889
-4.7236
-4.71885
-4.71462
-4.71081
-4.70737
-4.70394
-1.27999
-1.39987
-1.56539
-1.75371
-1.94308
-2.1227
-2.2873
-2.43549
-2.56838
-2.68798
-2.79615
-2.89425
-2.98346
-3.06491
-3.13958
-3.20827
-3.27161
-3.33009
-3.38421
-3.43449
-3.48144
-3.52561
-3.56751
-3.60754
-3.64597
-3.683
-3.71869
-3.75308
-3.7862
-3.81817
-3.84917
-3.87944
-3.90917
-3.93855
-3.96766
-3.99644
-4.02474
-4.05244
-4.07947
-4.10581
-4.1315
-4.15665
-4.1813
-4.20535
-4.22867
-4.25115
-4.27278
-4.29362
-4.31385
-4.33371
-4.35346
-4.37323
-4.39302
-4.41277
-4.43246
-4.45217
-4.47199
-4.49194
-4.51192
-4.53172
-4.55113
-4.56999
-4.58829
-4.60603
-4.62315
-4.63956
-4.65516
-4.66982
-4.6835
-4.69623
-4.7081
-4.71915
-4.72936
-4.73878
-4.74749
-4.75546
-4.76258
-4.7687
-4.7737
-4.7775
-4.78003
-4.78131
-4.78134
-4.7801
-4.7776
-4.77395
-4.76936
-4.76402
-4.75812
-4.75189
-4.74565
-4.73965
-4.734
-4.72873
-4.72388
-4.7195
-4.71556
-4.71192
-4.70855
-4.70504
-1.61427
-1.69319
-1.80665
-1.94394
-2.0904
-2.2365
-2.37637
-2.5068
-2.62669
-2.73639
-2.83689
-2.92912
-3.01385
-3.09179
-3.1636
-3.22987
-3.29114
-3.34787
-3.40049
-3.44946
-3.49527
-3.53841
-3.57932
-3.61837
-3.65584
-3.69185
-3.7265
-3.75986
-3.792
-3.82305
-3.85321
-3.8827
-3.91171
-3.94039
-3.96881
-3.99687
-4.02444
-4.05143
-4.07782
-4.10362
-4.12892
-4.15385
-4.17845
-4.20263
-4.22623
-4.24914
-4.27133
-4.29283
-4.31374
-4.33425
-4.35457
-4.37478
-4.39485
-4.41469
-4.43435
-4.45395
-4.47361
-4.49332
-4.51296
-4.53229
-4.55108
-4.56922
-4.58671
-4.60359
-4.61981
-4.63528
-4.64993
-4.66375
-4.67679
-4.68914
-4.70091
-4.71211
-4.72273
-4.73278
-4.74227
-4.7511
-4.75905
-4.76591
-4.77153
-4.77578
-4.77858
-4.77992
-4.77984
-4.77839
-4.77561
-4.77169
-4.76688
-4.76147
-4.75568
-4.74975
-4.74395
-4.73852
-4.73354
-4.72898
-4.72481
-4.72103
-4.71754
-4.71421
-4.71097
-4.70742
-1.88567
-1.94024
-2.02127
-2.12384
-2.23816
-2.35648
-2.47369
-2.58654
-2.69312
-2.79263
-2.88508
-2.97089
-3.0505
-3.12432
-3.19275
-3.25621
-3.31507
-3.36974
-3.42063
-3.46811
-3.51259
-3.55453
-3.59432
-3.63225
-3.66856
-3.70341
-3.73689
-3.76911
-3.80016
-3.83017
-3.85937
-3.88797
-3.91612
-3.94395
-3.97151
-3.99871
-4.02543
-4.05164
-4.07734
-4.1026
-4.12751
-4.1522
-4.1767
-4.20092
-4.2247
-4.24792
-4.27052
-4.29248
-4.31387
-4.33483
-4.35551
-4.37594
-4.39606
-4.41581
-4.43528
-4.45464
-4.47402
-4.4934
-4.5126
-4.5314
-4.54959
-4.5671
-4.58397
-4.60022
-4.61579
-4.63057
-4.64456
-4.65782
-4.67046
-4.68261
-4.69435
-4.7057
-4.71662
-4.72713
-4.73717
-4.7466
-4.75512
-4.76247
-4.76848
-4.77303
-4.77598
-4.7773
-4.77707
-4.77539
-4.77237
-4.76824
-4.76332
-4.75796
-4.75242
-4.74695
-4.74178
-4.73713
-4.73301
-4.72934
-4.72602
-4.72301
-4.72013
-4.7172
-4.71417
-4.71066
-2.11361
-2.15264
-2.21224
-2.29029
-2.38056
-2.47698
-2.57508
-2.67195
-2.76568
-2.85502
-2.93936
-3.01854
-3.09269
-3.162
-3.22666
-3.28694
-3.34315
-3.39557
-3.44451
-3.49031
-3.53332
-3.5739
-3.61238
-3.64903
-3.68405
-3.7176
-3.74981
-3.7808
-3.81067
-3.83958
-3.86773
-3.89531
-3.92248
-3.94933
-3.97591
-4.00214
-4.02796
-4.05337
-4.07843
-4.10317
-4.12768
-4.15208
-4.1764
-4.20053
-4.2243
-4.24758
-4.27031
-4.29244
-4.31404
-4.33518
-4.35594
-4.37632
-4.39626
-4.41574
-4.43487
-4.45387
-4.47287
-4.49181
-4.51052
-4.52879
-4.54649
-4.56359
-4.58012
-4.59608
-4.61137
-4.62587
-4.63961
-4.65268
-4.66525
-4.6774
-4.68918
-4.70062
-4.71168
-4.72235
-4.73258
-4.74217
-4.75081
-4.75823
-4.76428
-4.76882
-4.7717
-4.77288
-4.77245
-4.77059
-4.76743
-4.76324
-4.75838
-4.75326
-4.74818
-4.74337
-4.73904
-4.73533
-4.73224
-4.7296
-4.72726
-4.72509
-4.72292
-4.72049
-4.71774
-4.71435
-2.30837
-2.33778
-2.38313
-2.44354
-2.51543
-2.59452
-2.67695
-2.76007
-2.8421
-2.9217
-2.99804
-3.07059
-3.13915
-3.20373
-3.26441
-3.32133
-3.37468
-3.42465
-3.47149
-3.51545
-3.55681
-3.59586
-3.63287
-3.66805
-3.70164
-3.73379
-3.76464
-3.79432
-3.82296
-3.85069
-3.87771
-3.90419
-3.93027
-3.95602
-3.98153
-4.00677
-4.0317
-4.05637
-4.08082
-4.10507
-4.12918
-4.15325
-4.17728
-4.20115
-4.22469
-4.24777
-4.27035
-4.2924
-4.31394
-4.335
-4.35561
-4.37573
-4.39532
-4.41442
-4.43315
-4.45173
-4.47028
-4.48875
-4.50696
-4.52478
-4.54216
-4.5591
-4.57559
-4.59159
-4.60695
-4.62156
-4.63544
-4.6487
-4.66147
-4.67379
-4.68568
-4.69713
-4.70814
-4.71867
-4.72866
-4.73792
-4.74616
-4.75315
-4.75878
-4.76293
-4.76547
-4.76636
-4.76572
-4.76374
-4.76061
-4.75659
-4.75207
-4.74747
-4.7431
-4.73917
-4.73585
-4.73324
-4.73128
-4.72972
-4.72839
-4.72711
-4.72565
-4.72376
-4.72137
-4.71816
-2.47708
-2.50038
-2.53626
-2.58408
-2.64191
-2.70714
-2.7767
-2.84818
-2.9199
-2.99058
-3.05926
-3.1253
-3.18832
-3.24814
-3.30475
-3.35818
-3.40854
-3.45594
-3.50054
-3.5425
-3.58204
-3.61938
-3.65474
-3.68832
-3.72035
-3.75101
-3.78042
-3.80874
-3.83608
-3.86258
-3.8884
-3.9137
-3.93859
-3.96318
-3.98758
-4.01183
-4.03593
-4.05991
-4.08379
-4.10758
-4.13128
-4.15496
-4.17858
-4.20203
-4.22513
-4.24781
-4.27006
-4.29185
-4.31316
-4.33399
-4.35431
-4.37409
-4.39332
-4.41205
-4.43042
-4.44861
-4.46676
-4.4848
-4.50262
-4.52013
-4.53736
-4.55434
-4.57101
-4.58727
-4.60294
-4.61789
-4.63215
-4.64583
-4.65897
-4.67156
-4.68357
-4.69497
-4.70576
-4.71588
-4.72526
-4.73374
-4.74111
-4.74722
-4.75199
-4.75537
-4.7573
-4.75777
-4.75693
-4.75499
-4.75212
-4.74858
-4.74473
-4.74097
-4.7376
-4.73478
-4.73262
-4.73119
-4.73038
-4.72991
-4.72954
-4.72908
-4.72828
-4.72689
-4.72484
-4.72185
-2.62546
-2.64426
-2.67335
-2.71215
-2.75942
-2.81358
-2.87251
-2.93418
-2.99693
-3.05958
-3.12117
-3.18099
-3.23861
-3.29376
-3.34631
-3.39623
-3.44354
-3.48828
-3.53051
-3.57035
-3.60792
-3.64339
-3.67695
-3.70881
-3.73919
-3.76827
-3.79619
-3.82309
-3.84909
-3.8743
-3.89886
-3.9229
-3.94654
-3.96993
-3.99324
-4.01653
-4.03983
-4.06315
-4.08649
-4.10981
-4.13308
-4.15628
-4.17939
-4.20228
-4.22482
-4.247
-4.26884
-4.2903
-4.31133
-4.33188
-4.35192
-4.37142
-4.39038
-4.40887
-4.42703
-4.445
-4.46289
-4.48068
-4.49828
-4.51568
-4.53294
-4.55008
-4.56702
-4.58358
-4.59958
-4.61491
-4.62959
-4.6437
-4.65722
-4.67005
-4.68212
-4.6934
-4.70385
-4.71337
-4.7219
-4.72931
-4.73549
-4.74038
-4.74399
-4.74635
-4.74749
-4.74749
-4.74654
-4.74482
-4.74249
-4.73977
-4.73695
-4.73438
-4.73227
-4.73075
-4.72986
-4.72964
-4.72993
-4.73045
-4.73093
-4.73115
-4.73086
-4.72984
-4.72805
-4.72525
-2.75753
-2.77255
-2.79627
-2.82824
-2.86754
-2.91303
-2.96323
-3.01656
-3.07157
-3.12709
-3.18221
-3.23625
-3.28874
-3.33938
-3.38798
-3.43444
-3.47869
-3.52071
-3.56051
-3.59811
-3.63359
-3.66707
-3.69873
-3.72879
-3.75743
-3.78486
-3.81123
-3.83668
-3.86131
-3.8852
-3.90845
-3.93119
-3.95356
-3.97578
-3.99803
-4.0204
-4.04292
-4.06559
-4.08838
-4.1112
-4.13395
-4.15658
-4.17907
-4.20131
-4.22324
-4.2449
-4.26632
-4.28744
-4.30819
-4.3285
-4.34833
-4.36768
-4.38656
-4.40504
-4.42323
-4.44124
-4.45913
-4.47692
-4.49455
-4.51205
-4.52948
-4.54684
-4.564
-4.58076
-4.59697
-4.61253
-4.62746
-4.64181
-4.65552
-4.66843
-4.68043
-4.69147
-4.70149
-4.71033
-4.71791
-4.72417
-4.72908
-4.73267
-4.73503
-4.73632
-4.73667
-4.73626
-4.73531
-4.734
-4.73248
-4.73087
-4.72938
-4.72825
-4.72762
-4.72752
-4.72796
-4.7289
-4.73019
-4.73154
-4.73267
-4.73337
-4.73339
-4.73256
-4.73091
-4.72824
-2.87563
-2.88749
-2.90679
-2.93333
-2.9664
-3.00509
-3.04821
-3.09452
-3.14284
-3.19208
-3.24141
-3.29018
-3.33791
-3.3843
-3.42912
-3.47221
-3.51345
-3.55277
-3.59008
-3.62537
-3.65867
-3.69008
-3.71978
-3.74793
-3.77477
-3.8005
-3.82529
-3.84927
-3.87252
-3.89507
-3.91702
-3.9385
-3.95968
-3.98079
-4.00204
-4.02352
-4.04527
-4.06728
-4.08947
-4.1117
-4.13381
-4.15576
-4.17752
-4.19906
-4.22037
-4.2415
-4.26249
-4.28329
-4.30376
-4.32385
-4.34357
-4.36292
-4.38193
-4.40064
-4.41912
-4.43744
-4.45563
-4.4737
-4.49163
-4.50943
-4.52714
-4.54472
-4.562
-4.57881
-4.595
-4.61054
-4.62544
-4.63972
-4.65328
-4.66597
-4.67767
-4.68832
-4.69779
-4.70592
-4.71262
-4.71787
-4.7217
-4.72419
-4.72551
-4.72593
-4.72568
-4.72502
-4.72421
-4.72347
-4.72291
-4.72258
-4.72258
-4.72303
-4.72398
-4.72535
-4.72707
-4.72908
-4.7312
-4.73316
-4.73469
-4.73561
-4.7357
-4.73487
-4.73323
-4.73065
-2.98127
-2.9907
-3.00648
-3.02862
-3.05669
-3.08994
-3.12732
-3.1678
-3.21039
-3.25418
-3.2984
-3.34243
-3.38585
-3.42832
-3.46959
-3.50946
-3.54777
-3.58439
-3.6192
-3.65214
-3.68321
-3.7125
-3.74014
-3.76633
-3.79132
-3.81533
-3.83854
-3.86107
-3.88296
-3.90423
-3.92498
-3.94533
-3.96544
-3.98554
-4.00586
-4.02651
-4.04749
-4.06879
-4.09028
-4.11178
-4.13312
-4.15425
-4.17521
-4.196
-4.21665
-4.23724
-4.25777
-4.27819
-4.29836
-4.31824
-4.33788
-4.35734
-4.37663
-4.39575
-4.41472
-4.43357
-4.45228
-4.47086
-4.48928
-4.50752
-4.52557
-4.54334
-4.56066
-4.57735
-4.59335
-4.60862
-4.62317
-4.63702
-4.65007
-4.66219
-4.67328
-4.6833
-4.69211
-4.69955
-4.70554
-4.71009
-4.71325
-4.7151
-4.71585
-4.71582
-4.71533
-4.71469
-4.7142
-4.7141
-4.71452
-4.71547
-4.71694
-4.71896
-4.72144
-4.72421
-4.72712
-4.73003
-4.73277
-4.73508
-4.73674
-4.7376
-4.73753
-4.73651
-4.73477
-4.73228
-3.07609
-3.08369
-3.09678
-3.11543
-3.13946
-3.16829
-3.20096
-3.23661
-3.27438
-3.31349
-3.35326
-3.39313
-3.43269
-3.47158
-3.50954
-3.54634
-3.58181
-3.61577
-3.64808
-3.67865
-3.70746
-3.73457
-3.76012
-3.78432
-3.80746
-3.82977
-3.85144
-3.87258
-3.89322
-3.91336
-3.93307
-3.95246
-3.97165
-3.99087
-4.01035
-4.03019
-4.05039
-4.0709
-4.09158
-4.11221
-4.13264
-4.15285
-4.17293
-4.19293
-4.21289
-4.23287
-4.25287
-4.27283
-4.29262
-4.31225
-4.33182
-4.35142
-4.37103
-4.39061
-4.41014
-4.42957
-4.44887
-4.46803
-4.48698
-4.50566
-4.52402
-4.54192
-4.55919
-4.57568
-4.59135
-4.60619
-4.62018
-4.63331
-4.64552
-4.65675
-4.66696
-4.67613
-4.68417
-4.69096
-4.69646
-4.70071
-4.70373
-4.70555
-4.70634
-4.70644
-4.70618
-4.70588
-4.70587
-4.70645
-4.70778
-4.70985
-4.71262
-4.71602
-4.71985
-4.72384
-4.72773
-4.73134
-4.73448
-4.73691
-4.73845
-4.73902
-4.73858
-4.73725
-4.73536
-4.73299
-3.16197
-3.16811
-3.17913
-3.19508
-3.21586
-3.24105
-3.26986
-3.30149
-3.33521
-3.37034
-3.40628
-3.44251
-3.4786
-3.51422
-3.54908
-3.58296
-3.61567
-3.64703
-3.67687
-3.70509
-3.73164
-3.75657
-3.78003
-3.80228
-3.82361
-3.84429
-3.86451
-3.88439
-3.90394
-3.92313
-3.942
-3.96059
-3.97902
-3.99748
-4.01619
-4.03525
-4.05464
-4.0743
-4.09406
-4.11371
-4.13313
-4.15236
-4.17152
-4.19069
-4.20992
-4.22922
-4.24861
-4.26801
-4.28736
-4.30668
-4.32613
-4.3458
-4.36567
-4.38563
-4.40558
-4.42545
-4.4452
-4.46478
-4.4841
-4.50306
-4.52157
-4.53947
-4.55659
-4.57282
-4.58812
-4.60246
-4.61579
-4.62808
-4.63932
-4.64951
-4.65869
-4.66691
-4.67414
-4.68036
-4.68559
-4.68991
-4.69327
-4.69563
-4.69706
-4.69785
-4.69829
-4.69867
-4.69932
-4.70059
-4.70269
-4.70563
-4.70939
-4.71384
-4.71872
-4.72365
-4.72828
-4.73238
-4.73572
-4.7381
-4.73938
-4.73955
-4.73867
-4.73698
-4.73496
-4.73277
-3.24071
-3.24561
-3.25499
-3.2688
-3.28697
-3.30917
-3.33475
-3.363
-3.39331
-3.42504
-3.45765
-3.49063
-3.52356
-3.55613
-3.58806
-3.61915
-3.6492
-3.67803
-3.70547
-3.73139
-3.75572
-3.77853
-3.79999
-3.82036
-3.83999
-3.85916
-3.87809
-3.89688
-3.91552
-3.93395
-3.95214
-3.97009
-3.98788
-4.00568
-4.0237
-4.042
-4.06056
-4.0793
-4.09807
-4.11668
-4.13506
-4.15329
-4.17153
-4.18986
-4.20832
-4.22691
-4.24563
-4.26443
-4.28328
-4.30226
-4.32153
-4.34118
-4.36114
-4.38124
-4.40135
-4.42136
-4.44122
-4.46088
-4.48023
-4.49915
-4.51751
-4.53518
-4.552
-4.56788
-4.58278
-4.59663
-4.60934
-4.62086
-4.63123
-4.64049
-4.64874
-4.65609
-4.6626
-4.66837
-4.67351
-4.67812
-4.68212
-4.68537
-4.68787
-4.68977
-4.69128
-4.69261
-4.69407
-4.69604
-4.69876
-4.7023
-4.70667
-4.71178
-4.71733
-4.72288
-4.72801
-4.73241
-4.73584
-4.73812
-4.73914
-4.73895
-4.73768
-4.73572
-4.73363
-4.73171
-3.31373
-3.31758
-3.32559
-3.33764
-3.35364
-3.37333
-3.39615
-3.42152
-3.44886
-3.47761
-3.50722
-3.53722
-3.56721
-3.59689
-3.62604
-3.65446
-3.68196
-3.70836
-3.73351
-3.75723
-3.77946
-3.80027
-3.81985
-3.83849
-3.85658
-3.87442
-3.89223
-3.91011
-3.92802
-3.94584
-3.96348
-3.98092
-3.99816
-4.01537
-4.03273
-4.0503
-4.06802
-4.08583
-4.10359
-4.12114
-4.13848
-4.15572
-4.17304
-4.19054
-4.20822
-4.2261
-4.24415
-4.26236
-4.28074
-4.29938
-4.31843
-4.33796
-4.35782
-4.3778
-4.39773
-4.4175
-4.43707
-4.45639
-4.47536
-4.49381
-4.51164
-4.52873
-4.545
-4.56038
-4.57481
-4.58817
-4.60037
-4.61134
-4.62114
-4.62982
-4.63748
-4.64426
-4.6503
-4.65579
-4.66093
-4.66588
-4.67055
-4.67478
-4.67847
-4.68167
-4.68444
-4.6869
-4.68929
-4.69198
-4.69522
-4.69914
-4.70381
-4.7092
-4.71504
-4.7209
-4.72632
-4.73092
-4.73442
-4.73666
-4.73753
-4.73713
-4.73565
-4.73355
-4.73152
-4.72995
-3.38199
-3.38497
-3.39181
-3.4023
-3.4164
-3.4339
-3.4543
-3.47712
-3.50181
-3.52782
-3.55465
-3.58184
-3.60904
-3.63598
-3.66248
-3.68835
-3.71344
-3.73757
-3.76055
-3.78222
-3.8025
-3.82147
-3.83935
-3.85646
-3.87321
-3.88992
-3.90682
-3.92397
-3.9413
-3.95861
-3.97579
-3.99276
-4.0095
-4.02616
-4.04289
-4.05973
-4.0766
-4.09346
-4.1102
-4.1267
-4.14299
-4.15925
-4.17568
-4.19235
-4.20929
-4.22649
-4.24395
-4.26165
-4.27962
-4.29796
-4.31679
-4.3361
-4.35569
-4.37531
-4.39477
-4.41398
-4.43293
-4.45155
-4.46974
-4.48733
-4.50423
-4.5204
-4.53581
-4.55044
-4.56423
-4.57707
-4.58883
-4.5995
-4.6091
-4.61766
-4.62523
-4.63188
-4.63779
-4.6432
-4.64841
-4.6536
-4.65876
-4.66376
-4.6685
-4.67293
-4.67698
-4.68063
-4.68404
-4.6875
-4.69124
-4.69542
-4.70019
-4.7056
-4.71146
-4.71741
-4.72297
-4.72774
-4.73138
-4.7337
-4.73461
-4.73419
-4.73269
-4.73063
-4.72876
-4.72759
-3.44607
-3.44828
-3.45405
-3.46312
-3.47548
-3.491
-3.50923
-3.52972
-3.55195
-3.57541
-3.5996
-3.62413
-3.64869
-3.67305
-3.69704
-3.72053
-3.74338
-3.76539
-3.78637
-3.80614
-3.82465
-3.84198
-3.85838
-3.8742
-3.88986
-3.90568
-3.92185
-3.93842
-3.95524
-3.9721
-3.98883
-4.00532
-4.02155
-4.03763
-4.05371
-4.06978
-4.08578
-4.10166
-4.11735
-4.13278
-4.14803
-4.16331
-4.17884
-4.19472
-4.21095
-4.22754
-4.24448
-4.26176
-4.27941
-4.29749
-4.31607
-4.33507
-4.35426
-4.37334
-4.39216
-4.41063
-4.42876
-4.44647
-4.46364
-4.4801
-4.49579
-4.51076
-4.52504
-4.53867
-4.55162
-4.56381
-4.57514
-4.58564
-4.59534
-4.60418
-4.61209
-4.61906
-4.62521
-4.63079
-4.63611
-4.6414
-4.64677
-4.65219
-4.65763
-4.66301
-4.66816
-4.67295
-4.67742
-4.68173
-4.68605
-4.69054
-4.6954
-4.70076
-4.70654
-4.71247
-4.71812
-4.72305
-4.72691
-4.72944
-4.73055
-4.73029
-4.72895
-4.72705
-4.72542
-4.72463
-3.50627
-3.50775
-3.5125
-3.52023
-3.531
-3.54471
-3.56096
-3.5793
-3.59924
-3.62031
-3.64204
-3.66409
-3.68619
-3.70814
-3.72983
-3.75113
-3.77191
-3.79197
-3.81112
-3.82919
-3.84613
-3.86206
-3.87724
-3.89204
-3.90686
-3.92199
-3.93759
-3.95365
-3.96998
-3.98633
-4.00253
-4.01847
-4.0341
-4.04953
-4.06487
-4.08012
-4.09518
-4.11003
-4.12463
-4.13895
-4.15312
-4.16741
-4.18206
-4.19716
-4.21273
-4.22875
-4.24522
-4.26213
-4.27945
-4.29723
-4.31548
-4.33406
-4.3527
-4.37114
-4.38921
-4.40688
-4.42414
-4.4409
-4.45699
-4.47226
-4.48668
-4.50036
-4.51341
-4.52592
-4.53791
-4.54933
-4.56017
-4.57051
-4.58037
-4.58964
-4.59813
-4.6057
-4.61238
-4.61834
-4.62384
-4.62915
-4.63447
-4.63994
-4.64565
-4.65157
-4.65752
-4.6633
-4.66882
-4.6741
-4.67919
-4.68421
-4.68934
-4.69477
-4.70052
-4.70641
-4.7121
-4.71717
-4.72124
-4.72404
-4.72544
-4.72548
-4.72441
-4.72277
-4.72139
-4.72094
-3.56285
-3.56359
-3.56736
-3.57385
-3.58318
-3.59527
-3.60973
-3.62612
-3.64398
-3.66286
-3.68236
-3.70215
-3.72201
-3.74179
-3.76139
-3.78071
-3.79961
-3.8179
-3.8354
-3.85196
-3.86757
-3.88235
-3.89659
-3.91063
-3.92482
-3.93941
-3.95449
-3.97002
-3.98577
-4.00149
-4.01701
-4.03224
-4.04713
-4.06179
-4.07629
-4.09061
-4.10466
-4.11841
-4.13186
-4.14505
-4.15813
-4.17143
-4.18521
-4.19956
-4.21447
-4.22992
-4.24591
-4.26238
-4.27928
-4.29662
-4.31436
-4.33233
-4.35027
-4.36793
-4.38519
-4.40206
-4.41849
-4.43436
-4.44947
-4.46367
-4.47698
-4.48955
-4.50155
-4.51306
-4.52414
-4.53478
-4.54506
-4.55511
-4.56498
-4.57453
-4.58348
-4.59164
-4.59894
-4.60541
-4.61119
-4.61653
-4.62169
-4.62695
-4.63257
-4.63863
-4.64505
-4.65163
-4.65818
-4.66458
-4.67071
-4.67657
-4.68227
-4.68798
-4.6938
-4.69965
-4.70528
-4.71035
-4.71452
-4.71752
-4.71922
-4.71961
-4.71889
-4.71754
-4.7164
-4.71621
-3.61618
-3.6162
-3.61904
-3.62445
-3.63254
-3.64323
-3.65611
-3.67077
-3.68677
-3.70371
-3.72122
-3.73901
-3.75689
-3.77475
-3.79251
-3.81006
-3.82727
-3.84397
-3.86
-3.87526
-3.88975
-3.90364
-3.91715
-3.93061
-3.94429
-3.95838
-3.97291
-3.98778
-4.00279
-4.01768
-4.03233
-4.04667
-4.06068
-4.07442
-4.08797
-4.10127
-4.11422
-4.12681
-4.13908
-4.15113
-4.16315
-4.17551
-4.18846
-4.20208
-4.21634
-4.23119
-4.2466
-4.2625
-4.27882
-4.29551
-4.3125
-4.32965
-4.34669
-4.36343
-4.3798
-4.39581
-4.41142
-4.42647
-4.44075
-4.45412
-4.46663
-4.47847
-4.48979
-4.50065
-4.51109
-4.52111
-4.53083
-4.54043
-4.55
-4.5594
-4.56841
-4.57684
-4.58457
-4.59151
-4.59765
-4.60312
-4.60819
-4.61324
-4.61862
-4.6246
-4.63125
-4.63846
-4.64603
-4.65365
-4.66106
-4.66805
-4.67459
-4.68077
-4.68671
-4.69245
-4.69786
-4.7027
-4.70673
-4.70976
-4.71164
-4.71234
-4.71198
-4.71096
-4.71006
-4.71007
-3.66684
-3.66622
-3.66828
-3.6728
-3.67985
-3.68932
-3.70083
-3.71396
-3.72833
-3.74356
-3.75932
-3.77536
-3.79152
-3.80771
-3.82383
-3.83979
-3.85546
-3.87072
-3.88545
-3.89958
-3.91315
-3.92629
-3.93922
-3.95218
-3.96537
-3.97889
-3.99273
-4.00677
-4.02082
-4.03467
-4.04826
-4.06155
-4.07452
-4.08723
-4.09972
-4.11191
-4.1237
-4.13512
-4.14624
-4.15721
-4.16827
-4.17978
-4.192
-4.20495
-4.21857
-4.23278
-4.24754
-4.26275
-4.27832
-4.29417
-4.31023
-4.32635
-4.34232
-4.358
-4.37335
-4.38841
-4.40313
-4.41736
-4.43089
-4.44363
-4.45565
-4.46714
-4.4782
-4.48883
-4.49897
-4.50863
-4.5179
-4.52696
-4.53592
-4.54471
-4.55322
-4.5614
-4.56918
-4.57639
-4.58289
-4.58866
-4.59388
-4.59891
-4.60419
-4.61011
-4.61693
-4.62469
-4.63318
-4.64203
-4.65079
-4.65904
-4.66655
-4.67326
-4.6793
-4.68479
-4.68974
-4.69407
-4.69768
-4.70049
-4.70238
-4.70331
-4.70329
-4.70263
-4.702
-4.70221
-3.71553
-3.71442
-3.71591
-3.7197
-3.72587
-3.73427
-3.74453
-3.75628
-3.76916
-3.78285
-3.79705
-3.81155
-3.82619
-3.84087
-3.85549
-3.86996
-3.88421
-3.89814
-3.91167
-3.92479
-3.93753
-3.95001
-3.9624
-3.97483
-3.98744
-4.00027
-4.01324
-4.02625
-4.03913
-4.05177
-4.06415
-4.07625
-4.08806
-4.09963
-4.11098
-4.122
-4.13263
-4.1429
-4.15297
-4.16301
-4.17328
-4.18412
-4.19573
-4.20811
-4.22113
-4.2347
-4.24878
-4.26325
-4.27801
-4.29297
-4.30802
-4.32304
-4.33786
-4.35238
-4.36662
-4.38062
-4.39435
-4.40768
-4.42046
-4.43263
-4.44433
-4.45568
-4.46673
-4.47737
-4.48749
-4.49701
-4.506
-4.51457
-4.5228
-4.53069
-4.53828
-4.54572
-4.55307
-4.56022
-4.56697
-4.57316
-4.57885
-4.58425
-4.58976
-4.59585
-4.60293
-4.61118
-4.62046
-4.63035
-4.64029
-4.64969
-4.65806
-4.66522
-4.67123
-4.67628
-4.68052
-4.68406
-4.68699
-4.68935
-4.69112
-4.6922
-4.69255
-4.69231
-4.69204
-4.69251
-3.76289
-3.76146
-3.76253
-3.76572
-3.77106
-3.77842
-3.78746
-3.79786
-3.80932
-3.82156
-3.83431
-3.84737
-3.86057
-3.8738
-3.88696
-3.90001
-3.91287
-3.92552
-3.93793
-3.95008
-3.96203
-3.97386
-3.98566
-3.99748
-4.00939
-4.02135
-4.03327
-4.04507
-4.05665
-4.06794
-4.07899
-4.08981
-4.1004
-4.11076
-4.12091
-4.13076
-4.14026
-4.14951
-4.15869
-4.168
-4.17769
-4.18804
-4.19919
-4.21109
-4.22357
-4.23656
-4.25
-4.26379
-4.27781
-4.29194
-4.30606
-4.32005
-4.33379
-4.3472
-4.36034
-4.37327
-4.38598
-4.39838
-4.41036
-4.42195
-4.43329
-4.44447
-4.45546
-4.46608
-4.47617
-4.48563
-4.49447
-4.5027
-4.51032
-4.51734
-4.52391
-4.53034
-4.53691
-4.54366
-4.55043
-4.55707
-4.56346
-4.56963
-4.5758
-4.5824
-4.58992
-4.59861
-4.60842
-4.61899
-4.62971
-4.63986
-4.6488
-4.65615
-4.66192
-4.66634
-4.66968
-4.67225
-4.67434
-4.67615
-4.67774
-4.679
-4.67977
-4.68006
-4.68025
-4.68105
-3.80922
-3.8076
-3.80834
-3.81092
-3.81535
-3.8216
-3.82935
-3.83836
-3.84838
-3.85916
-3.87046
-3.88206
-3.8938
-3.90556
-3.91727
-3.9289
-3.94043
-3.95185
-3.96317
-3.9744
-3.98557
-3.99672
-4.00786
-4.01897
-4.03003
-4.04097
-4.0517
-4.06218
-4.07235
-4.08223
-4.0919
-4.10141
-4.11072
-4.11985
-4.12881
-4.13753
-4.14601
-4.15439
-4.16288
-4.17167
-4.18096
-4.19096
-4.20175
-4.21322
-4.2252
-4.23765
-4.25053
-4.26376
-4.27717
-4.29062
-4.30399
-4.31716
-4.33003
-4.34255
-4.35479
-4.36684
-4.37867
-4.39023
-4.40147
-4.41246
-4.42333
-4.43414
-4.44478
-4.45507
-4.46485
-4.47407
-4.48271
-4.49073
-4.49802
-4.50448
-4.51028
-4.5158
-4.52148
-4.52758
-4.53416
-4.54113
-4.54831
-4.55549
-4.56265
-4.57008
-4.57817
-4.58722
-4.59724
-4.60798
-4.6189
-4.62924
-4.63826
-4.64547
-4.65082
-4.65451
-4.65693
-4.65852
-4.65978
-4.66109
-4.66256
-4.66407
-4.66535
-4.66623
-4.66696
-4.66809
-3.85439
-3.8526
-3.85295
-3.8548
-3.85821
-3.8632
-3.86956
-3.87709
-3.88559
-3.89484
-3.9046
-3.91468
-3.9249
-3.93518
-3.94546
-3.95572
-3.96599
-3.97628
-3.9866
-3.99697
-4.00739
-4.01783
-4.02825
-4.03855
-4.04866
-4.05847
-4.06792
-4.07702
-4.08576
-4.09423
-4.10253
-4.11073
-4.11879
-4.12672
-4.13455
-4.14224
-4.14983
-4.15751
-4.1655
-4.17392
-4.18291
-4.19261
-4.20303
-4.21405
-4.22553
-4.23745
-4.24983
-4.26256
-4.27548
-4.2884
-4.30122
-4.3138
-4.32608
-4.33803
-4.34972
-4.36122
-4.37249
-4.38349
-4.39418
-4.40464
-4.41498
-4.42522
-4.4352
-4.44473
-4.45376
-4.46234
-4.47053
-4.47829
-4.48543
-4.49174
-4.49725
-4.50228
-4.50731
-4.51279
-4.51904
-4.52618
-4.53403
-4.54222
-4.55048
-4.55884
-4.56752
-4.57675
-4.5866
-4.59697
-4.60746
-4.6174
-4.62603
-4.63282
-4.63764
-4.64068
-4.64233
-4.64315
-4.64379
-4.64476
-4.64623
-4.64806
-4.64987
-4.65134
-4.65258
-4.65399
-3.89788
-3.89582
-3.89565
-3.8966
-3.89884
-3.90247
-3.90734
-3.9133
-3.9202
-3.92784
-3.93601
-3.94452
-3.95324
-3.9621
-3.97107
-3.98013
-3.98931
-3.99863
-4.0081
-4.01772
-4.02742
-4.03716
-4.04681
-4.05624
-4.06532
-4.07396
-4.08212
-4.08984
-4.0972
-4.1043
-4.1113
-4.11824
-4.12511
-4.13191
-4.13871
-4.14551
-4.15237
-4.1595
-4.16708
-4.17521
-4.18391
-4.19326
-4.20325
-4.21374
-4.22466
-4.23602
-4.24787
-4.26013
-4.27258
-4.28505
-4.29742
-4.3096
-4.32153
-4.33321
-4.34467
-4.35596
-4.36702
-4.37777
-4.38817
-4.39825
-4.4081
-4.41769
-4.42683
-4.43537
-4.44331
-4.45085
-4.45819
-4.46542
-4.47239
-4.47883
-4.48457
-4.48971
-4.49461
-4.49978
-4.50576
-4.5129
-4.52113
-4.53004
-4.53916
-4.54827
-4.55737
-4.56654
-4.57588
-4.58544
-4.59501
-4.60409
-4.61199
-4.61821
-4.62256
-4.62515
-4.62635
-4.62675
-4.62708
-4.62791
-4.62948
-4.63164
-4.63391
-4.63586
-4.63745
-4.63901
-3.939
-3.93654
-3.93567
-3.93561
-3.93661
-3.93884
-3.9422
-3.94659
-3.95187
-3.9579
-3.9645
-3.97152
-3.97888
-3.98652
-3.9944
-4.0025
-4.01083
-4.0194
-4.02819
-4.03716
-4.04622
-4.05526
-4.06413
-4.07265
-4.08068
-4.08815
-4.09503
-4.10144
-4.10748
-4.1133
-4.11906
-4.12484
-4.1306
-4.13639
-4.14229
-4.14832
-4.15458
-4.16125
-4.1685
-4.17633
-4.1847
-4.19363
-4.20309
-4.21298
-4.22327
-4.23403
-4.24531
-4.25703
-4.26897
-4.28096
-4.29289
-4.30473
-4.31645
-4.328
-4.3394
-4.35064
-4.36165
-4.37232
-4.38256
-4.39238
-4.40182
-4.41083
-4.41922
-4.42682
-4.43369
-4.44006
-4.44628
-4.45265
-4.45922
-4.46581
-4.4721
-4.47791
-4.4833
-4.48864
-4.49454
-4.50154
-4.50975
-4.51884
-4.5283
-4.53775
-4.54696
-4.55585
-4.56448
-4.57302
-4.58145
-4.58947
-4.59653
-4.60217
-4.60619
-4.6086
-4.60969
-4.61001
-4.6103
-4.61116
-4.61286
-4.61523
-4.61777
-4.61996
-4.62168
-4.62319
-3.97728
-3.9743
-3.97262
-3.97154
-3.97134
-3.97225
-3.97418
-3.97708
-3.98084
-3.98537
-3.99054
-3.99628
-4.00252
-4.00919
-4.01624
-4.02364
-4.03135
-4.03936
-4.04761
-4.05602
-4.06447
-4.07282
-4.08089
-4.08848
-4.09547
-4.10178
-4.10743
-4.11257
-4.11736
-4.12196
-4.12657
-4.13127
-4.13604
-4.14094
-4.14606
-4.15146
-4.15721
-4.1635
-4.17042
-4.17792
-4.1859
-4.19435
-4.20324
-4.21251
-4.22215
-4.23228
-4.24296
-4.25409
-4.26546
-4.27691
-4.2884
-4.29991
-4.31142
-4.32285
-4.33414
-4.34525
-4.3561
-4.36657
-4.37657
-4.38605
-4.39507
-4.40358
-4.41145
-4.41849
-4.42468
-4.43019
-4.43539
-4.44077
-4.44668
-4.4532
-4.46004
-4.46675
-4.47304
-4.47896
-4.48501
-4.49178
-4.49955
-4.5082
-4.51737
-4.52667
-4.53571
-4.54423
-4.55218
-4.55977
-4.56712
-4.5741
-4.58034
-4.58548
-4.5893
-4.59174
-4.59296
-4.59344
-4.59386
-4.59481
-4.59655
-4.59894
-4.60145
-4.60356
-4.60514
-4.60642
-4.01261
-4.00908
-4.00663
-4.00463
-4.0034
-4.00315
-4.00384
-4.00541
-4.00783
-4.01105
-4.01503
-4.01971
-4.02504
-4.03096
-4.03739
-4.04426
-4.0515
-4.05905
-4.06682
-4.07469
-4.08252
-4.09016
-4.0974
-4.10404
-4.10997
-4.11513
-4.11956
-4.12347
-4.12704
-4.1305
-4.13404
-4.13777
-4.14167
-4.1458
-4.15028
-4.15513
-4.16044
-4.16635
-4.17292
-4.18005
-4.1876
-4.19555
-4.20388
-4.21254
-4.22157
-4.2311
-4.24119
-4.25176
-4.26259
-4.27354
-4.28462
-4.29586
-4.30717
-4.31841
-4.32944
-4.34017
-4.35055
-4.36051
-4.36996
-4.37886
-4.38728
-4.39526
-4.40275
-4.40962
-4.41573
-4.42103
-4.42573
-4.43035
-4.43554
-4.44168
-4.44872
-4.45614
-4.46331
-4.46995
-4.47625
-4.48272
-4.48977
-4.49755
-4.50596
-4.51474
-4.52344
-4.53163
-4.53912
-4.54604
-4.55255
-4.55864
-4.56414
-4.56882
-4.57249
-4.57501
-4.57645
-4.57717
-4.57774
-4.57873
-4.58037
-4.58253
-4.58471
-4.58645
-4.58766
-4.58855
-4.04536
-4.04137
-4.03831
-4.03558
-4.03353
-4.03234
-4.03197
-4.03241
-4.03366
-4.03576
-4.03871
-4.04248
-4.04704
-4.0523
-4.05819
-4.06457
-4.07136
-4.07844
-4.08568
-4.09296
-4.10011
-4.10698
-4.11334
-4.119
-4.12385
-4.12784
-4.13108
-4.13378
-4.13621
-4.1386
-4.14119
-4.14408
-4.14725
-4.15074
-4.15465
-4.159
-4.16386
-4.16937
-4.17554
-4.18224
-4.18932
-4.19675
-4.20454
-4.21267
-4.22116
-4.23015
-4.23975
-4.24985
-4.26026
-4.27085
-4.28167
-4.29274
-4.30394
-4.31499
-4.32565
-4.33578
-4.34541
-4.35453
-4.36314
-4.37119
-4.37875
-4.38597
-4.39298
-4.3998
-4.40623
-4.41198
-4.41693
-4.42138
-4.42606
-4.43164
-4.43837
-4.44591
-4.45353
-4.46065
-4.46716
-4.47334
-4.47963
-4.48641
-4.4939
-4.50203
-4.51038
-4.5184
-4.5257
-4.53227
-4.5382
-4.54357
-4.54836
-4.55251
-4.55592
-4.55843
-4.56002
-4.56091
-4.56158
-4.5625
-4.56388
-4.56561
-4.56725
-4.56843
-4.56913
-4.56959
-4.07615
-4.07187
-4.0684
-4.06516
-4.06247
-4.0605
-4.05921
-4.05863
-4.05883
-4.05989
-4.06186
-4.06475
-4.06852
-4.07312
-4.07841
-4.08425
-4.09049
-4.09699
-4.10361
-4.11021
-4.11661
-4.12265
-4.1281
-4.13277
-4.13654
-4.13941
-4.1415
-4.1431
-4.1445
-4.14598
-4.14778
-4.15
-4.15257
-4.15551
-4.15889
-4.16274
-4.1671
-4.17212
-4.1778
-4.18401
-4.19057
-4.19746
-4.20472
-4.21233
-4.22033
-4.22887
-4.23805
-4.2478
-4.25793
-4.26834
-4.27905
-4.29008
-4.30123
-4.31215
-4.32244
-4.33195
-4.34074
-4.34894
-4.35662
-4.36374
-4.37033
-4.37657
-4.38281
-4.3893
-4.39601
-4.40249
-4.40825
-4.4132
-4.41781
-4.42284
-4.42885
-4.43581
-4.44319
-4.45035
-4.45692
-4.46291
-4.46866
-4.47464
-4.48135
-4.48893
-4.49702
-4.505
-4.51232
-4.51876
-4.5243
-4.52902
-4.53304
-4.53649
-4.5394
-4.54167
-4.54322
-4.54417
-4.54487
-4.54566
-4.54671
-4.54792
-4.54893
-4.54947
-4.54965
-4.54969