/*--------------------------------*- C++ -*----------------------------------*\
  =========                 |
  \\      /  F ield         | OpenFOAM: The Open Source CFD Toolbox
   \\    /   O peration     | Website:  https://openfoam.org
    \\  /    A nd           | Version:  11
     \\/     M anipulation  |
\*---------------------------------------------------------------------------*/
FoamFile
{
    format      ascii;
    class       surfaceScalarField;
    location    "0.2";
    object      phi;
}
// * * * * * * * * * * * * * * * * * * * * * * * * * * * * * * * * * * * * * //

dimensions      [0 3 -1 0 0 0 0];

internalField   nonuniform List<scalar> 
19980
(
-1.30485e-05
1.30489e-05
0.000123543
-0.000136592
0.000111389
1.2155e-05
9.97939e-05
1.15946e-05
7.98321e-05
1.99619e-05
5.84935e-05
2.13386e-05
3.85104e-05
1.99831e-05
2.04557e-05
1.80548e-05
4.92748e-06
1.55283e-05
-7.23633e-06
1.21638e-05
-1.56967e-05
8.46032e-06
-2.07849e-05
5.08816e-06
-2.32186e-05
2.43367e-06
-2.36977e-05
4.79148e-07
-2.28203e-05
-8.77547e-07
-2.10272e-05
-1.79324e-06
-1.86233e-05
-2.40387e-06
-1.57505e-05
-2.8726e-06
-1.23521e-05
-3.39826e-06
-8.2842e-06
-4.06787e-06
-3.44501e-06
-4.83927e-06
2.11528e-06
-5.56034e-06
8.15276e-06
-6.03742e-06
1.42824e-05
-6.12956e-06
2.00898e-05
-5.80727e-06
2.52829e-05
-5.1931e-06
2.97871e-05
-4.50424e-06
3.38035e-05
-4.01632e-06
3.78131e-05
-4.00951e-06
4.2385e-05
-4.57182e-06
4.79417e-05
-5.55668e-06
5.46793e-05
-6.73766e-06
6.24963e-05
-7.81696e-06
7.09029e-05
-8.40655e-06
7.91315e-05
-8.22856e-06
8.6394e-05
-7.26233e-06
9.20234e-05
-5.62927e-06
9.54976e-05
-3.47411e-06
9.64842e-05
-9.86443e-07
9.4862e-05
1.62225e-06
9.06332e-05
4.22899e-06
8.38276e-05
6.8057e-06
7.45419e-05
9.2857e-06
6.30649e-05
1.14771e-05
4.99446e-05
1.31204e-05
3.59536e-05
1.39911e-05
2.19948e-05
1.39589e-05
8.96468e-06
1.30302e-05
-2.42798e-06
1.13926e-05
-1.18229e-05
9.39484e-06
-1.92438e-05
7.42089e-06
-2.49769e-05
5.73297e-06
-2.93721e-05
4.39536e-06
-3.26927e-05
3.3205e-06
-3.50735e-05
2.38089e-06
-3.65793e-05
1.5061e-06
-3.72938e-05
7.14431e-07
-3.73627e-05
6.9076e-08
-3.69673e-05
-3.95274e-07
-3.62638e-05
-7.03655e-07
-3.53545e-05
-9.09214e-07
-3.43122e-05
-1.04242e-06
-3.32245e-05
-1.08779e-06
-3.22331e-05
-9.91262e-07
-3.15404e-05
-6.92935e-07
-3.13407e-05
-1.99706e-07
-3.16869e-05
3.46386e-07
-3.23917e-05
7.04589e-07
-3.30696e-05
6.7805e-07
-3.32968e-05
2.27263e-07
-3.27431e-05
-5.53754e-07
-3.12106e-05
-1.53231e-06
-2.86353e-05
-2.57527e-06
-2.51076e-05
-3.5277e-06
-2.08932e-05
-4.21431e-06
-1.64125e-05
-4.48077e-06
-1.21769e-05
-4.23576e-06
-8.69857e-06
-3.47829e-06
-6.38766e-06
-2.31087e-06
-5.47508e-06
-9.12781e-07
-5.99179e-06
5.16762e-07
-7.78391e-06
1.79226e-06
-1.05172e-05
2.73313e-06
-1.36928e-05
3.17544e-06
-1.67207e-05
3.028e-06
-1.90248e-05
2.30387e-06
-2.0115e-05
1.08996e-06
-1.96348e-05
-4.80255e-07
-1.74315e-05
-2.2033e-06
-1.36292e-05
-3.80244e-06
-8.62419e-06
-5.00495e-06
-2.9899e-06
-5.63412e-06
2.62682e-06
-5.61675e-06
7.54639e-06
-4.91974e-06
1.10731e-05
-3.52666e-06
1.25772e-05
-1.50422e-06
1.16156e-05
9.61474e-07
8.05951e-06
3.55613e-06
2.76302e-06
5.29689e-06
2.76311e-06
-0.000174891
0.00018794
-0.000204741
-0.000106742
-0.000160292
-3.22943e-05
-0.000149027
3.29795e-07
-0.000145101
1.60362e-05
-0.000147019
2.32567e-05
-0.00015308
2.60439e-05
-0.000161408
2.63831e-05
-0.00017053
2.46496e-05
-0.000179305
2.09394e-05
-0.000186872
1.6027e-05
-0.00019281
1.10258e-05
-0.000197116
6.73987e-06
-0.000200081
3.44384e-06
-0.000202043
1.08455e-06
-0.000203319
-5.16832e-07
-0.000204101
-1.62144e-06
-0.00020445
-2.52379e-06
-0.000204329
-3.51915e-06
-0.00020365
-4.74722e-06
-0.00020238
-6.10914e-06
-0.000200594
-7.34657e-06
-0.000198468
-8.16305e-06
-0.000196267
-8.33068e-06
-0.00019429
-7.78384e-06
-0.000192736
-6.74728e-06
-0.000191559
-5.68118e-06
-0.000190515
-5.0604e-06
-0.000189264
-5.26048e-06
-0.000187377
-6.45898e-06
-0.000184452
-8.4816e-06
-0.000180371
-1.0818e-05
-0.000175373
-1.28152e-05
-0.000169923
-1.38565e-05
-0.000164653
-1.34979e-05
-0.000160338
-1.15776e-05
-0.000157735
-8.23218e-06
-0.000157408
-3.80044e-06
-0.000159709
1.31502e-06
-0.000164853
6.76569e-06
-0.00017293
1.23061e-05
-0.000183869
1.77451e-05
-0.000197422
2.28394e-05
-0.000213172
2.72269e-05
-0.00023051
3.04585e-05
-0.000248629
3.211e-05
-0.000266594
3.1924e-05
-0.000283499
2.99359e-05
-0.000298632
2.65254e-05
-0.000311563
2.23256e-05
-0.000322147
1.80052e-05
-0.000330459
1.40444e-05
-0.000336692
1.06289e-05
-0.000341066
7.69453e-06
-0.000343757
5.07139e-06
-0.00034489
2.63977e-06
-0.000344588
4.13068e-07
-0.000343014
-1.50581e-06
-0.000340361
-3.04804e-06
-0.000336818
-4.24651e-06
-0.00033254
-5.18778e-06
-0.000327653
-5.92905e-06
-0.000322282
-6.45924e-06
-0.000316567
-6.70556e-06
-0.000310672
-6.58799e-06
-0.000304726
-6.14566e-06
-0.00029873
-5.64937e-06
-0.000292502
-5.52429e-06
-0.000285727
-6.09655e-06
-0.000278081
-7.4183e-06
-0.000269313
-9.32146e-06
-0.000259287
-1.15582e-05
-0.000248009
-1.38535e-05
-0.00023564
-1.58969e-05
-0.000222484
-1.73701e-05
-0.00020896
-1.80045e-05
-0.000195564
-1.7632e-05
-0.000182797
-1.62456e-05
-0.000171063
-1.40453e-05
-0.000160583
-1.13929e-05
-0.000151372
-8.69429e-06
-0.00014325
-6.3298e-06
-0.000135854
-4.66275e-06
-0.000128668
-4.01053e-06
-0.000121103
-4.53741e-06
-0.000112602
-6.19684e-06
-0.000102722
-8.79001e-06
-9.11824e-05
-1.20205e-05
-7.79221e-05
-1.54635e-05
-6.31595e-05
-1.85649e-05
-4.73917e-05
-2.07727e-05
-3.13289e-05
-2.1697e-05
-1.5824e-05
-2.11217e-05
-1.85484e-06
-1.88889e-05
9.5037e-06
-1.48853e-05
1.71283e-05
-9.1289e-06
1.99124e-05
-1.8226e-06
1.68471e-05
6.62101e-06
7.98649e-06
1.4157e-05
1.075e-05
-1.59335e-05
0.000203874
-0.000110977
-1.16981e-05
-0.000137138
-6.13337e-06
-0.000152664
1.58561e-05
-0.000164954
2.83261e-05
-0.000177464
3.57661e-05
-0.000191388
3.99684e-05
-0.000206638
4.16331e-05
-0.000222841
4.08524e-05
-0.000239753
3.78509e-05
-0.000257037
3.33119e-05
-0.000274335
2.83231e-05
-0.000291276
2.36804e-05
-0.000307665
1.98329e-05
-0.000323418
1.68383e-05
-0.000338528
1.45933e-05
-0.000353001
1.28513e-05
-0.000366838
1.13132e-05
-0.000380112
9.75504e-06
-0.000392905
8.04496e-06
-0.000405261
6.24702e-06
-0.00041722
4.61247e-06
-0.000428822
3.43915e-06
-0.000440078
2.92537e-06
-0.000450917
3.05504e-06
-0.000461266
3.60182e-06
-0.000471122
4.17464e-06
-0.000480449
4.26742e-06
-0.000489177
3.4674e-06
-0.000497324
1.6872e-06
-0.000504979
-8.26432e-07
-0.000512205
-3.59214e-06
-0.000519064
-5.95547e-06
-0.000525696
-7.22448e-06
-0.00053229
-6.90323e-06
-0.000539037
-4.83009e-06
-0.000546133
-1.13658e-06
-0.000553793
3.85966e-06
-0.000562224
9.74602e-06
-0.000571562
1.61042e-05
-0.000581836
2.25794e-05
-0.000592958
2.88677e-05
-0.000604749
3.46303e-05
-0.000616953
3.94314e-05
-0.000629267
4.27721e-05
-0.000641367
4.4211e-05
-0.000652951
4.3507e-05
-0.000663743
4.07281e-05
-0.000673493
3.62759e-05
-0.000681962
3.07945e-05
-0.000688931
2.49738e-05
-0.000694233
1.9346e-05
-0.000697781
1.41777e-05
-0.000699579
9.4928e-06
-0.000699697
5.18919e-06
-0.000698237
1.1795e-06
-0.000695301
-2.52229e-06
-0.000690983
-5.82429e-06
-0.000685369
-8.66219e-06
-0.00067855
-1.10654e-05
-0.000670625
-1.31127e-05
-0.000661698
-1.48559e-05
-0.000651863
-1.62951e-05
-0.000641177
-1.73913e-05
-0.000629653
-1.81115e-05
-0.000617265
-1.85336e-05
-0.000603975
-1.89394e-05
-0.000589759
-1.97397e-05
-0.000574613
-2.12426e-05
-0.000558538
-2.34935e-05
-0.000541535
-2.63242e-05
-0.000523621
-2.94719e-05
-0.00050485
-3.2625e-05
-0.000485316
-3.5431e-05
-0.000465144
-3.75419e-05
-0.000444476
-3.86732e-05
-0.000423452
-3.86554e-05
-0.0004022
-3.74975e-05
-0.000380816
-3.54295e-05
-0.000359358
-3.2852e-05
-0.000337831
-3.02202e-05
-0.000316186
-2.79754e-05
-0.000294314
-2.65352e-05
-0.000272081
-2.62436e-05
-0.000249353
-2.72653e-05
-0.000226012
-2.95373e-05
-0.000201985
-3.28174e-05
-0.000177276
-3.67291e-05
-0.00015199
-4.07495e-05
-0.000126331
-4.42244e-05
-0.000100613
-4.64903e-05
-7.52922e-05
-4.70175e-05
-5.10035e-05
-4.54107e-05
-2.85755e-05
-4.13172e-05
-9.03459e-06
-3.44262e-05
6.3034e-06
-2.44667e-05
1.57734e-05
-1.12926e-05
1.7221e-05
5.17419e-06
9.29691e-06
2.20808e-05
2.0047e-05
-1.11775e-05
0.000215051
-6.45351e-05
4.16595e-05
-9.83648e-05
2.76962e-05
-0.000124583
4.20748e-05
-0.000148637
5.23794e-05
-0.0001723
5.94296e-05
-0.000196101
6.37685e-05
-0.000220298
6.5831e-05
-0.000245236
6.57903e-05
-0.000271142
6.37569e-05
-0.000298022
6.01912e-05
-0.000325509
5.58105e-05
-0.000353224
5.13949e-05
-0.000380827
4.7436e-05
-0.000408072
4.40836e-05
-0.00043477
4.12908e-05
-0.000460835
3.89171e-05
-0.000486249
3.67274e-05
-0.000511027
3.45321e-05
-0.000535255
3.2273e-05
-0.000559036
3.00278e-05
-0.000582387
2.79637e-05
-0.000605205
2.6257e-05
-0.000627339
2.50603e-05
-0.000648678
2.43939e-05
-0.000669107
2.40301e-05
-0.000688522
2.35899e-05
-0.000706972
2.27172e-05
-0.00072466
2.11555e-05
-0.00074179
1.88171e-05
-0.000758506
1.58899e-05
-0.000774937
1.28391e-05
-0.000791154
1.02611e-05
-0.000807094
8.7157e-06
-0.00082261
8.61382e-06
-0.000837583
1.0143e-05
-0.000851953
1.32331e-05
-0.000865695
1.76017e-05
-0.000878812
2.28626e-05
-0.000891328
2.86209e-05
-0.000903254
3.45046e-05
-0.000914532
4.01458e-05
-0.000925051
4.51493e-05
-0.000934699
4.90797e-05
-0.000943419
5.14918e-05
-0.000951219
5.20119e-05
-0.000958158
5.04454e-05
-0.000964293
4.68637e-05
-0.000969637
4.16196e-05
-0.00097411
3.52672e-05
-0.000977544
2.84077e-05
-0.000979728
2.15302e-05
-0.000980476
1.49258e-05
-0.000979682
8.69863e-06
-0.000977331
2.83797e-06
-0.000973465
-2.68676e-06
-0.000968132
-7.8549e-06
-0.000961361
-1.25959e-05
-0.000953166
-1.68569e-05
-0.000943576
-2.06555e-05
-0.000932638
-2.40502e-05
-0.000920412
-2.70823e-05
-0.000906943
-2.97636e-05
-0.00089224
-3.20945e-05
-0.000876261
-3.40901e-05
-0.000858948
-3.58463e-05
-0.000840284
-3.76036e-05
-0.000820335
-3.9689e-05
-0.000799235
-4.23426e-05
-0.00077713
-4.55982e-05
-0.000754142
-4.93129e-05
-0.00073036
-5.32534e-05
-0.000705853
-5.71322e-05
-0.000680659
-6.06245e-05
-0.000654786
-6.34145e-05
-0.000628211
-6.5249e-05
-0.000600879
-6.59876e-05
-0.000572717
-6.56592e-05
-0.00054366
-6.44868e-05
-0.000513678
-6.28339e-05
-0.000482785
-6.1113e-05
-0.000451023
-5.97377e-05
-0.000418455
-5.91029e-05
-0.000385179
-5.95199e-05
-0.000351325
-6.11191e-05
-0.000317045
-6.38173e-05
-0.000282499
-6.73635e-05
-0.000247857
-7.13709e-05
-0.000213306
-7.53003e-05
-0.000179054
-7.84764e-05
-0.000145348
-8.01966e-05
-0.000112529
-7.98366e-05
-8.11096e-05
-7.68298e-05
-5.18299e-05
-7.05969e-05
-2.57333e-05
-6.05228e-05
-4.25666e-06
-4.59436e-05
1.05608e-05
-2.61095e-05
1.58698e-05
-1.3495e-07
9.43639e-06
2.85143e-05
2.94832e-05
8.03033e-07
0.000214248
-4.11228e-05
8.35852e-05
-7.67572e-05
6.33307e-05
-0.000107879
7.31965e-05
-0.000137851
8.23515e-05
-0.000168113
8.96912e-05
-0.000199032
9.46869e-05
-0.00023054
9.73398e-05
-0.000262728
9.79778e-05
-0.000295791
9.68195e-05
-0.000329863
9.42637e-05
-0.000364802
9.07493e-05
-0.000400249
8.68419e-05
-0.000435801
8.29881e-05
-0.000471181
7.94632e-05
-0.000506174
7.62836e-05
-0.000540596
7.33392e-05
-0.000574376
7.05077e-05
-0.000607548
6.77046e-05
-0.000640164
6.48886e-05
-0.000672208
6.20721e-05
-0.000703633
5.93881e-05
-0.000734388
5.70125e-05
-0.000764332
5.50047e-05
-0.000793242
5.33032e-05
-0.000820986
5.17737e-05
-0.000847576
5.01805e-05
-0.000873091
4.82317e-05
-0.000897667
4.57318e-05
-0.000921526
4.26757e-05
-0.000944885
3.9249e-05
-0.000967851
3.58055e-05
-0.000990397
3.28068e-05
-0.00101239
3.07108e-05
-0.00103364
2.98582e-05
-0.00105389
3.04017e-05
-0.00107295
3.22892e-05
-0.00109065
3.53023e-05
-0.00110692
3.91263e-05
-0.0011217
4.34073e-05
-0.00113497
4.77777e-05
-0.00114669
5.18615e-05
-0.00115682
5.5274e-05
-0.00116536
5.7622e-05
-0.00117239
5.8527e-05
-0.00117807
5.76855e-05
-0.00118257
5.49508e-05
-0.0011861
5.03924e-05
-0.00118878
4.42981e-05
-0.00119062
3.71105e-05
-0.00119153
2.93186e-05
-0.00119134
2.13417e-05
-0.00118988
1.34622e-05
-0.00118701
5.8289e-06
-0.00118267
-1.50196e-06
-0.00117685
-8.51106e-06
-0.00116954
-1.51639e-05
-0.00116074
-2.13992e-05
-0.00115042
-2.71694e-05
-0.0011386
-3.24814e-05
-0.00112527
-3.73797e-05
-0.00111045
-4.19001e-05
-0.00109415
-4.60591e-05
-0.00107637
-4.98765e-05
-0.00105707
-5.33949e-05
-0.0010362
-5.67126e-05
-0.00101378
-6.00222e-05
-0.000989903
-6.35675e-05
-0.000964728
-6.75184e-05
-0.000938436
-7.18892e-05
-0.000911184
-7.65651e-05
-0.000883079
-8.1358e-05
-0.000854185
-8.60264e-05
-0.000824514
-9.02953e-05
-0.000794026
-9.39027e-05
-0.000762628
-9.66462e-05
-0.000730196
-9.84201e-05
-0.000696595
-9.926e-05
-0.000661721
-9.93617e-05
-0.000625521
-9.90336e-05
-0.000588011
-9.86228e-05
-0.000549272
-9.84764e-05
-0.000509453
-9.89229e-05
-0.000468758
-0.000100214
-0.000427432
-0.000102445
-0.000385727
-0.000105522
-0.0003439
-0.000109191
-0.000302206
-0.000113065
-0.000260886
-0.00011662
-0.000220168
-0.000119195
-0.000180289
-0.000120076
-0.000141575
-0.00011855
-0.000104532
-0.000113873
-6.98934e-05
-0.000105236
-3.87484e-05
-9.16675e-05
-1.26653e-05
-7.20269e-05
6.08866e-06
-4.48637e-05
1.42678e-05
-8.3138e-06
9.16138e-06
3.36207e-05
3.86446e-05
6.49274e-06
0.000207756
-2.68373e-05
0.000116915
-6.22853e-05
9.87785e-05
-9.6538e-05
0.000107449
-0.000130709
0.000116523
-0.000165538
0.00012452
-0.000201399
0.000130547
-0.000238323
0.000134264
-0.000276151
0.000135806
-0.000314913
0.000135581
-0.000354549
0.0001339
-0.000395001
0.000131201
-0.00043605
0.000127892
-0.000477381
0.000124319
-0.00051864
0.000120722
-0.000559568
0.000117211
-0.00060003
0.000113802
-0.000639952
0.000110429
-0.000679247
0.000107
-0.000717882
0.000103523
-0.000755884
0.000100074
-0.000793205
9.67092e-05
-0.000829687
9.34947e-05
-0.000865184
9.05013e-05
-0.000899585
8.77042e-05
-0.000932784
8.49721e-05
-0.000964729
8.21259e-05
-0.000995491
7.89933e-05
-0.00102523
7.54699e-05
-0.00105412
7.15651e-05
-0.0010823
6.74262e-05
-0.00110983
6.33367e-05
-0.00113668
5.9659e-05
-0.00116271
5.67377e-05
-0.00118767
5.48249e-05
-0.00121131
5.40408e-05
-0.00123338
5.43562e-05
-0.00125368
5.56049e-05
-0.00127208
5.75276e-05
-0.00128849
5.98179e-05
-0.00130286
6.21452e-05
-0.00131516
6.41655e-05
-0.00132542
6.55298e-05
-0.00133369
6.58964e-05
-0.00134012
6.49521e-05
-0.00134489
6.24586e-05
-0.00134825
5.83086e-05
-0.00135042
5.25633e-05
-0.00135157
4.54477e-05
-0.00135177
3.73049e-05
-0.00135097
2.85219e-05
-0.00134908
1.94473e-05
-0.00134595
1.03359e-05
-0.00134147
1.34903e-06
-0.00133555
-7.4183e-06
-0.00132815
-1.59089e-05
-0.00131925
-2.40725e-05
-0.0013088
-3.18489e-05
-0.00129677
-3.91914e-05
-0.00128316
-4.61001e-05
-0.00126793
-5.26104e-05
-0.00125107
-5.8752e-05
-0.00123259
-6.45388e-05
-0.00121248
-6.9995e-05
-0.0011907
-7.51738e-05
-0.00116724
-8.01673e-05
-0.00114214
-8.51237e-05
-0.00111549
-9.02194e-05
-0.00108744
-9.55693e-05
-0.00105816
-0.000101168
-0.0010278
-0.000106921
-0.000996473
-0.000112686
-0.00096422
-0.000118279
-0.00093104
-0.000123475
-0.000896883
-0.000128059
-0.000861651
-0.000131878
-0.000825206
-0.000134866
-0.000787404
-0.000137061
-0.000748145
-0.000138621
-0.000707391
-0.000139788
-0.000665173
-0.000140841
-0.000621592
-0.000142058
-0.000576817
-0.000143698
-0.000531082
-0.000145949
-0.000484667
-0.00014886
-0.000437871
-0.000152318
-0.000390986
-0.000156076
-0.000344284
-0.000159767
-0.000298022
-0.000162882
-0.000252451
-0.000164766
-0.000207846
-0.000164681
-0.000164563
-0.000161833
-0.00012312
-0.000155316
-8.42952e-05
-0.00014406
-4.92311e-05
-0.000126732
-1.9603e-05
-0.000101655
2.16182e-06
-6.66285e-05
1.25664e-05
-1.87181e-05
8.68278e-06
3.75043e-05
4.73275e-05
8.16093e-06
0.000199595
-1.82837e-05
0.00014336
-5.23097e-05
0.000132804
-8.80936e-05
0.000143233
-0.000125338
0.000153767
-0.00016377
0.000162952
-0.000203435
0.000170213
-0.000244403
0.000175232
-0.000286519
0.000177922
-0.000329619
0.000178681
-0.000373593
0.000177874
-0.000418321
0.00017593
-0.000463578
0.000173149
-0.000509098
0.000169839
-0.000554639
0.000166264
-0.000599976
0.000162548
-0.000644879
0.000158705
-0.000689214
0.000154764
-0.000732957
0.000150743
-0.000776055
0.000146621
-0.00081841
0.00014243
-0.000859946
0.000138245
-0.000900583
0.000134132
-0.000940191
0.000130109
-0.000978628
0.000126141
-0.00101581
0.000122153
-0.00105172
0.000118039
-0.00108642
0.000113687
-0.00111998
0.000109037
-0.00115254
0.000104119
-0.00118418
9.9064e-05
-0.00121493
9.40919e-05
-0.00124474
8.94715e-05
-0.00127346
8.54536e-05
-0.00130086
8.22239e-05
-0.00132669
7.98754e-05
-0.00135073
7.83878e-05
-0.00137275
7.76293e-05
-0.00139261
7.73894e-05
-0.00141021
7.74142e-05
-0.00142549
7.74227e-05
-0.00143843
7.71149e-05
-0.00144909
7.61874e-05
-0.00145755
7.43534e-05
-0.00146396
7.1361e-05
-0.00146852
6.70243e-05
-0.00147148
6.12638e-05
-0.00147305
5.41303e-05
-0.0014734
4.57983e-05
-0.00147262
3.65315e-05
-0.00147073
2.66325e-05
-0.00146767
1.63841e-05
-0.00146334
6.00589e-06
-0.00145765
-4.3468e-06
-0.0014505
-1.45609e-05
-0.00144186
-2.45525e-05
-0.00143168
-3.42572e-05
-0.00141991
-4.36159e-05
-0.00140652
-5.25822e-05
-0.00139147
-6.115e-05
-0.00137473
-6.93473e-05
-0.00135629
-7.71967e-05
-0.00133612
-8.47039e-05
-0.00131423
-9.18881e-05
-0.0012906
-9.8803e-05
-0.00126523
-0.000105533
-0.00123817
-0.00011219
-0.00120949
-0.000118893
-0.00117935
-0.000125715
-0.00114788
-0.000132639
-0.00111521
-0.000139591
-0.00108143
-0.000146465
-0.00104658
-0.000153124
-0.00101067
-0.00015939
-0.000973634
-0.000165093
-0.000935388
-0.000170123
-0.000895813
-0.000174441
-0.000854793
-0.000178082
-0.00081225
-0.000181165
-0.00076816
-0.000183878
-0.000722562
-0.000186438
-0.000675565
-0.000189055
-0.000627351
-0.000191912
-0.000578159
-0.00019514
-0.000528262
-0.000198757
-0.000477942
-0.000202639
-0.000427488
-0.00020653
-0.000377186
-0.000210068
-0.000327313
-0.000212756
-0.000278132
-0.000213947
-0.000229934
-0.000212879
-0.000183117
-0.00020865
-0.000138239
-0.000200194
-9.61263e-05
-0.000186173
-5.79832e-05
-0.000164875
-2.55794e-05
-0.000134058
-1.44982e-06
-9.0758e-05
1.07865e-05
-3.09546e-05
8.08839e-06
4.02024e-05
5.54158e-05
7.64126e-06
0.000191954
-1.38242e-05
0.000164825
-4.58512e-05
0.000164831
-8.19887e-05
0.00017937
-0.000121088
0.000192867
-0.000162286
0.00020415
-0.000205057
0.000212983
-0.000249159
0.000219333
-0.000294562
0.000223325
-0.000341044
0.000225163
-0.000388408
0.000225237
-0.000436406
0.000223928
-0.000484888
0.00022163
-0.000533655
0.000218606
-0.000582423
0.000215032
-0.000630962
0.000211086
-0.000679136
0.000206879
-0.000726808
0.000202436
-0.000773843
0.000197777
-0.000820164
0.000192942
-0.000865713
0.000187979
-0.000910399
0.000182931
-0.000954106
0.000177839
-0.000996718
0.000172722
-0.00103814
0.000167562
-0.0010783
0.000162315
-0.00111717
0.000156911
-0.00115477
0.000151285
-0.00119115
0.000145416
-0.00122638
0.000139353
-0.00126052
0.0001332
-0.00129355
0.000127125
-0.00132541
0.000121326
-0.00135594
0.000115987
-0.00138496
0.000111243
-0.00141224
0.000107159
-0.00143757
0.000103717
-0.00146075
0.000100812
-0.00148164
9.8276e-05
-0.00150013
9.59047e-05
-0.00151617
9.34652e-05
-0.00152976
9.07047e-05
-0.00154095
8.73691e-05
-0.00154982
8.32239e-05
-0.00155652
7.80697e-05
-0.00156126
7.17613e-05
-0.00156424
6.42379e-05
-0.00156565
5.5543e-05
-0.00156566
4.58136e-05
-0.00156438
3.52516e-05
-0.00156184
2.40903e-05
-0.00155801
1.2555e-05
-0.00155284
8.30976e-07
-0.00154625
-1.09394e-05
-0.00153817
-2.26385e-05
-0.00152855
-3.41665e-05
-0.00151736
-4.54484e-05
-0.00150455
-5.64281e-05
-0.00149007
-6.70633e-05
-0.00147388
-7.73407e-05
-0.00145595
-8.7278e-05
-0.00143625
-9.68898e-05
-0.00141478
-0.000106174
-0.00139153
-0.00011514
-0.0013665
-0.000123839
-0.00133969
-0.000132341
-0.00131115
-0.000140731
-0.00128095
-0.000149085
-0.00124923
-0.00015744
-0.0012161
-0.000165772
-0.00118166
-0.000174027
-0.00114599
-0.000182136
-0.00110912
-0.000189992
-0.00107106
-0.000197453
-0.00103177
-0.000204385
-0.00099117
-0.00021072
-0.000949171
-0.00021644
-0.000905682
-0.00022157
-0.000860657
-0.00022619
-0.000814097
-0.000230438
-0.000766052
-0.000234483
-0.00071663
-0.000238476
-0.000666
-0.000242542
-0.000614385
-0.000246756
-0.000562043
-0.000251099
-0.000509249
-0.000255433
-0.000456274
-0.000259505
-0.000403383
-0.000262959
-0.000350847
-0.000265292
-0.000298948
-0.000265845
-0.000248013
-0.000263815
-0.000198465
-0.000258198
-0.000150904
-0.000247754
-0.0001062
-0.000230878
-6.56061e-05
-0.000205468
-3.0953e-05
-0.000168712
-4.85848e-06
-0.000116852
8.96992e-06
-4.47833e-05
7.44424e-06
4.17282e-05
6.28599e-05
6.59025e-06
0.000185363
-1.15858e-05
0.000183001
-4.16677e-05
0.000194913
-7.77192e-05
0.000215421
-0.00011789
0.000233037
-0.000160963
0.000247223
-0.000206129
0.000258149
-0.000252881
0.000266085
-0.000300929
0.000271373
-0.00035003
0.000274264
-0.000400015
0.000275222
-0.000450666
0.000274579
-0.000501717
0.000272681
-0.000552947
0.000269837
-0.000604186
0.000266271
-0.000655233
0.000262133
-0.000705893
0.000257539
-0.000756027
0.00025257
-0.000805529
0.000247279
-0.000854301
0.000241716
-0.000902249
0.000235927
-0.000949274
0.000229956
-0.000995276
0.000223841
-0.00104016
0.000217604
-0.00108383
0.000211235
-0.00112622
0.000204707
-0.0011673
0.000197986
-0.00120706
0.000191042
-0.00124552
0.00018388
-0.00128272
0.000176551
-0.00131866
0.00016914
-0.00135331
0.000161777
-0.0013866
0.000154611
-0.00141838
0.000147776
-0.00144851
0.000141365
-0.00147677
0.000135421
-0.00150298
0.000129927
-0.00152697
0.000124802
-0.00154861
0.000119912
-0.0015678
0.000115095
-0.00158449
0.000110161
-0.00159869
0.000104905
-0.00161044
9.91183e-05
-0.00161983
9.26134e-05
-0.00162699
8.52333e-05
-0.0016321
7.68653e-05
-0.00163532
6.74633e-05
-0.00163685
5.70655e-05
-0.00163682
4.57822e-05
-0.00163533
3.3767e-05
-0.00163244
2.11968e-05
-0.00162813
8.24934e-06
-0.00162238
-4.91953e-06
-0.00161514
-1.81805e-05
-0.00160636
-3.14181e-05
-0.001596
-4.45285e-05
-0.00158402
-5.74308e-05
-0.00157037
-7.00718e-05
-0.00155502
-8.24153e-05
-0.00153792
-9.44439e-05
-0.00151903
-0.000106161
-0.00149835
-0.000117571
-0.00147586
-0.000128666
-0.00145155
-0.00013945
-0.00142542
-0.000149964
-0.0013975
-0.000160268
-0.00136781
-0.000170416
-0.00133645
-0.000180451
-0.0013035
-0.000190389
-0.00126906
-0.000200205
-0.00123323
-0.000209859
-0.00119607
-0.000219302
-0.0011576
-0.000228457
-0.00111784
-0.000237212
-0.00107676
-0.000245466
-0.00103431
-0.000253173
-0.000990416
-0.000260332
-0.000945029
-0.000266957
-0.000898123
-0.000273095
-0.000849714
-0.000278847
-0.000799859
-0.000284338
-0.000748667
-0.000289669
-0.000696303
-0.000294906
-0.000642973
-0.000300085
-0.000588905
-0.000305167
-0.000534339
-0.00031
-0.000479525
-0.000314319
-0.000424727
-0.000317757
-0.000370216
-0.000319803
-0.000316272
-0.00031979
-0.00026324
-0.000316847
-0.000211571
-0.000309866
-0.000161897
-0.000297429
-0.000115116
-0.000277659
-7.2522e-05
-0.000248063
-3.59917e-05
-0.000205242
-8.18134e-06
-0.000144663
7.13842e-06
-6.01028e-05
6.79286e-06
4.20736e-05
6.9653e-05
6.01634e-06
0.000179347
-1.00167e-05
0.000199034
-3.86564e-05
0.000223553
-7.45742e-05
0.000251339
-0.000115447
0.00027391
-0.000159912
0.000291689
-0.000206902
0.000305139
-0.000255728
0.00031491
-0.000305924
0.00032157
-0.000357252
0.000325591
-0.000409387
0.000327357
-0.000462113
0.000327305
-0.000515223
0.000325791
-0.000568489
0.000323104
-0.000621705
0.000319487
-0.000674694
0.000315122
-0.000727293
0.000310138
-0.00077936
0.000304637
-0.000830772
0.000298692
-0.000881421
0.000292365
-0.000931207
0.000285713
-0.000980034
0.000278783
-0.00102781
0.000271614
-0.00107443
0.000264228
-0.00111982
0.000256624
-0.00116391
0.000248796
-0.00120666
0.000240733
-0.00124804
0.000232428
-0.00128806
0.0002239
-0.00132671
0.000215199
-0.00136397
0.000206401
-0.0013998
0.000197606
-0.00143412
0.000188926
-0.0014668
0.000180458
-0.0014977
0.000172264
-0.00152665
0.000164372
-0.00155349
0.000156768
-0.00157807
0.000149389
-0.00160029
0.000142129
-0.00162005
0.000134859
-0.00163732
0.00012743
-0.0016521
0.000119678
-0.00166442
0.000111437
-0.00167436
0.000102558
-0.00168204
9.29164e-05
-0.00168761
8.24286e-05
-0.0016912
7.10608e-05
-0.00169299
5.88467e-05
-0.00169308
4.58764e-05
-0.00169158
3.22674e-05
-0.00168853
1.81511e-05
-0.00168395
3.66792e-06
-0.00167782
-1.10488e-05
-0.00167012
-2.58814e-05
-0.00166082
-4.07211e-05
-0.00164988
-5.54661e-05
-0.00163728
-7.00369e-05
-0.00162296
-8.43834e-05
-0.0016069
-9.84741e-05
-0.00158906
-0.000112288
-0.00156941
-0.000125816
-0.00154793
-0.000139051
-0.00152461
-0.00015198
-0.00149946
-0.000164604
-0.00147247
-0.000176957
-0.00144365
-0.000189082
-0.00141306
-0.00020101
-0.00138075
-0.000212755
-0.00134683
-0.000224318
-0.00131135
-0.00023568
-0.0012744
-0.000246814
-0.00123602
-0.000257681
-0.00119625
-0.00026822
-0.00115512
-0.000278342
-0.00111261
-0.000287979
-0.00106868
-0.000297106
-0.00102328
-0.000305724
-0.00097641
-0.000313832
-0.00092805
-0.000321455
-0.000878232
-0.000328666
-0.000827019
-0.00033555
-0.00077452
-0.000342168
-0.00072088
-0.000348546
-0.000666283
-0.000354682
-0.000610937
-0.000360513
-0.000555068
-0.000365869
-0.000498902
-0.000370485
-0.000442681
-0.000373977
-0.000386667
-0.000375817
-0.000331153
-0.000375303
-0.000276498
-0.000371503
-0.000223169
-0.000363195
-0.000171815
-0.000348782
-0.000123357
-0.000326117
-7.91079e-05
-0.000292312
-4.09494e-05
-0.0002434
-1.15772e-05
-0.000174035
5.20324e-06
-7.68829e-05
6.09429e-06
4.11825e-05
7.57473e-05
5.83485e-06
0.000173512
-8.58933e-06
0.000213458
-3.616e-05
0.000251123
-7.20479e-05
0.000287227
-0.000113548
0.00031541
-0.000159038
0.000337178
-0.000207448
0.00035355
-0.000257982
0.000365444
-0.000310004
0.000373592
-0.000363136
0.000378723
-0.000417084
0.000381306
-0.000471592
0.000381813
-0.00052642
0.000380619
-0.000581359
0.000378042
-0.000636213
0.000374342
-0.00069081
0.000369718
-0.000744991
0.00036432
-0.000798614
0.00035826
-0.000851554
0.000351632
-0.000903701
0.000344512
-0.000954954
0.000336966
-0.00100522
0.000329044
-0.00105439
0.000320787
-0.00110238
0.000312222
-0.00114912
0.000303361
-0.00119453
0.000294211
-0.00123858
0.000284775
-0.00128121
0.000275063
-0.00132241
0.000265102
-0.00136216
0.000254946
-0.00140042
0.000244657
-0.00143713
0.000234317
-0.00147221
0.000224009
-0.00150555
0.000213802
-0.00153703
0.00020374
-0.0015665
0.000193842
-0.00159383
0.000184095
-0.00161889
0.000174448
-0.00164158
0.000164821
-0.00166183
0.000155115
-0.00167962
0.000145213
-0.00169493
0.000134988
-0.0017078
0.000124309
-0.0017183
0.000113055
-0.00172651
0.000101134
-0.00173257
8.84842e-05
-0.00173659
7.50838e-05
-0.00173871
6.09622e-05
-0.00173903
4.61926e-05
-0.00173762
3.08664e-05
-0.00173455
1.50816e-05
-0.00172984
-1.05107e-06
-0.00172347
-1.74151e-05
-0.00171545
-3.39019e-05
-0.00170576
-5.04111e-05
-0.00169438
-6.68487e-05
-0.00168127
-8.31405e-05
-0.00166642
-9.924e-05
-0.00164977
-0.000115118
-0.00163131
-0.000130749
-0.00161101
-0.000146113
-0.00158887
-0.000161193
-0.00156488
-0.000175974
-0.00153903
-0.000190455
-0.00151132
-0.000204662
-0.00148178
-0.000218624
-0.00145044
-0.000232347
-0.00141737
-0.000245827
-0.00138263
-0.000259056
-0.00134629
-0.000272022
-0.0013084
-0.000284702
-0.00126902
-0.000297063
-0.00122819
-0.000309054
-0.00118592
-0.000320607
-0.00114223
-0.000331675
-0.00109708
-0.000342248
-0.00105048
-0.000352326
-0.00100242
-0.000361897
-0.000952907
-0.000370967
-0.000901985
-0.000379588
-0.000849715
-0.00038782
-0.000796201
-0.000395682
-0.000741581
-0.000403165
-0.000686021
-0.000410242
-0.000629706
-0.000416828
-0.000572834
-0.000422742
-0.00051562
-0.000427699
-0.000458301
-0.000431296
-0.00040113
-0.000432989
-0.000344399
-0.000432035
-0.000288472
-0.000427429
-0.00023383
-0.000417837
-0.000181135
-0.000401478
-0.000131302
-0.00037595
-8.56633e-05
-0.00033795
-4.60844e-05
-0.000282979
-1.52675e-05
-0.000204852
2.97742e-06
-9.5128e-05
5.25426e-06
3.89059e-05
8.10014e-05
5.66222e-06
0.00016785
-7.4331e-06
0.000226553
-3.41508e-05
0.000277841
-6.98775e-05
0.000322954
-0.000111892
0.000357425
-0.000158315
0.000383601
-0.000207932
0.000403167
-0.000259832
0.000417344
-0.000313406
0.000427166
-0.000368121
0.000433438
-0.000423649
0.000436833
-0.000479697
0.000437861
-0.000536021
0.000436943
-0.000592414
0.000434436
-0.000648688
0.000430616
-0.000704665
0.000425696
-0.000760189
0.000419844
-0.000815123
0.000413193
-0.000869344
0.000405853
-0.000922742
0.000397909
-0.000975211
0.000389435
-0.00102665
0.000380486
-0.00107697
0.000371108
-0.00112609
0.000361338
-0.00117392
0.000351194
-0.0012204
0.000340693
-0.00126548
0.00032985
-0.0013091
0.000318687
-0.00135124
0.000307239
-0.00139185
0.000295557
-0.00143089
0.000283697
-0.00146829
0.000271721
-0.00150398
0.000259696
-0.00153785
0.000247672
-0.00156979
0.00023568
-0.00159968
0.000223734
-0.00162741
0.000211823
-0.00165287
0.000199908
-0.00167598
0.000187929
-0.00169668
0.000175812
-0.00171493
0.000163469
-0.00173074
0.000150801
-0.00174414
0.000137703
-0.00175517
0.000124085
-0.00176391
0.000109874
-0.00177046
9.50319e-05
-0.00177492
7.95464e-05
-0.0017774
6.34432e-05
-0.00177799
4.67808e-05
-0.00177675
2.96313e-05
-0.00177374
1.20708e-05
-0.00176898
-5.81227e-06
-0.00176248
-2.39151e-05
-0.00175425
-4.21361e-05
-0.00174427
-6.0384e-05
-0.00173255
-7.85766e-05
-0.00171904
-9.6646e-05
-0.00170373
-0.000114549
-0.00168659
-0.000132256
-0.00166761
-0.000149737
-0.00164676
-0.000166961
-0.00162405
-0.000183905
-0.00159947
-0.000200554
-0.00157301
-0.000216906
-0.0015447
-0.000232979
-0.00151454
-0.000248786
-0.00148257
-0.000264317
-0.00144884
-0.000279552
-0.00141341
-0.000294483
-0.00137633
-0.000309102
-0.00133765
-0.000323389
-0.00129741
-0.000337304
-0.00125566
-0.0003508
-0.00121244
-0.00036383
-0.00116775
-0.000376367
-0.00112159
-0.000388407
-0.00107397
-0.000399938
-0.00102493
-0.000410944
-0.000974466
-0.000421427
-0.000922633
-0.00043142
-0.0008695
-0.000440952
-0.000815167
-0.000450015
-0.000759757
-0.000458576
-0.000703413
-0.000466586
-0.000646308
-0.000473932
-0.000588632
-0.000480418