/*--------------------------------*- C++ -*----------------------------------*\
  =========                 |
  \\      /  F ield         | OpenFOAM: The Open Source CFD Toolbox
   \\    /   O peration     | Website:  https://openfoam.org
    \\  /    A nd           | Version:  11
     \\/     M anipulation  |
\*---------------------------------------------------------------------------*/
FoamFile
{
    format      ascii;
    class       volVectorField;
    location    "0.2";
    object      U;
}
// * * * * * * * * * * * * * * * * * * * * * * * * * * * * * * * * * * * * * //

dimensions      [0 1 -1 0 0 0 0];

internalField   nonuniform List<vector> 
10100
(
(-0.00199333 -0.00184464 0)
(0.000324599 -0.0023767 0)
(0.000230387 -0.000553149 0)
(0.0013956 -0.000184339 0)
(0.00102522 -3.34344e-05 0)
(0.000767714 6.72037e-06 0)
(0.000530374 2.21801e-05 0)
(0.000316663 3.58441e-05 0)
(0.00013693 3.77201e-05 0)
(-4.21416e-06 2.35379e-05 0)
(-0.000107413 1.95816e-06 0)
(-0.000177091 -1.64814e-05 0)
(-0.000217712 -2.82027e-05 0)
(-0.00023339 -3.56096e-05 0)
(-0.000231031 -4.10628e-05 0)
(-0.000216989 -4.52079e-05 0)
(-0.000195954 -4.7614e-05 0)
(-0.000170014 -4.88609e-05 0)
(-0.000139168 -5.00191e-05 0)
(-0.000102359 -5.20846e-05 0)
(-5.78323e-05 -5.52771e-05 0)
(-5.67366e-06 -5.81635e-05 0)
(5.25169e-05 -5.97272e-05 0)
(0.000113927 -5.93701e-05 0)
(0.000173813 -5.62774e-05 0)
(0.00022865 -5.12427e-05 0)
(0.000276971 -4.60701e-05 0)
(0.000318819 -4.20832e-05 0)
(0.000357794 -4.07952e-05 0)
(0.000399885 -4.32792e-05 0)
(0.000449984 -4.88243e-05 0)
(0.00051126 -5.57327e-05 0)
(0.000584608 -6.21437e-05 0)
(0.000666895 -6.58756e-05 0)
(0.000751422 -6.51754e-05 0)
(0.000830324 -5.96582e-05 0)
(0.000896184 -4.9876e-05 0)
(0.00094279 -3.66757e-05 0)
(0.000965827 -2.1299e-05 0)
(0.000963076 -5.13908e-06 0)
(0.000933856 1.10715e-05 0)
(0.000878295 2.72693e-05 0)
(0.00079717 4.30508e-05 0)
(0.00069244 5.71166e-05 0)
(0.000568131 6.78342e-05 0)
(0.000430855 7.39677e-05 0)
(0.000289359 7.48569e-05 0)
(0.000153026 7.04844e-05 0)
(2.99439e-05 6.18093e-05 0)
(-7.46569e-05 5.08783e-05 0)
(-0.000159061 4.0176e-05 0)
(-0.000224689 3.15035e-05 0)
(-0.000274805 2.52735e-05 0)
(-0.000312813 2.074e-05 0)
(-0.000340985 1.68569e-05 0)
(-0.000360318 1.30549e-05 0)
(-0.000371383 9.44193e-06 0)
(-0.000375177 6.4371e-06 0)
(-0.000373273 4.27741e-06 0)
(-0.000367415 2.8328e-06 0)
(-0.000359038 1.82894e-06 0)
(-0.000349072 1.20103e-06 0)
(-0.000338178 1.2079e-06 0)
(-0.000327404 2.30091e-06 0)
(-0.000318672 4.8873e-06 0)
(-0.000314213 8.92705e-06 0)
(-0.00031522 1.35519e-05 0)
(-0.000320864 1.72446e-05 0)
(-0.000328301 1.86764e-05 0)
(-0.000333475 1.74567e-05 0)
(-0.000332311 1.40587e-05 0)
(-0.000321866 9.23214e-06 0)
(-0.000300936 3.74298e-06 0)
(-0.000269916 -1.50238e-06 0)
(-0.000230578 -5.43564e-06 0)
(-0.000186226 -7.02931e-06 0)
(-0.000141609 -5.56499e-06 0)
(-0.000102056 -8.853e-07 0)
(-7.23258e-05 6.47086e-06 0)
(-5.58078e-05 1.53998e-05 0)
(-5.40497e-05 2.46123e-05 0)
(-6.64442e-05 3.29128e-05 0)
(-9.0215e-05 3.91821e-05 0)
(-0.000120886 4.24174e-05 0)
(-0.000153016 4.20707e-05 0)
(-0.0001808 3.82338e-05 0)
(-0.000198623 3.13848e-05 0)
(-0.000201902 2.22377e-05 0)
(-0.000188093 1.20088e-05 0)
(-0.000157347 2.43426e-06 0)
(-0.000112426 -4.87761e-06 0)
(-5.80228e-05 -8.97461e-06 0)
(-1.58681e-07 -9.43665e-06 0)
(5.41443e-05 -6.1333e-06 0)
(9.76005e-05 9.25053e-07 0)
(0.000123337 1.10248e-05 0)
(0.000126509 2.23583e-05 0)
(0.000104117 3.23403e-05 0)
(5.62456e-05 3.51045e-05 0)
(2.11968e-05 1.73514e-05 0)
(-0.00255438 0.000769283 0)
(-0.00324007 -0.00256551 0)
(-0.00207244 -0.000632839 0)
(-0.00145906 -0.000124137 0)
(-0.00139387 0.00012454 0)
(-0.00138905 0.000205382 0)
(-0.00144434 0.000220667 0)
(-0.00153646 0.00021622 0)
(-0.00163952 0.000197676 0)
(-0.00173529 0.000160657 0)
(-0.00181923 0.000112315 0)
(-0.00188904 6.39973e-05 0)
(-0.00194319 2.5251e-05 0)
(-0.00198213 -2.74539e-06 0)
(-0.00200772 -2.19596e-05 0)
(-0.00202388 -3.50815e-05 0)
(-0.00203413 -4.41103e-05 0)
(-0.00204022 -5.1154e-05 0)
(-0.00204166 -5.908e-05 0)
(-0.00203784 -6.87206e-05 0)
(-0.00202838 -7.96946e-05 0)
(-0.00201298 -9.01892e-05 0)
(-0.00199328 -9.66714e-05 0)
(-0.00197192 -9.72874e-05 0)
(-0.00195109 -9.21369e-05 0)
(-0.00193355 -8.25003e-05 0)
(-0.00192077 -7.18735e-05 0)
(-0.00191035 -6.49886e-05 0)
(-0.00189904 -6.54786e-05 0)
(-0.00188419 -7.45024e-05 0)
(-0.00186105 -9.03879e-05 0)
(-0.00182558 -0.000109242 0)
(-0.00177922 -0.000125832 0)
(-0.00172661 -0.000134623 0)
(-0.00167217 -0.000131616 0)
(-0.00162227 -0.000115765 0)
(-0.00158585 -8.85438e-05 0)
(-0.00157024 -5.26874e-05 0)
(-0.00157925 -1.13814e-05 0)
(-0.00161545 3.2459e-05 0)
(-0.00168132 7.69037e-05 0)
(-0.00177733 0.000120764 0)
(-0.00190109 0.000162377 0)
(-0.00204875 0.000198786 0)
(-0.00221549 0.000226159 0)
(-0.00239452 0.000240925 0)
(-0.00257671 0.000240875 0)
(-0.00275238 0.000226137 0)
(-0.00291358 0.000199759 0)
(-0.00305497 0.00016713 0)
(-0.00317358 0.00013408 0)
(-0.00326849 0.000104715 0)
(-0.00334084 8.03761e-05 0)
(-0.00339313 6.01562e-05 0)
(-0.00342791 4.23586e-05 0)
(-0.00344686 2.59356e-05 0)
(-0.00345104 1.10952e-05 0)
(-0.00344164 -1.2744e-06 0)
(-0.00342029 -1.06938e-05 0)
(-0.00338883 -1.75147e-05 0)
(-0.00334912 -2.24542e-05 0)
(-0.00330284 -2.59518e-05 0)
(-0.00325127 -2.78522e-05 0)
(-0.00319556 -2.74305e-05 0)
(-0.00313733 -2.38752e-05 0)
(-0.0030783 -1.74305e-05 0)
(-0.00301897 -1.03678e-05 0)
(-0.00295804 -6.29403e-06 0)
(-0.00289317 -8.02408e-06 0)
(-0.00282152 -1.61102e-05 0)
(-0.00273992 -2.9214e-05 0)
(-0.00264582 -4.52919e-05 0)
(-0.0025386 -6.21058e-05 0)
(-0.00241968 -7.71068e-05 0)
(-0.00229157 -8.76186e-05 0)
(-0.00215747 -9.13887e-05 0)
(-0.0020218 -8.70375e-05 0)
(-0.00188985 -7.44737e-05 0)
(-0.00176645 -5.52532e-05 0)
(-0.00165493 -3.23059e-05 0)
(-0.00155675 -9.02009e-06 0)
(-0.00147111 1.1425e-05 0)
(-0.0013948 2.61255e-05 0)
(-0.00132299 3.26272e-05 0)
(-0.00125021 2.95916e-05 0)
(-0.00117092 1.72326e-05 0)
(-0.00107981 -2.96987e-06 0)
(-0.000972734 -2.85999e-05 0)
(-0.000847963 -5.61713e-05 0)
(-0.000706813 -8.12754e-05 0)
(-0.000553128 -9.96434e-05 0)
(-0.000392527 -0.000108353 0)
(-0.000232484 -0.00010603 0)
(-8.24324e-05 -9.18886e-05 0)
(4.65878e-05 -6.55866e-05 0)
(0.000143308 -2.83292e-05 0)
(0.000198131 1.71368e-05 0)
(0.000199204 6.55654e-05 0)
(0.000134845 0.00010157 0)
(5.3846e-05 6.60466e-05 0)
(-0.000683661 0.00102886 0)
(-0.00114737 -0.000832029 0)
(-0.00154421 -0.00051111 0)
(-0.00152532 -0.00014661 0)
(-0.00160607 8.24592e-05 0)
(-0.00169639 0.000209556 0)
(-0.00181506 0.000272412 0)
(-0.00196236 0.000296097 0)
(-0.0021277 0.000291661 0)
(-0.0022996 0.000263139 0)
(-0.00247266 0.000217522 0)
(-0.00264692 0.000167502 0)
(-0.00282031 0.00012134 0)
(-0.00298958 8.44455e-05 0)
(-0.00315232 5.7467e-05 0)
(-0.00330779 3.86281e-05 0)
(-0.00345584 2.48718e-05 0)
(-0.00359721 1.33183e-05 0)
(-0.00373275 1.03941e-06 0)
(-0.00386269 -1.37988e-05 0)
(-0.00398848 -2.93945e-05 0)
(-0.00411063 -4.31784e-05 0)
(-0.00422855 -5.28775e-05 0)
(-0.0043437 -5.54158e-05 0)
(-0.00445566 -5.01958e-05 0)
(-0.00456189 -4.04208e-05 0)
(-0.00466283 -3.04309e-05 0)
(-0.00475914 -2.50707e-05 0)
(-0.00484903 -2.89583e-05 0)
(-0.00493251 -4.35788e-05 0)
(-0.00501131 -6.64403e-05 0)
(-0.00508573 -9.24749e-05 0)
(-0.0051561 -0.000114866 0)
(-0.00522393 -0.00012635 0)
(-0.00529045 -0.000121829 0)
(-0.00535684 -9.9848e-05 0)
(-0.00542538 -6.18911e-05 0)
(-0.00549853 -1.12321e-05 0)
(-0.00557817 4.78579e-05 0)
(-0.00566621 0.000111153 0)
(-0.00576426 0.000175402 0)
(-0.0058722 0.000238081 0)
(-0.00598789 0.000296184 0)
(-0.00610854 0.000345459 0)
(-0.00623148 0.000380841 0)
(-0.00635383 0.000397712 0)
(-0.00647234 0.000393389 0)
(-0.00658414 0.000368388 0)
(-0.00668709 0.000326897 0)
(-0.00677921 0.000275814 0)
(-0.00685789 0.000222475 0)
(-0.00692034 0.000172297 0)
(-0.00696477 0.000127647 0)
(-0.00699103 8.8289e-05 0)
(-0.00700011 5.28108e-05 0)
(-0.00699323 2.01493e-05 0)
(-0.00697144 -9.5759e-06 0)
(-0.00693554 -3.53913e-05 0)
(-0.00688607 -5.66211e-05 0)
(-0.00682357 -7.3586e-05 0)
(-0.00674913 -8.7128e-05 0)
(-0.00666428 -9.77816e-05 0)
(-0.0065703 -0.000105475 0)
(-0.00646778 -0.000109676 0)
(-0.00635701 -0.000109893 0)
(-0.00623788 -0.000106806 0)
(-0.00610963 -0.000103371 0)
(-0.00597157 -0.000104129 0)
(-0.00582406 -0.000112609 0)
(-0.00566782 -0.000129432 0)
(-0.00550262 -0.000152841 0)
(-0.00532776 -0.000180147 0)
(-0.0051437 -0.000208256 0)
(-0.00495192 -0.000233626 0)
(-0.00475361 -0.000252593 0)
(-0.00454951 -0.000262059 0)
(-0.00434082 -0.000260135 0)
(-0.0041291 -0.000246765 0)
(-0.00391557 -0.000224136 0)
(-0.00370099 -0.000196225 0)
(-0.00348606 -0.000167579 0)
(-0.00327074 -0.000142553 0)
(-0.00305365 -0.000125327 0)
(-0.00283304 -0.000119469 0)
(-0.0026079 -0.000126754 0)
(-0.0023776 -0.000146628 0)
(-0.00214094 -0.000176849 0)
(-0.0018968 -0.000213976 0)
(-0.00164581 -0.000253058 0)
(-0.00139032 -0.000287737 0)
(-0.00113314 -0.000311647 0)
(-0.000877318 -0.000320103 0)
(-0.000627527 -0.000310135 0)
(-0.000391361 -0.000279313 0)
(-0.00017901 -0.000225786 0)
(-1.93065e-06 -0.000148713 0)
(0.000127007 -4.91186e-05 0)
(0.000188025 7.03654e-05 0)
(0.00015205 0.000184587 0)
(6.62244e-05 0.000151691 0)
(-0.000297147 0.0024624 0)
(-0.000546036 0.000263174 0)
(-0.00102324 2.95421e-05 0)
(-0.00120909 0.000169653 0)
(-0.00141407 0.000305281 0)
(-0.00162296 0.000409116 0)
(-0.00183989 0.000471486 0)
(-0.00206877 0.000499121 0)
(-0.00231257 0.00049956 0)
(-0.00256976 0.000479591 0)
(-0.0028365 0.000443298 0)
(-0.00310958 0.000398299 0)
(-0.00338702 0.000352921 0)
(-0.00366534 0.000312944 0)
(-0.00394133 0.000280604 0)
(-0.00421249 0.000255724 0)
(-0.0044768 0.000235604 0)
(-0.00473383 0.000217067 0)
(-0.00498475 0.000198776 0)
(-0.00522953 0.000179546 0)
(-0.0054691 0.000159462 0)
(-0.00570545 0.000141381 0)
(-0.00593748 0.000127857 0)
(-0.00616312 0.000119965 0)
(-0.00638144 0.000118041 0)
(-0.00659107 0.000120123 0)
(-0.00679056 0.000121815 0)
(-0.00697933 0.000118761 0)
(-0.00715878 0.000107919 0)
(-0.00733209 8.80341e-05 0)
(-0.00750118 6.09853e-05 0)
(-0.00766661 3.19915e-05 0)
(-0.00782997 7.66934e-06 0)
(-0.00799207 -5.91479e-06 0)
(-0.00815063 -4.19821e-06 0)
(-0.00830323 1.50092e-05 0)
(-0.00844968 5.08759e-05 0)
(-0.00859017 0.000100131 0)
(-0.00872408 0.000158549 0)
(-0.00885156 0.000222027 0)
(-0.00897378 0.000286776 0)
(-0.00909081 0.000349096 0)
(-0.0092008 0.000405082 0)
(-0.00930183 0.000450369 0)
(-0.00939323 0.000480237 0)
(-0.00947526 0.000490478 0)
(-0.00954828 0.000478805 0)
(-0.00961291 0.000446028 0)
(-0.00967001 0.000396211 0)
(-0.00971979 0.000335594 0)
(-0.00976079 0.00027074 0)
(-0.00979014 0.000206817 0)
(-0.00980512 0.000146759 0)
(-0.00980448 9.13768e-05 0)
(-0.00978834 4.01558e-05 0)
(-0.00975731 -7.60483e-06 0)
(-0.00971184 -5.18911e-05 0)
(-0.00965201 -9.19659e-05 0)
(-0.00957757 -0.00012717 0)
(-0.00948832 -0.000157548 0)
(-0.00938482 -0.000183618 0)
(-0.00926839 -0.000205836 0)
(-0.00913996 -0.000224413 0)
(-0.00899946 -0.000239303 0)
(-0.00884639 -0.000250465 0)
(-0.00868015 -0.000258825 0)
(-0.00850009 -0.000267141 0)
(-0.00830622 -0.000279318 0)
(-0.00810007 -0.000298335 0)
(-0.00788379 -0.00032479 0)
(-0.00765845 -0.000357221 0)
(-0.00742431 -0.000393072 0)
(-0.00718236 -0.000429128 0)
(-0.006934 -0.00046179 0)
(-0.00667942 -0.000487599 0)
(-0.00641771 -0.000503679 0)
(-0.00614824 -0.000508204 0)
(-0.00587076 -0.000501191 0)
(-0.00558462 -0.000484928 0)
(-0.00528912 -0.000463328 0)
(-0.00498442 -0.000440803 0)
(-0.00467114 -0.000421726 0)
(-0.00434944 -0.000410314 0)
(-0.0040195 -0.000410042 0)
(-0.00368275 -0.00042256 0)
(-0.00334141 -0.000447219 0)
(-0.00299706 -0.000481536 0)
(-0.0026506 -0.000521645 0)
(-0.00230365 -0.000562171 0)
(-0.00195894 -0.000596366 0)
(-0.00161913 -0.000617281 0)
(-0.00128638 -0.000619112 0)
(-0.000963825 -0.000597034 0)
(-0.000657808 -0.000546422 0)
(-0.000378114 -0.000462795 0)
(-0.000137099 -0.000341489 0)
(5.06779e-05 -0.000178604 0)
(0.000160255 3.03831e-05 0)
(0.000152194 0.000253603 0)
(7.14262e-05 0.000245897 0)
(-9.88856e-05 0.00229488 0)
(-0.000238793 0.000734629 0)
(-0.000713846 0.000463415 0)
(-0.00100013 0.000529457 0)
(-0.00127366 0.000611555 0)
(-0.0015548 0.000691325 0)
(-0.00184667 0.00075165 0)
(-0.00214741 0.000784191 0)
(-0.00245913 0.000791318 0)
(-0.00278366 0.000777333 0)
(-0.00312065 0.000749682 0)
(-0.00346725 0.000712601 0)
(-0.00382028 0.000672616 0)
(-0.00417652 0.000634422 0)
(-0.00453222 0.000600006 0)
(-0.00488487 0.000569928 0)
(-0.00523283 0.000543851 0)
(-0.00557389 0.000519278 0)
(-0.00590806 0.00049431 0)
(-0.0062369 0.000469245 0)
(-0.00656059 0.000444455 0)
(-0.0068783 0.000420919 0)
(-0.00718977 0.000400845 0)
(-0.00749467 0.000385378 0)
(-0.0077902 0.000373846 0)
(-0.00807355 0.000364703 0)
(-0.00834512 0.000355224 0)
(-0.00860549 0.00034175 0)
(-0.00885488 0.000321777 0)
(-0.00909602 0.000295248 0)
(-0.00933194 0.000264205 0)
(-0.0095636 0.000232429 0)
(-0.00979157 0.000205123 0)
(-0.0100156 0.000187657 0)
(-0.0102332 0.000183937 0)
(-0.0104411 0.00019555 0)
(-0.0106377 0.000221846 0)
(-0.0108216 0.000260425 0)
(-0.0109912 0.000307756 0)
(-0.011146 0.000359854 0)
(-0.0112865 0.000412797 0)
(-0.0114125 0.000462838 0)
(-0.0115224 0.00050611 0)
(-0.0116156 0.000538388 0)
(-0.0116927 0.000555405 0)
(-0.0117555 0.000553759 0)
(-0.0118055 0.000531914 0)
(-0.0118447 0.000490775 0)
(-0.0118751 0.000433606 0)
(-0.0118982 0.000365335 0)
(-0.0119132 0.000291376 0)
(-0.0119179 0.000216349 0)
(-0.0119098 0.000143289 0)
(-0.0118876 7.35773e-05 0)
(-0.0118512 7.41658e-06 0)
(-0.0118009 -5.53583e-05 0)
(-0.0117361 -0.000114517 0)
(-0.0116563 -0.000169329 0)
(-0.0115611 -0.000219176 0)
(-0.01145 -0.000264095 0)
(-0.0113233 -0.000304576 0)
(-0.011182 -0.000341043 0)
(-0.0110267 -0.000373755 0)
(-0.0108569 -0.000402944 0)
(-0.0106716 -0.00042894 0)
(-0.0104705 -0.000452709 0)
(-0.0102537 -0.000476499 0)
(-0.0100215 -0.000503313 0)
(-0.0097755 -0.000535321 0)
(-0.009518 -0.000572816 0)
(-0.00925042 -0.000614506 0)
(-0.00897341 -0.000658254 0)
(-0.00868806 -0.000701385 0)
(-0.00839562 -0.000740838 0)
(-0.00809589 -0.000773618 0)
(-0.00778715 -0.00079735 0)
(-0.00746801 -0.000810706 0)
(-0.00713779 -0.00081391 0)
(-0.0067955 -0.000809008 0)
(-0.00643985 -0.000799345 0)
(-0.00607071 -0.000788693 0)
(-0.00568904 -0.000780864 0)
(-0.00529586 -0.000779553 0)
(-0.00489232 -0.00078765 0)
(-0.00448081 -0.000806315 0)
(-0.00406467 -0.00083472 0)
(-0.00364664 -0.000870427 0)
(-0.00322856 -0.000909637 0)
(-0.00281264 -0.000947044 0)
(-0.00240179 -0.000975979 0)
(-0.00199885 -0.000989337 0)
(-0.00160593 -0.000980415 0)
(-0.00122588 -0.000942695 0)
(-0.000864956 -0.000869208 0)
(-0.000532966 -0.000752087 0)
(-0.000243121 -0.000582448 0)
(-1.18702e-05 -0.000349137 0)
(0.000133228 -3.89249e-05 0)
(0.000147218 0.000311037 0)
(7.32747e-05 0.000339527 0)
(-4.00989e-07 0.00218063 0)
(-8.31195e-05 0.00107901 0)
(-0.000513671 0.000839232 0)
(-0.000851265 0.000896215 0)
(-0.00117384 0.000964861 0)
(-0.0015028 0.0010334 0)
(-0.00184751 0.00109097 0)
(-0.00220406 0.00112866 0)
(-0.00257191 0.00114403 0)
(-0.00295116 0.00113885 0)
(-0.00334205 0.00111899 0)
(-0.00374348 0.00108991 0)
(-0.00415163 0.00105538 0)
(-0.00456431 0.00101924 0)
(-0.00497836 0.00098462 0)
(-0.00538972 0.000951644 0)
(-0.00579666 0.000919879 0)
(-0.00619905 0.000889174 0)
(-0.00659543 0.000858321 0)
(-0.00698454 0.000826894 0)
(-0.00736768 0.000795866 0)
(-0.00774529 0.000765987 0)
(-0.00811511 0.000738028 0)
(-0.00847573 0.000713061 0)
(-0.00882606 0.000690963 0)
(-0.00916432 0.000669974 0)
(-0.00949006 0.000647851 0)
(-0.00980335 0.000622646 0)
(-0.0101048 0.000593015 0)
(-0.0103972 0.000558771 0)
(-0.0106827 0.000521505 0)
(-0.0109613 0.000484545 0)
(-0.0112336 0.00045204 0)
(-0.0114994 0.000427868 0)
(-0.0117557 0.000414951 0)
(-0.011999 0.000414765 0)
(-0.0122276 0.000426964 0)
(-0.0124397 0.000449503 0)
(-0.0126333 0.000479349 0)
(-0.0128071 0.000513174 0)
(-0.0129613 0.00054757 0)
(-0.0130955 0.000578953 0)
(-0.0132089 0.00060354 0)
(-0.0133013 0.000617543 0)
(-0.013374 0.00061754 0)
(-0.0134291 0.000600996 0)
(-0.0134688 0.000566796 0)
(-0.0134954 0.000515605 0)
(-0.0135114 0.000449885 0)
(-0.0135184 0.000373483 0)
(-0.0135164 0.00029079 0)
(-0.0135037 0.000205709 0)
(-0.0134784 0.000120973 0)
(-0.0134397 3.81226e-05 0)
(-0.0133877 -4.21243e-05 0)
(-0.0133219 -0.000119419 0)
(-0.0132415 -0.000193307 0)
(-0.0131455 -0.00026308 0)
(-0.0130332 -0.000328181 0)
(-0.0129045 -0.000388656 0)
(-0.0127595 -0.000445001 0)
(-0.0125987 -0.00049762 0)
(-0.0124225 -0.000546674 0)
(-0.0122301 -0.000592396 0)
(-0.0120205 -0.000635298 0)
(-0.0117937 -0.000676325 0)
(-0.0115503 -0.000717147 0)
(-0.0112911 -0.000759894 0)
(-0.0110173 -0.000806041 0)
(-0.0107305 -0.000855633 0)
(-0.0104324 -0.000907568 0)
(-0.0101238 -0.000960164 0)
(-0.00980574 -0.00101135 0)
(-0.00947919 -0.00105873 0)
(-0.00914364 -0.00109994 0)
(-0.00879731 -0.00113309 0)
(-0.00843879 -0.00115728 0)
(-0.00806746 -0.00117293 0)
(-0.0076823 -0.00118177 0)
(-0.00728194 -0.00118647 0)
(-0.00686621 -0.00119 0)
(-0.00643646 -0.00119543 0)
(-0.00599417 -0.0012057 0)
(-0.00554065 -0.00122306 0)
(-0.00507836 -0.00124831 0)
(-0.00461107 -0.00128042 0)
(-0.00414226 -0.00131694 0)
(-0.00367412 -0.00135421 0)
(-0.00320866 -0.00138719 0)
(-0.00274882 -0.00140939 0)
(-0.00229792 -0.00141353 0)
(-0.00185856 -0.00139206 0)
(-0.00143374 -0.00133667 0)
(-0.00102968 -0.00123808 0)
(-0.000656998 -0.00108459 0)
(-0.000329528 -0.000862288 0)
(-6.46796e-05 -0.000552914 0)
(0.000107379 -0.000132379 0)
(0.000139388 0.000356369 0)
(7.3277e-05 0.000429447 0)
(3.75848e-05 0.00207522 0)
(-7.27358e-06 0.0013493 0)
(-0.000384146 0.00118013 0)
(-0.000737971 0.00125591 0)
(-0.00109786 0.00133898 0)
(-0.00146367 0.00141439 0)
(-0.00184687 0.00147635 0)
(-0.00224555 0.00152063 0)
(-0.00265746 0.00154428 0)
(-0.00308061 0.00154981 0)
(-0.00351362 0.00153839 0)
(-0.00395663 0.00151615 0)
(-0.00440746 0.00148715 0)
(-0.00486172 0.00145384 0)
(-0.00531701 0.00141875 0)
(-0.00577211 0.00138338 0)
(-0.00622388 0.00134736 0)
(-0.00666993 0.00131073 0)
(-0.00711028 0.0012738 0)
(-0.00754458 0.00123615 0)
(-0.00797212 0.00119788 0)
(-0.00839218 0.00116012 0)
(-0.00880352 0.00112379 0)
(-0.00920542 0.00108897 0)
(-0.00959642 0.00105521 0)
(-0.00997462 0.00102169 0)
(-0.0103401 0.000987099 0)
(-0.010693 0.000949899 0)
(-0.0110336 0.00090928 0)
(-0.0113636 0.000865585 0)
(-0.0116849 0.000820239 0)
(-0.011997 0.000775646 0)
(-0.0123002 0.000734869 0)
(-0.0125941 0.000700928 0)
(-0.0128758 0.000676081 0)
(-0.0131421 0.000661332 0)
(-0.0133915 0.000656267 0)
(-0.0136224 0.000659308 0)
(-0.0138321 0.000668181 0)
(-0.0140192 0.000680215 0)
(-0.0141837 0.000692385 0)
(-0.0143256 0.000701385 0)
(-0.0144442 0.00070389 0)
(-0.0145395 0.000696813 0)
(-0.014613 0.000677484 0)
(-0.014667 0.000643897 0)
(-0.0147037 0.000595113 0)
(-0.0147254 0.000531595 0)
(-0.0147345 0.000455244 0)
(-0.0147326 0.000369073 0)
(-0.0147199 0.000276555 0)
(-0.0146955 0.000180844 0)
(-0.0146582 8.42563e-05 0)
(-0.0146074 -1.1688e-05 0)
(-0.0145432 -0.000105954 0)
(-0.0144653 -0.000197791 0)
(-0.0143724 -0.000286573 0)
(-0.0142632 -0.000371662 0)
(-0.0141373 -0.000452599 0)
(-0.0139946 -0.00052943 0)
(-0.0138351 -0.000602589 0)
(-0.0136592 -0.000672426 0)
(-0.0134667 -0.000739024 0)
(-0.0132568 -0.000802501 0)
(-0.0130289 -0.000863321 0)
(-0.012783 -0.000922367 0)
(-0.0125203 -0.00098091 0)
(-0.0122414 -0.00104034 0)
(-0.0119472 -0.0011015 0)
(-0.0116391 -0.00116422 0)
(-0.0113184 -0.00122761 0)
(-0.0109859 -0.00129051 0)
(-0.0106428 -0.00135135 0)
(-0.0102897 -0.00140821 0)
(-0.00992607 -0.00145926 0)
(-0.00955014 -0.00150325 0)
(-0.00916072 -0.00153967 0)
(-0.0087576 -0.00156888 0)
(-0.00834 -0.00159226 0)
(-0.00790656 -0.00161191 0)
(-0.00745709 -0.00163018 0)
(-0.00699312 -0.00164941 0)
(-0.00651644 -0.00167175 0)
(-0.00602851 -0.00169879 0)
(-0.00553159 -0.0017309 0)
(-0.00502921 -0.00176697 0)
(-0.0045249 -0.00180457 0)
(-0.00402108 -0.00184013 0)
(-0.00351978 -0.00186873 0)
(-0.0030239 -0.00188392 0)
(-0.002537 -0.00187826 0)
(-0.00206192 -0.00184328 0)
(-0.00160218 -0.00176899 0)
(-0.00116444 -0.00164334 0)
(-0.000759574 -0.00145118 0)
(-0.000402596 -0.00117281 0)
(-0.000111627 -0.000782551 0)
(8.19182e-05 -0.000245514 0)
(0.000129751 0.000389894 0)
(7.19557e-05 0.000513885 0)
(3.95991e-05 0.00198646 0)
(1.83442e-05 0.00157554 0)
(-0.000305631 0.00150409 0)
(-0.000654991 0.00161467 0)
(-0.00103692 0.00172604 0)
(-0.00143206 0.00182088 0)
(-0.00184597 0.001896 0)
(-0.00227711 0.00195084 0)
(-0.00272206 0.00198417 0)
(-0.00317953 0.00199856 0)
(-0.00364768 0.00199656 0)
(-0.004123 0.0019812 0)
(-0.00460495 0.00195666 0)
(-0.00509176 0.00192617 0)
(-0.00557977 0.00189108 0)
(-0.00606643 0.00185306 0)
(-0.00655026 0.00181332 0)
(-0.00702969 0.00177179 0)
(-0.00750335 0.0017284 0)
(-0.0079701 0.00168369 0)
(-0.00842966 0.00163819 0)
(-0.00888142 0.00159228 0)
(-0.00932371 0.00154643 0)
(-0.00975575 0.00150095 0)
(-0.0101765 0.00145556 0)
(-0.0105845 0.00140954 0)
(-0.0109798 0.00136203 0)
(-0.0113622 0.00131226 0)
(-0.0117315 0.00125996 0)
(-0.0120891 0.00120548 0)
(-0.0124364 0.00114991 0)
(-0.0127725 0.00109516 0)
(-0.0130972 0.00104368 0)
(-0.0134101 0.000997648 0)
(-0.0137089 0.000958529 0)
(-0.0139905 0.000926933 0)
(-0.0142538 0.000902597 0)
(-0.0144971 0.000884432 0)
(-0.0147178 0.000870679 0)
(-0.0149144 0.000859095 0)
(-0.0150872 0.000847073 0)
(-0.0152361 0.000831832 0)
(-0.0153605 0.000810655 0)
(-0.0154604 0.000781073 0)
(-0.0155373 0.000740925 0)
(-0.0155938 0.000688542 0)
(-0.0156317 0.000623133 0)
(-0.0156529 0.000545073 0)
(-0.0156597 0.000455878 0)
(-0.0156534 0.000357888 0)
(-0.0156346 0.00025379 0)
(-0.0156028 0.000146076 0)
(-0.0155573 3.66881e-05 0)
(-0.0154979 -7.29357e-05 0)
(-0.0154247 -0.00018162 0)
(-0.0153373 -0.000288382 0)
(-0.0152344 -0.000392493 0)
(-0.0151147 -0.000493395 0)
(-0.0149779 -0.000590726 0)
(-0.0148241 -0.000684518 0)
(-0.0146534 -0.000775112 0)
(-0.0144655 -0.000862721 0)
(-0.0142603 -0.000947317 0)
(-0.014037 -0.00102896 0)
(-0.013795 -0.00110806 0)
(-0.0135348 -0.00118532 0)
(-0.0132576 -0.00126168 0)
(-0.012964 -0.00133802 0)
(-0.0126545 -0.00141473 0)
(-0.01233 -0.00149148 0)
(-0.011992 -0.00156756 0)
(-0.0116413 -0.00164216 0)
(-0.0112787 -0.00171418 0)
(-0.0109046 -0.00178211 0)
(-0.0105188 -0.00184446 0)
(-0.0101197 -0.0019004 0)
(-0.00970635 -0.00194982 0)
(-0.00927872 -0.0019931 0)
(-0.00883637 -0.00203121 0)
(-0.00837818 -0.00206571 0)
(-0.00790407 -0.00209849 0)
(-0.00741567 -0.00213132 0)
(-0.00691484 -0.00216567 0)
(-0.00640284 -0.00220253 0)
(-0.0058816 -0.0022419 0)
(-0.00535458 -0.00228249 0)
(-0.00482537 -0.00232183 0)
(-0.00429624 -0.00235639 0)
(-0.00376881 -0.00238123 0)
(-0.00324601 -0.00238987 0)
(-0.00273176 -0.00237451 0)
(-0.00222934 -0.00232555 0)
(-0.00174243 -0.00223158 0)
(-0.00127812 -0.00207776 0)
(-0.000847947 -0.00184496 0)
(-0.000467171 -0.00150808 0)
(-0.000154762 -0.00103334 0)
(5.67443e-05 -0.00037525 0)
(0.000119023 0.000411763 0)
(6.98775e-05 0.000592055 0)
(3.4854e-05 0.00190881 0)
(2.07157e-05 0.00176742 0)
(-0.000259983 0.00181371 0)
(-0.000596969 0.00197573 0)
(-0.00098944 0.00212397 0)
(-0.00140563 0.00224683 0)
(-0.00184308 0.00234171 0)
(-0.00230011 0.00241027 0)
(-0.00277304 0.00245595 0)
(-0.00325717 0.00247934 0)
(-0.00375123 0.00248555 0)
(-0.00425371 0.00247706 0)
(-0.00476173 0.00245675 0)
(-0.00527292 0.00242798 0)
(-0.00578545 0.00239308 0)
(-0.00629723 0.00235324 0)
(-0.00680599 0.00230948 0)
(-0.00731002 0.00226269 0)
(-0.00780834 0.00221328 0)
(-0.00829976 0.00216154 0)
(-0.00878353 0.00210798 0)
(-0.0092588 0.00205317 0)
(-0.00972403 0.00199751 0)
(-0.0101788 0.00194105 0)
(-0.0106222 0.00188355 0)
(-0.0110527 0.00182472 0)
(-0.0114701 0.00176422 0)
(-0.0118744 0.0017016 0)
(-0.0122651 0.00163673 0)
(-0.0126432 0.00157004 0)
(-0.0130094 0.00150258 0)
(-0.0133625 0.00143591 0)
(-0.0137021 0.00137178 0)
(-0.0140284 0.00131162 0)
(-0.0143389 0.00125636 0)
(-0.0146311 0.00120647 0)
(-0.0149038 0.00116186 0)
(-0.0151555 0.0011217 0)
(-0.015384 0.00108452 0)
(-0.0155879 0.00104846 0)
(-0.0157674 0.00101143 0)
(-0.0159226 0.000971241 0)
(-0.0160528 0.000925711 0)
(-0.0161579 0.000872812 0)
(-0.0162397 0.000810751 0)
(-0.0163004 0.000738146 0)
(-0.0163417 0.000654375 0)
(-0.016365 0.00055981 0)
(-0.0163721 0.000455691 0)
(-0.0163644 0.000343807 0)
(-0.0163426 0.000226203 0)
(-0.0163064 0.000104844 0)
(-0.0162557 -1.86277e-05 0)
(-0.0161903 -0.000142881 0)
(-0.0161104 -0.000266718 0)
(-0.0160156 -0.000389064 0)
(-0.0159048 -0.000509138 0)
(-0.0157769 -0.000626468 0)
(-0.0156314 -0.000740762 0)
(-0.0154689 -0.000851976 0)
(-0.0152892 -0.000960317 0)
(-0.0150919 -0.00106589 0)
(-0.0148766 -0.00116855 0)
(-0.0146426 -0.00126829 0)
(-0.0143897 -0.0013655 0)
(-0.0141186 -0.00146081 0)
(-0.0138303 -0.00155483 0)
(-0.0135254 -0.00164803 0)
(-0.0132038 -0.00174053 0)
(-0.0128666 -0.00183196 0)
(-0.012515 -0.00192179 0)
(-0.0121499 -0.00200944 0)
(-0.0117719 -0.002094 0)
(-0.0113812 -0.00217424 0)
(-0.0109775 -0.00224907 0)
(-0.01056 -0.002318 0)
(-0.0101279 -0.00238106 0)
(-0.0096813 -0.00243858 0)
(-0.00922001 -0.00249127 0)
(-0.0087432 -0.00254036 0)
(-0.00825091 -0.00258734 0)
(-0.00774469 -0.00263349 0)
(-0.00722641 -0.00267973 0)
(-0.00669734 -0.00272653 0)
(-0.00615909 -0.00277355 0)
(-0.00561462 -0.00281933 0)
(-0.00506737 -0.00286127 0)
(-0.00451958 -0.00289573 0)
(-0.0039728 -0.00291762 0)
(-0.00342994 -0.00292038 0)
(-0.00289489 -0.00289569 0)
(-0.00237123 -0.002833 0)
(-0.00186317 -0.00271896 0)
(-0.0013778 -0.00253627 0)
(-0.000927004 -0.00226182 0)
(-0.00052668 -0.00186455 0)
(-0.000196045 -0.00130312 0)
(3.16467e-05 -0.000520835 0)
(0.000107798 0.000421476 0)
(6.75483e-05 0.00066358 0)
(3.77548e-05 0.00183777 0)
(2.26214e-05 0.00193083 0)
(-0.000230014 0.00210706 0)
(-0.000558283 0.00233853 0)
(-0.000952337 0.00253184 0)
(-0.00138262 0.00268772 0)
(-0.00184044 0.00280713 0)
(-0.00231764 0.0028932 0)
(-0.00281148 0.00295183 0)
(-0.00331861 0.00298632 0)
(-0.00383487 0.0030001 0)
(-0.0043584 0.00299721 0)
(-0.00488708 0.00298114 0)
(-0.00541886 0.00295421 0)
(-0.0059514 0.00291873 0)
(-0.00648264 0.00287668 0)
(-0.00701074 0.00282929 0)
(-0.00753418 0.0027773 0)
(-0.0080518 0.00272135 0)
(-0.00856209 0.00266213 0)
(-0.00906424 0.00260028 0)
(-0.00955754 0.00253617 0)
(-0.0100406 0.00247004 0)
(-0.0105129 0.00240205 0)
(-0.0109736 0.00233227 0)
(-0.011421 0.00226065 0)
(-0.0118554 0.00218696 0)
(-0.0122764 0.00211093 0)
(-0.0126831 0.00203269 0)
(-0.0130764 0.00195284 0)
(-0.0134564 0.00187231 0)
(-0.0138217 0.00179222 0)
(-0.0141722 0.00171373 0)
(-0.0145081 0.00163779 0)
(-0.0148271 0.00156512 0)
(-0.0151266 0.00149612 0)
(-0.0154059 0.00143067 0)
(-0.0156638 0.00136807 0)
(-0.0158983 0.00130712 0)
(-0.0161079 0.00124637 0)
(-0.0162931 0.00118424 0)
(-0.0164539 0.00111902 0)
(-0.0165895 0.00104892 0)
(-0.0167001 0.000972249 0)
(-0.0167874 0.000887527 0)
(-0.0168533 0.000793672 0)
(-0.0168991 0.000690247 0)
(-0.0169257 0.000577642 0)
(-0.0169346 0.000456894 0)
(-0.0169274 0.000329354 0)
(-0.0169045 0.000196539 0)
(-0.0168661 6.00107e-05 0)
(-0.0168122 -7.88206e-05 0)
(-0.0167427 -0.000218732 0)
(-0.0166579 -0.000358574 0)
(-0.0165574 -0.000497281 0)
(-0.0164404 -0.00063406 0)
(-0.0163059 -0.000768473 0)
(-0.0161536 -0.000900284 0)
(-0.0159839 -0.00102935 0)
(-0.015797 -0.00115567 0)
(-0.015592 -0.00127923 0)
(-0.0153685 -0.00139988 0)
(-0.015126 -0.00151755 0)
(-0.0148645 -0.00163263 0)
(-0.0145847 -0.00174568 0)
(-0.0142877 -0.00185709 0)
(-0.0139737 -0.00196705 0)
(-0.0136425 -0.0020755 0)
(-0.013295 -0.00218211 0)
(-0.0129325 -0.00228646 0)
(-0.0125559 -0.00238813 0)
(-0.0121652 -0.00248638 0)
(-0.0117608 -0.00258007 0)
(-0.0113429 -0.00266835 0)
(-0.0109106 -0.00275101 0)
(-0.0104636 -0.00282825 0)
(-0.0100019 -0.00290026 0)
(-0.00952584 -0.0029675 0)
(-0.00903478 -0.00303094 0)
(-0.00852886 -0.0030918 0)
(-0.00800955 -0.00315098 0)
(-0.00747859 -0.00320894 0)
(-0.00693703 -0.00326571 0)
(-0.00638619 -0.00332066 0)
(-0.00582888 -0.00337206 0)
(-0.00526842 -0.00341721 0)
(-0.0047068 -0.00345231 0)
(-0.00414536 -0.00347212 0)
(-0.00358702 -0.00346982 0)
(-0.00303592 -0.00343636 0)
(-0.00249575 -0.00336021 0)
(-0.00197086 -0.00322629 0)
(-0.00146876 -0.00301444 0)
(-0.00100117 -0.00269788 0)
(-0.00058423 -0.00223957 0)
(-0.000237426 -0.0015902 0)
(5.51545e-06 -0.000681959 0)
(9.55826e-05 0.00041864 0)
(6.49138e-05 0.000728151 0)
(4.58513e-05 0.00177213 0)
(2.83774e-05 0.00207704 0)
(-0.000205407 0.00238577 0)
(-0.000529225 0.00270021 0)
(-0.00092536 0.00294791 0)
(-0.00136402 0.00314105 0)
(-0.00183581 0.00328776 0)
(-0.00233086 0.00339508 0)
(-0.00284296 0.00346771 0)
(-0.00336813 0.00351313 0)
(-0.00390292 0.0035351 0)
(-0.00444459 0.00353789 0)
(-0.00499093 0.00352492 0)
(-0.00553979 0.00349916 0)
(-0.0060888 0.00346312 0)
(-0.00663618 0.00341866 0)
(-0.00718029 0.00336709 0)
(-0.0077195 0.00330951 0)
(-0.00825247 0.00324689 0)
(-0.00877772 0.00317998 0)
(-0.00929457 0.00310933 0)
(-0.00980236 0.00303529 0)
(-0.0102995 0.00295828 0)
(-0.0107856 0.00287864 0)
(-0.0112598 0.00279651 0)
(-0.0117206 0.00271187 0)
(-0.0121682 0.00262462 0)
(-0.0126022 0.00253475 0)
(-0.0130211 0.00244264 0)
(-0.0134257 0.00234889 0)
(-0.013816 0.00225417 0)
(-0.0141906 0.00215924 0)
(-0.0145494 0.00206495 0)
(-0.0148924 0.00197204 0)
(-0.0152177 0.00188106 0)
(-0.0155227 0.00179228 0)
(-0.015807 0.00170555 0)
(-0.0160698 0.00162027 0)
(-0.0163091 0.00153553 0)
(-0.0165235 0.00145029 0)
(-0.0167135 0.00136333 0)
(-0.0168793 0.00127329 0)
(-0.0170203 0.00117868 0)
(-0.0171364 0.0010781 0)
(-0.0172293 0.000970361 0)
(-0.0173007 0.000854702 0)
(-0.0173513 0.00073086 0)
(-0.0173817 0.00059921 0)
(-0.0173933 0.000460617 0)
(-0.0173875 0.000316108 0)
(-0.017365 0.000166772 0)
(-0.0173259 1.38352e-05 0)
(-0.0172702 -0.000141455 0)
(-0.017198 -0.000297971 0)
(-0.0171096 -0.000454654 0)
(-0.0170048 -0.000610503 0)
(-0.0168828 -0.000764742 0)
(-0.016743 -0.000916922 0)