/*--------------------------------*- C++ -*----------------------------------*\
  =========                 |
  \\      /  F ield         | OpenFOAM: The Open Source CFD Toolbox
   \\    /   O peration     | Website:  https://openfoam.org
    \\  /    A nd           | Version:  11
     \\/     M anipulation  |
\*---------------------------------------------------------------------------*/
FoamFile
{
    format      ascii;
    class       volScalarField;
    location    "1.3";
    object      p;
}
// * * * * * * * * * * * * * * * * * * * * * * * * * * * * * * * * * * * * * //

dimensions      [0 2 -2 0 0 0 0];

internalField   nonuniform List<scalar> 
10100
(
6.02375e-08
-0.000274511
-0.000480111
0.000379012
0.00219794
0.00459958
0.00726261
0.0100044
0.0127015
0.0152829
0.0177252
0.0200097
0.0221492
0.0241728
0.0260799
0.0278686
0.0295433
0.0310874
0.0325307
0.033903
0.0352139
0.0364783
0.0377358
0.0390084
0.040317
0.0416919
0.0431542
0.0447191
0.0464047
0.0482242
0.0501788
0.0522631
0.054468
0.0567788
0.0591814
0.0616702
0.0642461
0.0669039
0.0696338
0.0724381
0.0753234
0.0782834
0.0813008
0.0843536
0.0874279
0.0905227
0.0936393
0.0967821
0.0999586
0.103161
0.106367
0.109553
0.11271
0.115845
0.118973
0.122094
0.125192
0.128256
0.131275
0.134235
0.137125
0.139941
0.142684
0.145368
0.148005
0.150589
0.153095
0.155502
0.157802
0.159986
0.162039
0.163946
0.165702
0.167298
0.168724
0.169977
0.17105
0.171932
0.17261
0.173092
0.173401
0.173548
0.173529
0.173335
0.172975
0.172472
0.171846
0.171104
0.170247
0.169274
0.1682
0.167053
0.165877
0.164716
0.163613
0.162603
0.161732
0.161075
0.16076
0.160939
4.78014e-06
0.00145127
0.00254255
0.00411125
0.0061754
0.00844044
0.0107853
0.0131141
0.0153915
0.0175835
0.0196754
0.0216747
0.0235794
0.0253849
0.0271097
0.0287633
0.0303297
0.031807
0.0332072
0.03454
0.0358287
0.0371031
0.0383856
0.0397083
0.0410871
0.0425292
0.0440486
0.0456578
0.0473671
0.0491868
0.0511246
0.0531835
0.0553583
0.0576331
0.0599938
0.0624388
0.0649697
0.0675806
0.0702658
0.0730253
0.0758614
0.0787668
0.0817244
0.0847212
0.0877484
0.0907934
0.0938538
0.0969424
0.100064
0.10321
0.10636
0.109482
0.112563
0.115623
0.118673
0.121705
0.124711
0.127689
0.130621
0.133487
0.136277
0.138991
0.141628
0.144208
0.14675
0.14924
0.151644
0.153948
0.156154
0.158253
0.160223
0.162051
0.163741
0.165286
0.166675
0.167901
0.16896
0.169838
0.170525
0.171032
0.171383
0.171589
0.171638
0.171515
0.171234
0.170823
0.170308
0.169691
0.168963
0.168127
0.1672
0.166217
0.16522
0.164247
0.163331
0.1625
0.161785
0.161249
0.161003
0.161157
0.000468873
0.00317355
0.0051258
0.00720383
0.0094402
0.0116394
0.0137567
0.0158024
0.0177696
0.019654
0.0214641
0.0232237
0.0249145
0.0265352
0.0281003
0.0296105
0.0310665
0.0324732
0.0338104
0.035107
0.0363737
0.0376322
0.0389216
0.0402645
0.0416679
0.0431433
0.0446979
0.0463361
0.0480668
0.049898
0.051835
0.0538828
0.0560399
0.0582927
0.0606266
0.06304
0.0655344
0.0681054
0.070754
0.0734827
0.0762841
0.0791478
0.0820598
0.0850086
0.0879908
0.0909952
0.0940137
0.0970626
0.10015
0.103253
0.106347
0.109412
0.112436
0.115433
0.118418
0.121383
0.124317
0.127222
0.130085
0.132875
0.135577
0.138196
0.140745
0.143244
0.145703
0.148109
0.150433
0.152659
0.154792
0.156823
0.158729
0.160496
0.162128
0.163628
0.16499
0.166199
0.167246
0.168119
0.168815
0.16935
0.169743
0.169996
0.170094
0.170026
0.169811
0.169481
0.169059
0.168543
0.16792
0.16719
0.166378
0.165519
0.164653
0.163809
0.163011
0.162279
0.161635
0.161136
0.160876
0.160919
0.00238099
0.00567336
0.00808791
0.0103874
0.0125988
0.0146354
0.016517
0.0182985
0.0200028
0.0216276
0.0231972
0.0247197
0.026211
0.0276664
0.0290716
0.0304473
0.0317899
0.0330918
0.0343638
0.0356119
0.0368523
0.0381027
0.0393925
0.0407405
0.0421567
0.0436451
0.0452078
0.0468585
0.0486072
0.0504504
0.0523903
0.0544354
0.0565815
0.0588149
0.0611271
0.0635165
0.0659815
0.0685181
0.071132
0.0738322
0.0766079
0.0794405
0.0823191
0.0852327
0.0881731
0.0911369
0.0941257
0.0971508
0.100212
0.103282
0.106329
0.109339
0.112314
0.115264
0.118193
0.121097
0.123974
0.126823
0.12962
0.132335
0.134959
0.1375
0.139973
0.142397
0.144784
0.147115
0.149364
0.151523
0.153598
0.155576
0.157424
0.159133
0.160717
0.162185
0.163526
0.164719
0.165756
0.166631
0.167346
0.167914
0.168347
0.168642
0.168781
0.16876
0.168601
0.168343
0.168003
0.167568
0.167022
0.166372
0.165647
0.164884
0.164112
0.16335
0.162617
0.16193
0.16131
0.160806
0.160483
0.160371
0.00555947
0.0088853
0.0113697
0.013614
0.0156833
0.0174826
0.0191195
0.0206459
0.0221103
0.0235223
0.02488
0.0262072
0.027517
0.0288091
0.0300874
0.0313431
0.0325828
0.033792
0.0349923
0.0361888
0.0373963
0.0386332
0.0399191
0.0412719
0.0426968
0.0441888
0.045754
0.0474076
0.0491561
0.0509975
0.0529362
0.0549756
0.0571057
0.0593158
0.0616037
0.0639668
0.0664005
0.0689054
0.0714883
0.0741542
0.0768955
0.079697
0.0825449
0.0854264
0.0883297
0.0912524
0.0942093
0.0972146
0.100251
0.10328
0.106282
0.109249
0.112177
0.115078
0.117956
0.120807
0.123631
0.126428
0.129167
0.13181
0.134356
0.136827
0.139239
0.1416
0.143916
0.146176
0.148361
0.150465
0.152489
0.154413
0.156208
0.157867
0.159412
0.160855
0.162179
0.163362
0.164392
0.165273
0.16601
0.166612
0.167083
0.167413
0.167587
0.167607
0.167503
0.167309
0.167035
0.166662
0.166176
0.16559
0.164936
0.164248
0.163546
0.162841
0.162145
0.161475
0.160852
0.16032
0.15991
0.159624
0.00956437
0.0124819
0.0147472
0.0167617
0.0185606
0.0201194
0.0214957
0.0227859
0.0240246
0.0252368
0.02643
0.0275969
0.0287572
0.0299134
0.0310675
0.0322266
0.0333827
0.0345246
0.0356597
0.0368174
0.0380006
0.0392204
0.0404971
0.0418489
0.0432757
0.0447681
0.0463339
0.0479859
0.0497264
0.0515573
0.0534851
0.05551
0.0576214
0.0598083
0.0620668
0.0643959
0.0667957
0.0692703
0.071825
0.0744563
0.0771578
0.0799241
0.0827386
0.0855805
0.0884451
0.0913361
0.0942635
0.0972383
0.100241
0.10323
0.10619
0.109117
0.112007
0.114861
0.117688
0.120492
0.123275
0.126025
0.128706
0.131285
0.133771
0.136189
0.138551
0.140856
0.143111
0.145314
0.147449
0.14951
0.151489
0.153364
0.15511
0.156729
0.158246
0.159673
0.160988
0.162162
0.163188
0.164075
0.164833
0.165465
0.165966
0.166322
0.166526
0.166586
0.166532
0.166392
0.166166
0.165837
0.165394
0.164857
0.164261
0.163633
0.162984
0.162312
0.161628
0.160952
0.160309
0.159731
0.159221
0.158752
0.0139723
0.0162806
0.0181356
0.0198176
0.0213124
0.0225776
0.0237225
0.0247797
0.0258049
0.0268289
0.0278539
0.028885
0.0299228
0.0309617
0.0320088
0.0330814
0.0341558
0.035238
0.0363304
0.0374525
0.0386142
0.0398243
0.0410969
0.0424429
0.0438607
0.0453474
0.0469107
0.0485567
0.050287
0.0521065
0.0540199
0.0560253
0.0581158
0.0602803
0.0625087
0.0648022
0.0671673
0.069608
0.072129
0.0747281
0.0773941
0.0801201
0.0828928
0.0856907
0.0885117
0.091369
0.0942699
0.09721
0.100168
0.103115
0.106039
0.108932
0.111783
0.114595
0.117382
0.12015
0.122895
0.125601
0.128233
0.130763
0.133207
0.13559
0.137915
0.140176
0.142382
0.14454
0.146642
0.14867
0.150611
0.152442
0.154149
0.155742
0.157245
0.158662
0.159967
0.161132
0.162154
0.163047
0.163821
0.164474
0.164994
0.16537
0.1656
0.165697
0.165688
0.16559
0.165396
0.165092
0.164677
0.164179
0.163631
0.163051
0.162435
0.161774
0.161082
0.160385
0.159705
0.159066
0.15845
0.157802
0.0184944
0.0201035
0.0214832
0.0227858
0.0239515
0.0249311
0.0258178
0.026665
0.0274939
0.0283291
0.0291954
0.0300905
0.0310065
0.0319446
0.0329039
0.0338864
0.0348969
0.0359232
0.0369771
0.0380683
0.0392108
0.0404129
0.0416817
0.043021
0.0444293
0.0459082
0.0474626
0.0490976
0.0508182
0.0526282
0.0545278
0.0565138
0.0585817
0.0607225
0.0629233
0.065183
0.0675141
0.0699212
0.0724036
0.0749632
0.0775941
0.0802811
0.0830043
0.0857511
0.0885293
0.0913504
0.094214
0.0971118
0.100025
0.102932
0.105823
0.108684
0.1115
0.114276
0.117033
0.119775
0.122489
0.125156
0.127748
0.130247
0.13267
0.135034
0.137333
0.139561
0.141734
0.143864
0.145944
0.147949
0.149858
0.151654
0.153335
0.154915
0.156412
0.157822
0.159116
0.160268
0.161282
0.162176
0.162959
0.163622
0.164152
0.164541
0.164793
0.164924
0.164952
0.164881
0.164701
0.164406
0.164009
0.163542
0.163034
0.162487
0.161883
0.161215
0.1605
0.159772
0.159048
0.158343
0.157618
0.156802
0.0229347
0.0238539
0.0247285
0.0256411
0.0264819
0.02718
0.0278165
0.0284489
0.0290895
0.0297622
0.0304751
0.0312265
0.0320231
0.0328611
0.0337322
0.0346345
0.0355839
0.0365618
0.0375791
0.0386463
0.0397714
0.0409621
0.0422234
0.0435542
0.0449544
0.0464257
0.0479688
0.0495922
0.0513046
0.0531046
0.0549906
0.056962
0.0590099
0.0611221
0.0632934
0.0655258
0.0678253
0.0701956
0.0726407
0.0751622
0.0777511
0.0803917
0.083066
0.0857652
0.0885003
0.0912799
0.0940985
0.0969487
0.0998185
0.102691
0.105552
0.108384
0.111169
0.113918
0.116654
0.119376
0.122064
0.124699
0.127263
0.12975
0.132168
0.134521
0.136802
0.139009
0.141163
0.143281
0.14535
0.147338
0.149223
0.150995
0.152662
0.154239
0.155735
0.157137
0.158414
0.159549
0.160552
0.161443
0.162224
0.162886
0.163414
0.16381
0.164082
0.164243
0.164295
0.164234
0.164052
0.163756
0.163372
0.162932
0.162453
0.161922
0.161313
0.160623
0.15988
0.159118
0.158348
0.157575
0.156742
0.155771
0.0271699
0.0274493
0.0278318
0.0283508
0.0288818
0.0293157
0.0297203
0.0301356
0.0305993
0.0311168
0.0316809
0.0323013
0.0329823
0.033716
0.0344937
0.0353264
0.0362078
0.0371411
0.0381237
0.0391678
0.0402796
0.0414585
0.0427063
0.0440258
0.0454177
0.0468802
0.0484137
0.050027
0.0517297
0.0535205
0.0553938
0.0573483
0.0593771
0.0614656
0.063607
0.0658089
0.0680789
0.0704167
0.0728262
0.0753101
0.0778565
0.080449
0.0830757
0.0857329
0.0884288
0.0911652
0.0939352
0.0967383
0.0995703
0.102414
0.105249
0.108054
0.110815
0.113548
0.11627
0.118973
0.121637
0.124247
0.126799
0.129286
0.131707
0.134054
0.13632
0.138514
0.140663
0.142781
0.144846
0.146822
0.148689
0.15045
0.152116
0.153696
0.15519
0.156577
0.157833
0.158951
0.159944
0.160827
0.161598
0.162245
0.162764
0.163163
0.163454
0.163637
0.163701
0.163636
0.163445
0.163148
0.162777
0.162358
0.161894
0.161361
0.160735
0.160019
0.159249
0.158452
0.157634
0.156791
0.155851
0.154737
0.0311307
0.0308364
0.0307687
0.0309163
0.0311293
0.031323
0.0315079
0.031728
0.0320147
0.0323714
0.0328031
0.0333036
0.0338688
0.0345006
0.0351941
0.0359571
0.036775
0.0376577
0.0386065
0.0396289
0.0407258
0.0418898
0.0431215
0.0444304
0.0458132
0.0472609
0.0487831
0.0503923
0.0520863
0.0538612
0.0557202
0.05766
0.0596673
0.0617309
0.0638481
0.066023
0.0682618
0.0705677
0.072946
0.0753961
0.0779017
0.0804496
0.0830361
0.0856596
0.0883199
0.0910124
0.0937357
0.0964996
0.0993033
0.102123
0.104933
0.107716
0.110464
0.11319
0.115902
0.118586
0.121228
0.123824
0.126375
0.12887
0.131293
0.133631
0.135885
0.138077
0.140234
0.14236
0.144423
0.14639
0.14825
0.150011
0.151684
0.153269
0.154754
0.156122
0.157361
0.158469
0.159457
0.160328
0.161079
0.161705
0.162212
0.162616
0.162922
0.163116
0.16318
0.163106
0.162907
0.162614
0.162255
0.161847
0.161381
0.160833
0.160184
0.159446
0.158651
0.157821
0.15695
0.15603
0.154982
0.153734
0.0347751
0.0339881
0.0335266
0.0333159
0.0332273
0.0331754
0.0331628
0.0332039
0.033317
0.0335233
0.0338258
0.0342079
0.0346664
0.0352034
0.0358214
0.0365101
0.0372742
0.0381073
0.0390214
0.0400197
0.0410941
0.0422408
0.0434606
0.044756
0.0461242
0.047561
0.0490733
0.0506721
0.0523565
0.05412
0.055962
0.0578817
0.059869
0.0619131
0.0640083
0.0661572
0.0683689
0.0706487
0.0729984
0.0754135
0.0778817
0.0803969
0.0829563
0.0855512
0.0881753
0.0908269
0.0935136
0.0962499
0.0990316
0.10183
0.104619
0.107387
0.110133
0.112858
0.115559
0.118224
0.120851
0.123446
0.126005
0.128507
0.130926
0.133254
0.135504
0.137705
0.139877
0.142012
0.144075
0.146038
0.1479
0.149672
0.151355
0.15294
0.154413
0.155767
0.157
0.15811
0.159096
0.159952
0.160676
0.161278
0.161778
0.162188
0.162502
0.162697
0.162752
0.162668
0.162467
0.16218
0.161827
0.161415
0.160933
0.160361
0.159691
0.158937
0.158122
0.157255
0.156323
0.155318
0.154166
0.152799
0.0381018
0.0368813
0.0360578
0.0355332
0.0351596
0.034871
0.0346676
0.0345376
0.0344974
0.0345659
0.034738
0.0350064
0.0353664
0.0358142
0.0363551
0.0369763
0.0376844
0.0384724
0.0393508
0.0403207
0.041369
0.0424929
0.0437002
0.0449857
0.0463378
0.0477616
0.049269
0.0508603
0.0525302
0.0542787
0.0561082
0.0580138
0.0599835
0.0620079
0.0640835
0.0662139
0.0684063
0.0706624
0.0729822
0.075365
0.0778057
0.0803005
0.0828404
0.0854091
0.0880001
0.0906201
0.0932829
0.0960003
0.0987623
0.101541
0.104316
0.107083
0.109833
0.112556
0.115245
0.117897
0.120521
0.123126
0.125694
0.128195
0.130605
0.132926
0.135183
0.137402
0.139591
0.141731
0.143794
0.145762
0.147637
0.149421
0.15111
0.152689
0.154154
0.155507
0.156749
0.157871
0.158855
0.159692
0.16039
0.160973
0.161467
0.16188
0.162194
0.162379
0.162421
0.16233
0.162131
0.161846
0.161488
0.161059
0.160551
0.159954
0.159267
0.158502
0.157668
0.156758
0.155756
0.154666
0.153418
0.151944
0.0411231
0.0394956
0.0383414
0.0375398
0.036905
0.0363945
0.0360043
0.0357211
0.0355435
0.0354828
0.0355364
0.0356995
0.0359644
0.0363298
0.0367893
0.0373451
0.0379918
0.0387396
0.03958
0.0405078
0.0415299
0.0426413
0.0438308
0.045095
0.0464377
0.0478613
0.0493627
0.0509397
0.0525967
0.0543374
0.056159
0.0580525
0.0600082
0.0620195
0.0640829
0.0661997
0.0683748
0.0706082
0.0729016
0.0752604
0.0776842
0.0801663
0.0826898
0.0852356
0.0878027
0.090405
0.0930556
0.0957588
0.0985029
0.101268
0.104043
0.106817
0.109573
0.112292
0.114971
0.117619
0.120254
0.122872
0.125444
0.127936
0.130339
0.132664
0.134938
0.137175
0.139372
0.141512
0.143576
0.145556
0.147445
0.149237
0.150922
0.152496
0.153964
0.155332
0.156594
0.157728
0.158709
0.159528
0.160206
0.160777
0.161269
0.161679
0.161982
0.162152
0.162183
0.162091
0.161896
0.161608
0.161234
0.160778
0.16024
0.159619
0.158917
0.158137
0.157278
0.156318
0.155244
0.154074
0.15274
0.151174
0.0438144
0.0418302
0.040378
0.0393078
0.0384525
0.0377367
0.0371734
0.0367492
0.0364438
0.0362616
0.0362108
0.036283
0.0364614
0.0367393
0.0371197
0.0376144
0.0382039
0.0388929
0.0396865
0.0405831
0.0415796
0.0426679
0.0438381
0.0450905
0.0464295
0.047849
0.0493405
0.0509075
0.0525588
0.054295
0.0561093
0.0579949
0.0599444
0.0619509
0.0640085
0.066115
0.0682735
0.070486
0.0727603
0.0751069
0.0775237
0.0799966
0.0825059
0.0850376
0.0875965
0.0901954
0.0928405
0.0955322
0.0982652
0.101031
0.103816
0.106601
0.109359
0.112075
0.114752
0.117411
0.120062
0.122688
0.125254
0.127738
0.130142
0.132481
0.134771
0.137018
0.139215
0.141352
0.143421
0.145411
0.147307
0.149096
0.150775
0.15235
0.153833
0.155226
0.156509
0.157653
0.15863
0.159439
0.16011
0.16068
0.161171
0.161574
0.161864
0.162022
0.16205
0.161964
0.161773
0.161477
0.161079
0.160591
0.160021
0.159374
0.158649
0.157847
0.156952
0.155937
0.154797
0.153557
0.152145
0.150497
0.0461493
0.0438745
0.0421511
0.0408463
0.039784
0.0388956
0.0381826
0.0376176
0.0371904
0.0369056
0.0367612
0.0367394
0.0368344
0.037038
0.0373514
0.0377715
0.0383029
0.0389368
0.0396801
0.040542
0.0415122
0.0425759
0.0437291
0.0449763
0.0463122
0.0477219
0.0492016
0.050763
0.0524134
0.0541467
0.055956
0.0578389
0.0597897
0.0617988
0.0638551
0.0659531
0.0680972
0.0702961
0.0725634
0.0749085
0.0773229
0.0797893
0.0822929
0.0848264
0.0873926
0.0899959
0.0926386
0.0953256
0.0980613
0.10084
0.103642
0.106434
0.109192
0.111911
0.1146
0.117275
0.119937
0.122563
0.125122
0.127606
0.13002
0.132375
0.134675
0.136923
0.139116
0.141251
0.143322
0.145316
0.147209
0.148991
0.150666
0.152252
0.153758
0.155177
0.15648
0.157632
0.158611
0.159424
0.160103
0.160682
0.161177
0.161575
0.161855
0.162008
0.162042
0.161968
0.16178
0.161471
0.161046
0.160524
0.159919
0.15924
0.158485
0.157647
0.156707
0.155637
0.154437
0.153136
0.151656
0.149931
0.0481155
0.0455964
0.0436505
0.0421401
0.0408947
0.0398533
0.0389963
0.0383159
0.0377861
0.0373979
0.0371605
0.0370623
0.0370812
0.0372105
0.0374597
0.0378175
0.0382849
0.0388633
0.0395658
0.0403942
0.0413328
0.0423724
0.0435157
0.0447598
0.0460863
0.0474806
0.0489506
0.0505105
0.05216
0.0538895
0.0556972
0.0575851
0.059545
0.06156
0.0636149
0.0657064
0.067845
0.0700436
0.0723142
0.0746613
0.0770751
0.0795427
0.0820551
0.0846044
0.0871848
0.0897948
0.092441
0.0951361
0.0978876
0.100686
0.103501
0.106299
0.109062
0.111793
0.1145
0.11719
0.119856
0.122479
0.125039
0.127534
0.129967
0.132336
0.134641
0.136886
0.139076
0.141211
0.143282
0.145273
0.14716
0.148938
0.150618
0.152222
0.153752
0.155191
0.156509
0.157671
0.158664
0.159496
0.160196
0.160793
0.161295
0.16169
0.161965
0.16212
0.162167
0.162106
0.161922
0.161599
0.161147
0.160588
0.159945
0.159226
0.158431
0.157548
0.156555
0.155431
0.154174
0.152818
0.151279
0.149481
0.0496922
0.0469866
0.044871
0.0431733
0.0417606
0.0405838
0.039606
0.038816
0.0381939
0.0377254
0.0374059
0.0372328
0.0371877
0.0372604
0.0374427
0.0377406
0.0381502
0.038683
0.0393492
0.0401412
0.04105
0.042075
0.0432129
0.0444461
0.0457539
0.0471348
0.0486017
0.0501596
0.0518028
0.0535287
0.0553426
0.0572436
0.059214
0.061232
0.0632858
0.0653789
0.0675243
0.0697317
0.0720081
0.0743577
0.0767762
0.0792562
0.0817883
0.0843579
0.0869528
0.0895729
0.0922328
0.0949484
0.0977226
0.10054
0.103368
0.106176
0.108954
0.111705
0.114431
0.11713
0.119799
0.122426
0.124998
0.127515
0.12997
0.132354
0.134665
0.136912
0.139105
0.141242
0.143313
0.1453
0.147185
0.148966
0.150661
0.152283
0.153831
0.155282
0.156609
0.157786
0.158802
0.159663
0.160393
0.16101
0.16152
0.161913
0.162185
0.162347
0.162409
0.162363
0.162181
0.161847
0.161369
0.160777
0.160093
0.159328
0.158483
0.157545
0.156494
0.155312
0.154
0.152594
0.151
0.149132
0.0509067
0.048056
0.0457903
0.0439483
0.042391
0.0410818
0.0400003
0.0391176
0.0384119
0.0378716
0.0374894
0.037256
0.0371558
0.0371746
0.0372993
0.0375426
0.0379083
0.0384031
0.039029
0.0397872
0.0406798
0.0416989
0.0428249
0.0440373
0.045329
0.0467055
0.0481702
0.0497196
0.0513549
0.0530846
0.0549122
0.0568253
0.0587999
0.0608189
0.0628781
0.0649828
0.0671412
0.0693579
0.0716393
0.0739948
0.0764263
0.0789262
0.0814798
0.084068
0.0866782
0.0893153
0.091999
0.0947426
0.0975416
0.100378
0.103222
0.10605
0.108852
0.111627
0.11437
0.117079
0.119756
0.122397
0.124993
0.127538
0.13002
0.132422
0.134745
0.137003
0.139205
0.141349
0.143423
0.145411
0.147302
0.149095
0.150807
0.152445
0.154002
0.155457
0.156789
0.157983
0.159026
0.159921
0.160681
0.161318
0.161833
0.162224
0.162497
0.16267
0.16275
0.162718
0.162539
0.162194
0.161696
0.161074
0.160351
0.159539
0.158638
0.157638
0.156523
0.155278
0.153911
0.152458
0.150809
0.148874
0.0517902
0.0488091
0.0464294
0.0444642
0.0427828
0.0413675
0.040188
0.039221
0.0384475
0.0378471
0.0374136
0.0371318
0.036982
0.0369448
0.0370257
0.0372265
0.0375545
0.0380112
0.0386027
0.0393428
0.0402289
0.0412376
0.0423448
0.0435416
0.0448294
0.0462048
0.0476608
0.0492
0.0508366
0.052579
0.0544183
0.0563342
0.0583083
0.0603332
0.0624068
0.064528
0.0666984
0.0689223
0.0712111
0.0735797
0.0760307
0.0785516
0.0811233
0.0837282
0.0863575
0.0890194
0.0917332
0.0945071
0.0973316
0.10019
0.103059
0.105915
0.108747
0.111547
0.114304
0.117024
0.119718
0.122382
0.125009
0.127587
0.130097
0.132522
0.134867
0.137145
0.139366
0.141522
0.143605
0.145603
0.147508
0.149319
0.151048
0.152698
0.154256
0.15571
0.157048
0.158259
0.159333
0.160262
0.16105
0.161704
0.162226
0.16262
0.1629
0.163086
0.163183
0.163163
0.162984
0.16263
0.162118
0.161475
0.160721
0.159863
0.158904
0.157837
0.156652
0.155342
0.153922
0.152422
0.15072
0.148715
0.0523479
0.0492617
0.0467896
0.0447292
0.0429421
0.0414371
0.0401786
0.0391415
0.0383087
0.0376603
0.0371822
0.036854
0.0366551
0.0365733
0.0366161
0.0367801
0.0370705
0.037495
0.0380702
0.0388046
0.0396812
0.0406734
0.0417682
0.0429648
0.0442554
0.0456246
0.0470703
0.0486095
0.0502589
0.0520137
0.0538549
0.0557677
0.0577459
0.059786
0.0618794
0.0640166
0.0661977
0.0684323
0.0707367
0.0731261
0.0755994
0.0781391
0.0807263
0.0833492
0.0860036
0.0886961
0.0914414
0.0942441
0.0970945
0.0999794
0.102879
0.105769
0.108632
0.111453
0.114226
0.11696
0.119676
0.12237
0.125031
0.12764
0.13018
0.132635
0.135011
0.13732
0.139565
0.141741
0.143841
0.145858
0.147786
0.149623
0.151371
0.153029
0.15459
0.156045
0.157392
0.158626
0.15973
0.160693
0.161509
0.162181
0.162715
0.163118
0.16341
0.163611
0.163718
0.163699
0.163515
0.163153
0.162633
0.16198
0.161203
0.160304
0.159286
0.15815
0.156893
0.155519
0.154049
0.152504
0.150752
0.148671
0.0525961
0.0494384
0.0468818
0.0447517
0.0428863
0.0413023
0.039982
0.0388923
0.0380092
0.0373154
0.0367915
0.0364182
0.0361742
0.036057
0.0360602
0.0361885
0.036448
0.0368555
0.0374259
0.0381521
0.0390134
0.0399954
0.041093
0.042297
0.0435858
0.0449468
0.0463931
0.0479468
0.0496109
0.0513684
0.053205
0.05512
0.0571138
0.0591766
0.06129
0.0634426
0.06564
0.0678966
0.0702282
0.0726443
0.07514
0.0776975
0.0803021
0.0829486
0.0856339
0.0883594
0.0911345
0.0939632
0.0968402
0.0997566
0.102691
0.105614
0.108505
0.111347
0.114136
0.116891
0.119633
0.122359
0.12505
0.127689
0.130261
0.132754
0.135171
0.13752
0.139797
0.141997
0.144121
0.146169
0.148133
0.150003
0.151776
0.15345
0.155018
0.156483
0.157847
0.159106
0.160242
0.161235
0.162077
0.162771
0.163323
0.163743
0.164048
0.164256
0.164361
0.164331
0.164133
0.163763
0.163241
0.162583
0.161787
0.160849
0.159772
0.158566
0.157241
0.15581
0.154292
0.152706
0.150903
0.148741
0.0525763
0.0493619
0.0467447
0.0445575
0.0426339
0.0409877
0.0396162
0.0384832
0.0375568
0.0368157
0.0362436
0.0358261
0.0355437
0.0353872
0.0353516
0.0354504
0.0356937
0.036094
0.0366542
0.0373643
0.0382153
0.0392007
0.0403072
0.0415119
0.0427946
0.0441577
0.045621
0.0471935
0.0488626
0.0506147
0.0524521
0.0543833
0.0564026
0.0584888
0.0606212
0.0627952
0.0650224
0.0673164
0.0696846
0.0721304
0.0746494
0.0772291
0.0798595
0.0825381
0.0852589
0.0880172
0.0908202
0.0936753
0.0965831
0.0995357
0.102507
0.105461
0.108378
0.111242
0.114055
0.116837
0.119609
0.122363
0.125081
0.127749
0.130357
0.132895
0.135362
0.137756
0.140069
0.142299
0.144457
0.146547
0.148558
0.150473
0.152281
0.153977
0.155565
0.157049
0.158437
0.159723
0.160885
0.161903
0.162772
0.163491
0.164067
0.164506
0.164821
0.165027
0.165116
0.165062
0.164845
0.164466
0.163942
0.163278
0.162461
0.161481
0.160347
0.159076
0.15769
0.156207
0.154645
0.153018
0.151157
0.148913
0.0523105
0.0490659
0.0464026
0.0441676
0.0422017
0.040511
0.0390933
0.0379166
0.0369465
0.0361591
0.035543
0.0350816
0.0347589
0.0345599
0.0344957
0.0345769
0.0348106
0.0351982
0.0357389
0.0364357
0.0372876
0.0382798
0.0393862
0.0405844
0.0418695
0.0432514
0.044737
0.0463177
0.0479823
0.0497342
0.0515878
0.0535461
0.055591
0.0576978
0.0598543
0.0620641
0.0643379
0.0666801
0.0690893
0.071567
0.0741154
0.0767289
0.0793984
0.0821177
0.0848765
0.0876682
0.0905021
0.0933899
0.0963353
0.0993281
0.102336
0.105321
0.108265
0.111159
0.114006
0.116824
0.119627
0.122406
0.125148
0.127847
0.130498
0.133087
0.135606
0.138046
0.140397
0.142663
0.144864
0.147007
0.149075
0.151042
0.152893
0.154624
0.15624
0.157754
0.159169
0.160478
0.16166
0.162699
0.163593
0.164342
0.164947
0.165406
0.165729
0.165923
0.165986
0.165902
0.165664
0.165276
0.164747
0.164071
0.163227
0.162205
0.161017
0.159692
0.158255
0.156726
0.15512
0.153444
0.151518
0.149188
0.0518126
0.0485655
0.0458653
0.0435938
0.0415952
0.0398683
0.0384054
0.037184
0.0361709
0.0353401
0.0346801
0.0341754
0.0338115
0.033582
0.0335002
0.0335682
0.0337857
0.0341524
0.0346773
0.0353705
0.036224
0.0372121
0.0383104
0.03951
0.0408137
0.0422197
0.0437162
0.0452935
0.0469575
0.0487258
0.0506073
0.0525912
0.0546552
0.056785
0.0589796
0.0612426
0.0635733
0.0659658
0.0684168
0.0709332
0.0735245
0.0761872
0.0789078
0.0816741
0.0844738
0.087304
0.0901783
0.0931095
0.0960986
0.0991317
0.102175
0.105193
0.108174
0.111112
0.114005
0.116864
0.119696
0.122497
0.125265
0.128003
0.130704
0.133348
0.135917
0.138399
0.140788
0.143098
0.145352
0.147556
0.149686
0.151709
0.153608
0.155382
0.157039
0.158589
0.160033
0.161362
0.162559
0.163618
0.164539
0.165322
0.165959
0.16644
0.166767
0.166946
0.166981
0.166868
0.166607
0.166206
0.165666
0.16497
0.164096
0.163035
0.161804
0.160436
0.158959
0.157387
0.155736
0.154004
0.152007
0.149584
0.0511071
0.0478662
0.0451457
0.0428408
0.0408069
0.0390454
0.0375419
0.0362772
0.0352208
0.0343473
0.033642
0.0330979
0.0327027
0.0324571
0.0323592
0.0324091
0.0326056
0.0329559
0.033475
0.0341653
0.0350095
0.0359862
0.0370842
0.038301
0.0396282
0.0410458
0.04254
0.0441171
0.0457977
0.0475946
0.0495013
0.0515017
0.0535847
0.0557503
0.0579997
0.0603247
0.0627114
0.0651515
0.0676491
0.0702178
0.0728682
0.0755919
0.0783697
0.0811872
0.0840352
0.0869158
0.0898438
0.0928271
0.0958616
0.0989328
0.102012
0.105074
0.108106
0.111101
0.114047
0.116949
0.119813
0.12264
0.125442
0.128226
0.130982
0.133679
0.136294
0.138816
0.141247
0.143609
0.145925
0.148194
0.150385
0.152463
0.154415
0.156241
0.15795
0.159543
0.161019
0.162368
0.163582
0.164662
0.165615
0.166435
0.167105
0.167605
0.167933
0.168099
0.168109
0.167968
0.167683
0.167263
0.166702
0.165979
0.165073
0.163978
0.162714
0.161315
0.159805
0.158194
0.156492
0.154699
0.15263
0.150109
0.0502169
0.0469826
0.0442515
0.0419112
0.0398391
0.0380421
0.0365005
0.035191
0.0340874
0.0331701
0.0324275
0.0318528
0.0314365
0.0311747
0.0310582
0.0310892
0.0312712
0.0316146
0.0321282
0.0328066
0.0336374
0.0346119
0.0357245
0.0369619
0.0382994
0.0397148
0.0412097
0.0428045
0.0445148
0.0463372
0.0482589
0.0502753
0.0523915
0.0546105
0.0569222
0.0593054
0.0617421
0.0642316
0.0667876
0.0694241
0.0721439
0.0749319
0.0777688
0.0806449
0.0835549
0.0865009
0.0894927
0.0925312
0.0956097
0.0987191
0.101841
0.104958
0.108057
0.111117
0.114121
0.117068
0.11997
0.122836
0.125683
0.128521
0.131331
0.134079
0.136738
0.139304
0.141785
0.144207
0.146588
0.14892
0.151168
0.153301
0.15531
0.1572
0.158972
0.160618
0.162129
0.163501
0.164735
0.165842
0.166828
0.167684
0.168382
0.168897
0.169225
0.169379
0.16937
0.169205
0.168895
0.168447
0.167857
0.167101
0.166161
0.165035
0.163745
0.16232
0.160779
0.159128
0.157371
0.155513
0.153365
0.150749
0.0491656
0.0459304
0.043187
0.0408172
0.0387055
0.0368661
0.035279
0.0339213
0.0327721
0.0318141
0.0310412
0.0304425
0.0300073
0.0297235
0.0295905
0.0296099
0.0297852
0.0301221
0.030623
0.0312879
0.0321161
0.0331024
0.0342314
0.0354764
0.036811
0.0382278
0.0397416
0.0413684
0.0431067
0.0449452
0.0468824
0.0489313
0.0511012
0.0533827
0.0557512
0.0581835
0.0606703
0.0632202
0.0658477
0.0685593
0.0713487
0.0741999
0.0771005
0.0800478
0.0830358
0.0860589
0.0891177
0.0922099
0.0953334
0.0984881
0.101665
0.10485
0.108022
0.111152
0.114215
0.117215
0.120167
0.123087
0.125993
0.128888
0.131749
0.134544
0.137253
0.139873
0.142416
0.144904
0.147349
0.149738
0.152038
0.154227
0.156303
0.158268
0.160112
0.161817
0.163371
0.164771
0.16603
0.167166
0.168185
0.16907
0.16979
0.170315
0.170644
0.170789
0.170767
0.170584
0.17025
0.169771
0.169144
0.16835
0.167373
0.166217
0.164903
0.163453
0.161881
0.160183
0.158365
0.156437
0.154204
0.151497
0.0479819
0.0447247
0.0419619
0.0395667
0.0374095
0.0355185
0.03388
0.0324734
0.0312821
0.0302892
0.0294862
0.0288633
0.0284068
0.0281034
0.0279578
0.0279695
0.0281377
0.0284629
0.0289517
0.0296145
0.0304527
0.0314515
0.0325845
0.0338256
0.0351622
0.0365991
0.038147
0.0398051
0.0415634
0.0434207
0.0453927
0.0474971
0.0497313
0.0520698
0.0544853
0.056966
0.0595138
0.062137
0.0648411
0.0676236
0.0704775
0.0733937
0.0763688
0.0794021
0.0824796
0.0855839
0.0887089
0.0918556
0.0950315
0.0982446
0.101489
0.104747
0.107994
0.111193
0.114322
0.117385
0.120403
0.123391
0.126362
0.129315
0.132229
0.135076
0.137845
0.140534
0.143149
0.145706
0.148213
0.150654
0.153007
0.155259
0.157411
0.159459
0.161381
0.16315
0.16475
0.166184
0.167474
0.168641
0.169689
0.170597
0.17133
0.171862
0.172193
0.172337
0.172309
0.172115
0.17176
0.171249
0.170581
0.169742
0.168725
0.16754
0.166202
0.164729
0.163121
0.161371
0.159486
0.15748
0.15516
0.152362
0.046686
0.0433801
0.0405847
0.0381558
0.0359484
0.0340019
0.0323119
0.0308595
0.0296259
0.0285981
0.0277643
0.0271151
0.0266345
0.0263156
0.0261566
0.0261565
0.0263128
0.0266282
0.0271165
0.0277888
0.0286369
0.0296374
0.0307658
0.0320091
0.0333661
0.0348379
0.0364197
0.038102
0.039884
0.0417811
0.0438131
0.0459847
0.0482779
0.050664
0.0531268
0.0556678
0.0582908
0.060993
0.0637682
0.0666133
0.0695307
0.072521
0.0755837
0.0787119
0.0818812
0.085066
0.0882595
0.0914692
0.094711
0.0979949
0.101312
0.104643
0.107962
0.111234
0.114438
0.11758
0.120676
0.123739
0.126779
0.129794
0.132768
0.135681
0.138526
0.141298
0.143995
0.146623
0.149189
0.151684
0.154096
0.156419
0.158654
0.160787
0.162787
0.164619
0.166267
0.167743
0.169071
0.170271
0.171344
0.172268
0.173008
0.173546
0.173883
0.174034
0.174008
0.173807
0.173431
0.172884
0.172169
0.171282
0.170223
0.169007
0.167645
0.166143
0.164493
0.162684
0.160727
0.158642
0.156242
0.153349
0.04528
0.0419031
0.0390578
0.0365851
0.0343287
0.0323274
0.030585
0.0290862
0.0278118
0.0267467
0.0258801
0.0252004
0.0246927
0.0243533
0.0241756
0.0241593
0.0243049
0.0246204
0.0251184
0.0257999
0.0266492
0.0276458
0.0287772
0.0300399
0.0314303
0.0329364
0.0345452
0.0362553
0.0380814
0.0400432
0.0421475
0.0443817
0.0467248
0.0491604
0.0516854
0.0543037
0.0570092
0.0597862
0.062625
0.0655317
0.0685205
0.0715965
0.0747537
0.0779757
0.0812329
0.0844998
0.0877717
0.0910595
0.0943806
0.0977418
0.101132
0.104532
0.107924
0.111276
0.114569
0.117804
0.120988
0.12413
0.127242
0.130328
0.133377
0.136375
0.139313
0.142178
0.144961
0.147663
0.15029
0.152845
0.155323
0.157723
0.16004
0.162253
0.164322
0.166213
0.167914
0.16944
0.170814
0.172051
0.173148
0.174082
0.174827
0.175371
0.175721
0.175886
0.175868
0.175661
0.175261
0.174673
0.173906
0.172969
0.171868
0.170617
0.169223
0.16768
0.165976
0.1641
0.16207
0.159911
0.157433
0.154447
0.0437527
0.0402927
0.0373838
0.034861
0.0325544
0.0304997
0.0287054
0.0271577
0.0258414
0.0247372
0.0238319
0.0231133
0.0225727
0.0222035
0.0220032
0.0219727
0.0221157
0.0224398
0.0229479
0.0236323
0.0244799
0.0254812
0.0266312