/*--------------------------------*- C++ -*----------------------------------*\
  =========                 |
  \\      /  F ield         | OpenFOAM: The Open Source CFD Toolbox
   \\    /   O peration     | Website:  https://openfoam.org
    \\  /    A nd           | Version:  11
     \\/     M anipulation  |
\*---------------------------------------------------------------------------*/
FoamFile
{
    format      ascii;
    class       surfaceScalarField;
    location    "1.3";
    object      phi;
}
// * * * * * * * * * * * * * * * * * * * * * * * * * * * * * * * * * * * * * //

dimensions      [0 3 -1 0 0 0 0];

internalField   nonuniform List<scalar> 
19980
(
3.38796e-07
-3.3898e-07
-3.36515e-06
3.70409e-06
-1.25346e-05
9.16929e-06
-2.38299e-05
1.12954e-05
-3.49604e-05
1.11306e-05
-4.49401e-05
9.97972e-06
-5.3594e-05
8.65367e-06
-6.10007e-05
7.4068e-06
-6.73828e-05
6.38208e-06
-7.29971e-05
5.61427e-06
-7.80521e-05
5.05505e-06
-8.27308e-05
4.67869e-06
-8.71465e-05
4.41568e-06
-9.13874e-05
4.24081e-06
-9.55175e-05
4.13002e-06
-9.95992e-05
4.08187e-06
-0.000103687
4.08795e-06
-0.000107847
4.15977e-06
-0.00011211
4.26313e-06
-0.000116542
4.4322e-06
-0.000121163
4.6206e-06
-0.000126026
4.8634e-06
-0.00013116
5.13364e-06
-0.000136544
5.38439e-06
-0.000142143
5.59897e-06
-0.000147922
5.77916e-06
-0.000153809
5.887e-06
-0.000159721
5.91242e-06
-0.000165596
5.87421e-06
-0.000171367
5.77103e-06
-0.000176965
5.59823e-06
-0.000182337
5.37195e-06
-0.00018745
5.11299e-06
-0.000192286
4.83581e-06
-0.000196842
4.55565e-06
-0.000201122
4.28071e-06
-0.00020513
4.00766e-06
-0.000208864
3.73456e-06
-0.000212328
3.46373e-06
-0.000215518
3.1898e-06
-0.000218422
2.90359e-06
-0.000221026
2.60417e-06
-0.000223327
2.30101e-06
-0.00022533
2.00317e-06
-0.000227038
1.7083e-06
-0.00022845
1.41147e-06
-0.000229558
1.1082e-06
-0.00023035
7.92465e-07
-0.000230817
4.66456e-07
-0.000230947
1.30313e-07
-0.000230728
-2.19506e-07
-0.000230159
-5.68308e-07
-0.000229252
-9.07544e-07
-0.000227992
-1.25968e-06
-0.000226355
-1.63678e-06
-0.00022433
-2.02527e-06
-0.000221906
-2.42421e-06
-0.000219072
-2.834e-06
-0.000215842
-3.22968e-06
-0.000212243
-3.59921e-06
-0.000208282
-3.96075e-06
-0.000203966
-4.31584e-06
-0.000199317
-4.64904e-06
-0.00019434
-4.97779e-06
-0.000189004
-5.33613e-06
-0.000183286
-5.71751e-06
-0.000177196
-6.09029e-06
-0.000170746
-6.44995e-06
-0.000163938
-6.80766e-06
-0.000156787
-7.15136e-06
-0.000149326
-7.46045e-06
-0.000141589
-7.73721e-06
-0.000133599
-7.98996e-06
-0.000125393
-8.20595e-06
-0.000117024
-8.36943e-06
-0.000108537
-8.48721e-06
-9.99666e-05
-8.56992e-06
-9.13629e-05
-8.60372e-06
-8.27972e-05
-8.56568e-06
-7.43396e-05
-8.45762e-06
-6.60364e-05
-8.30325e-06
-5.79208e-05
-8.11554e-06
-5.00368e-05
-7.88393e-06
-4.2441e-05
-7.59586e-06
-3.51839e-05
-7.25714e-06
-2.83017e-05
-6.88216e-06
-2.18285e-05
-6.47333e-06
-1.58082e-05
-6.02039e-06
-1.0297e-05
-5.51117e-06
-5.36068e-06
-4.9363e-06
-1.07264e-06
-4.28805e-06
2.48509e-06
-3.55779e-06
5.22731e-06
-2.74222e-06
7.07717e-06
-1.84986e-06
7.96988e-06
-8.92742e-07
7.85557e-06
1.14296e-07
6.7107e-06
1.14491e-06
4.57447e-06
2.1362e-06
1.76173e-06
2.81265e-06
1.76162e-06
4.79754e-06
-5.13634e-06
5.37581e-06
3.12582e-06
-2.71673e-06
1.72619e-05
-1.5872e-05
2.44505e-05
-3.10742e-05
2.63328e-05
-4.69731e-05
2.58787e-05
-6.28509e-05
2.45317e-05
-7.85884e-05
2.31441e-05
-9.4191e-05
2.19849e-05
-0.000109777
2.12004e-05
-0.000125465
2.07423e-05
-0.000141345
2.05594e-05
-0.000157515
2.05856e-05
-0.000174016
2.07415e-05
-0.000190841
2.09553e-05
-0.00020802
2.12611e-05
-0.000225528
2.15955e-05
-0.000243351
2.1983e-05
-0.000261498
2.24107e-05
-0.000279929
2.28627e-05
-0.000298635
2.33271e-05
-0.000317595
2.38224e-05
-0.00033675
2.42892e-05
-0.000356046
2.46798e-05
-0.000375419
2.49722e-05
-0.000394755
2.51144e-05
-0.000413934
2.50662e-05
-0.000432859
2.48378e-05
-0.000451421
2.44356e-05
-0.0004695
2.385e-05
-0.000487
2.30984e-05
-0.000503845
2.22172e-05
-0.000519968
2.12356e-05
-0.000535315
2.01834e-05
-0.000549856
1.90966e-05
-0.000563571
1.79951e-05
-0.00057644
1.68773e-05
-0.000588445
1.57397e-05
-0.000599567
1.45853e-05
-0.00060979
1.34126e-05
-0.000619098
1.22118e-05
-0.000627475
1.09812e-05
-0.000634908
9.73403e-06
-0.000641387
8.48183e-06
-0.000646898
7.21942e-06
-0.000651425
5.9389e-06
-0.000654957
4.64052e-06
-0.000657484
3.31874e-06
-0.000658986
1.96853e-06
-0.000659452
5.96257e-07
-0.000658877
-7.93946e-07
-0.00065725
-2.19592e-06
-0.000654558
-3.5987e-06
-0.000650804
-5.01427e-06
-0.000645973
-6.46789e-06
-0.000640045
-7.9535e-06
-0.000633026
-9.44292e-06
-0.000624937
-1.09227e-05
-0.000615782
-1.2385e-05
-0.00060557
-1.3811e-05
-0.000594341
-1.51894e-05
-0.000582129
-1.6528e-05
-0.000568937
-1.78409e-05
-0.000554773
-1.91415e-05
-0.000539666
-2.04436e-05
-0.000523635
-2.17488e-05
-0.000506686
-2.30389e-05
-0.000488846
-2.42893e-05
-0.00047017
-2.54838e-05
-0.000450708
-2.66134e-05
-0.000430502
-2.76665e-05
-0.000409613
-2.86257e-05
-0.000388131
-2.94726e-05
-0.000366142
-3.01941e-05
-0.000343727
-3.07853e-05
-0.000320972
-3.12421e-05
-0.000297992
-3.15499e-05
-0.00027491
-3.16857e-05
-0.000251841
-3.1634e-05
-0.000228903
-3.13961e-05
-0.000206224
-3.09818e-05
-0.000183943
-3.03969e-05
-0.000162187
-2.96394e-05
-0.000141079
-2.87043e-05
-0.000120746
-2.75897e-05
-0.000101332
-2.62963e-05
-8.29829e-05
-2.48226e-05
-6.58412e-05
-2.3162e-05
-5.00542e-05
-2.12982e-05
-3.57857e-05
-1.92048e-05
-2.32135e-05
-1.68604e-05
-1.25114e-05
-1.42597e-05
-3.83737e-06
-1.14162e-05
2.6734e-06
-8.36066e-06
6.92055e-06
-5.13991e-06
8.86569e-06
-1.83085e-06
8.58036e-06
1.43022e-06
6.30032e-06
4.41635e-06
2.6823e-06
6.43082e-06
4.44384e-06
9.89637e-06
-1.50329e-05
1.77041e-05
-4.68189e-06
1.61781e-05
1.8788e-05
7.94714e-06
3.26816e-05
-4.72741e-06
3.90075e-05
-2.05613e-05
4.17126e-05
-3.88829e-05
4.28533e-05
-5.92563e-05
4.35175e-05
-8.14666e-05
4.41951e-05
-0.00010534
4.50739e-05
-0.000130779
4.61808e-05
-0.000157667
4.74475e-05
-0.000185886
4.88045e-05
-0.000215314
5.01704e-05
-0.000245859
5.15004e-05
-0.000277333
5.27342e-05
-0.00030964
5.39033e-05
-0.000342603
5.49453e-05
-0.000376094
5.59019e-05
-0.00040996
5.67293e-05
-0.000444077
5.74437e-05
-0.000478273
5.80186e-05
-0.000512431
5.84474e-05
-0.000546419
5.86678e-05
-0.000580094
5.8647e-05
-0.000613333
5.83538e-05
-0.000646027
5.77597e-05
-0.000678049
5.68598e-05
-0.000709276
5.56628e-05
-0.000739607
5.4181e-05
-0.000768951
5.24416e-05
-0.000797213
5.04796e-05
-0.000824309
4.83314e-05
-0.000850168
4.60426e-05
-0.000874728
4.36572e-05
-0.000897928
4.11953e-05
-0.000919717
3.86655e-05
-0.000940057
3.60795e-05
-0.000958912
3.34405e-05
-0.000976246
3.07467e-05
-0.000992029
2.79951e-05
-0.00100624
2.51892e-05
-0.00101885
2.23448e-05
-0.00102984
1.94697e-05
-0.00103918
1.65588e-05
-0.00104685
1.36105e-05
-0.00105283
1.06267e-05
-0.00105712
7.60692e-06
-0.0010597
4.5493e-06
-0.00106056
1.45416e-06
-0.00105969
-1.66613e-06
-0.00105709
-4.79539e-06
-0.00105275
-7.93603e-06
-0.00104666
-1.11005e-05
-0.00103885
-1.42869e-05
-0.00102931
-1.74846e-05
-0.00101807
-2.06836e-05
-0.00100514
-2.38607e-05
-0.000990534
-2.69871e-05
-0.000974292
-3.00528e-05
-0.000956423
-3.30582e-05
-0.000936959
-3.59925e-05
-0.000915948
-3.88521e-05
-0.000893429
-4.16598e-05
-0.00086944
-4.44335e-05
-0.000844033
-4.71555e-05
-0.000817277
-4.97942e-05
-0.000789233
-5.23334e-05
-0.000759957
-5.47605e-05
-0.000729521
-5.70487e-05
-0.00069802
-5.91678e-05
-0.000665548
-6.1098e-05
-0.000632199
-6.28211e-05
-0.000598083
-6.43106e-05
-0.000563325
-6.55432e-05
-0.000528062
-6.65048e-05
-0.000492434
-6.71778e-05
-0.000456589
-6.75312e-05
-0.000420688
-6.7535e-05
-0.000384906
-6.71776e-05
-0.000349427
-6.64615e-05
-0.000314438
-6.53858e-05
-0.000280139
-6.39385e-05
-0.000246739
-6.21039e-05
-0.000214457
-5.98725e-05
-0.000183513
-5.72399e-05
-0.000154139
-5.41967e-05
-0.000126575
-5.0726e-05
-0.000101068
-4.68049e-05
-7.78634e-05
-4.24098e-05
-5.71945e-05
-3.75292e-05
-3.92822e-05
-3.2172e-05
-2.43248e-05
-2.63736e-05
-1.24796e-05
-2.02058e-05
-3.83321e-06
-1.37862e-05
1.63243e-06
-7.2966e-06
4.09516e-06
-1.03262e-06
3.91983e-06
4.59166e-06
1.88094e-06
8.46975e-06
6.32474e-06
1.09733e-05
-2.6006e-05
2.10637e-05
-1.47724e-05
2.18378e-05
1.80141e-05
1.51205e-05
3.93985e-05
2.69335e-06
5.14346e-05
-1.44288e-05
5.88347e-05
-3.56469e-05
6.40712e-05
-6.05134e-05
6.83842e-05
-8.86948e-05
7.23764e-05
-0.000119903
7.62821e-05
-0.00015388
8.01583e-05
-0.000190351
8.39182e-05
-0.000229086
8.75396e-05
-0.00026983
9.09141e-05
-0.000312315
9.39855e-05
-0.000356301
9.67198e-05
-0.000401526
9.91287e-05
-0.000447729
0.000101148
-0.000494661
0.000102834
-0.000542088
0.000104157
-0.000589766
0.000105122
-0.000637483
0.000105735
-0.000684996
0.000105961
-0.000732118
0.00010579
-0.00077868
0.000105209
-0.000824507
0.000104181
-0.00086945
0.000102703
-0.00091338
0.00010079
-0.000956169
9.84518e-05
-0.000997696
9.57073e-05
-0.00103785
9.25922e-05
-0.00107652
8.91509e-05
-0.00111361
8.54279e-05
-0.00114904
8.147e-05
-0.00118271
7.73226e-05
-0.00121453
7.30171e-05
-0.00124444
6.85723e-05
-0.00127236
6.40074e-05
-0.00129826
5.93344e-05
-0.00132207
5.45563e-05
-0.00134375
4.968e-05
-0.00136328
4.47164e-05
-0.00138061
3.96742e-05
-0.0013957
3.45615e-05
-0.00140853
2.93855e-05
-0.00141907
2.41512e-05
-0.0014273
1.88615e-05
-0.00143321
1.35172e-05
-0.00143679
8.1228e-06
-0.00143802
2.68659e-06
-0.0014369
-2.78302e-06
-0.00143343
-8.27155e-06
-0.0014276
-1.3766e-05
-0.00141943
-1.92708e-05
-0.00140892
-2.47905e-05
-0.0013961
-3.03045e-05
-0.001381
-3.57838e-05
-0.00136365
-4.1214e-05
-0.00134405
-4.65812e-05
-0.00132225
-5.18594e-05
-0.00129828
-5.70271e-05
-0.00127219
-6.20803e-05
-0.00124402
-6.70227e-05
-0.00121383
-7.18539e-05
-0.00118169
-7.65669e-05
-0.0011477
-8.11476e-05
-0.00111192
-8.55723e-05
-0.00107444
-8.98113e-05
-0.00103537
-9.38351e-05
-0.000994803
-9.76164e-05
-0.000952844
-0.000101126
-0.000909614
-0.000104328
-0.000865249
-0.000107186
-0.000819893
-0.000109666
-0.000773696
-0.000111741
-0.000726819
-0.000113382
-0.000679446
-0.000114551
-0.000631771
-0.000115206
-0.000583994
-0.000115311
-0.000536328
-0.000114844
-0.000489004
-0.000113786
-0.000442272
-0.000112118
-0.000396393
-0.000109817
-0.000351638
-0.000106859
-0.00030829
-0.00010322
-0.000266647
-9.88829e-05
-0.000227016
-9.38277e-05
-0.000189707
-8.80349e-05
-0.000155028
-8.14835e-05
-0.000123283
-7.41554e-05
-9.47603e-05
-6.60515e-05
-6.97251e-05
-5.72073e-05
-4.83988e-05
-4.76999e-05
-3.09413e-05
-3.76633e-05
-1.74286e-05
-2.72989e-05
-7.81854e-06
-1.69066e-05
-1.91265e-06
-6.93848e-06
7.05653e-07
1.97326e-06
8.04822e-07
8.37053e-06
7.12953e-06
9.37739e-06
-3.53833e-05
1.79165e-05
-2.33117e-05
1.77117e-05
1.82191e-05
9.70776e-06
4.74024e-05
-4.7398e-06
6.58822e-05
-2.48002e-05
7.88954e-05
-4.99363e-05
8.92072e-05
-7.97609e-05
9.82087e-05
-0.000113888
0.000106504
-0.00015201
0.000114404
-0.000193746
0.000121895
-0.000238799
0.00012897
-0.000286803
0.000135544
-0.000337423
0.000141534
-0.000390327
0.000146889
-0.000445183
0.000151576
-0.000501596
0.000155542
-0.000559292
0.000158843
-0.000617894
0.000161436
-0.000677109
0.000163372
-0.000736618
0.000164631
-0.000796135
0.000165252
-0.000855398
0.000165224
-0.000914157
0.000164549
-0.000972175
0.000163226
-0.00102925
0.000161258
-0.00108522
0.000158665
-0.00113989
0.000155464
-0.00119311
0.000151676
-0.00124475
0.000147348
-0.00129468
0.000142521
-0.00134277
0.000137239
-0.0013889
0.000131555
-0.00143295
0.000125526
-0.00147483
0.000119199
-0.00151442
0.000112612
-0.00155165
0.000105797
-0.00158642
9.87772e-05
-0.00161866
9.15777e-05
-0.00164832
8.42125e-05
-0.00167533
7.6691e-05
-0.00169965
6.9033e-05
-0.00172123
6.12546e-05
-0.00174003
5.33635e-05
-0.00175601
4.53692e-05
-0.00176915
3.72854e-05
-0.00177941
2.91262e-05
-0.00178679
2.08977e-05
-0.00179127
1.26002e-05
-0.00179283
4.24893e-06
-0.00179148
-4.13132e-06
-0.00178723
-1.25294e-05
-0.00178005
-2.09418e-05
-0.00176997
-2.93545e-05
-0.00175701
-3.77487e-05
-0.0017412
-4.61098e-05
-0.00172257
-5.44187e-05
-0.00170113
-6.26474e-05
-0.00167695
-7.07685e-05
-0.00165005
-7.87621e-05
-0.00162046
-8.6608e-05
-0.00158826
-9.42835e-05
-0.00155351
-0.000101776
-0.00151628
-0.000109082
-0.00147666
-0.00011619
-0.00143474
-0.000123068
-0.00139063
-0.000129677
-0.00134445
-0.00013599
-0.00129631
-0.000141977
-0.00124633
-0.000147598
-0.00119465
-0.000152803
-0.00114143
-0.000157548
-0.00108683
-0.000161792
-0.001031
-0.00016549
-0.000974146
-0.000168597
-0.000916461
-0.000171066
-0.000858164
-0.000172848
-0.000799482
-0.000173889
-0.000740655
-0.000174138
-0.000681945
-0.000173553
-0.00062363
-0.000172101
-0.000566003
-0.000169745
-0.000509377
-0.000166443
-0.000454081
-0.000162155
-0.000400455
-0.000156846
-0.000348852
-0.000150486
-0.000299629
-0.00014305
-0.000253152
-0.000134512
-0.000209785
-0.000124851
-0.000169878
-0.000114062
-0.000133757
-0.000102172
-0.000101715
-8.92501e-05
-7.39946e-05
-7.54199e-05
-5.07766e-05
-6.08813e-05
-3.21521e-05
-4.59235e-05
-1.80857e-05
-3.0973e-05
-8.38871e-06
-1.66354e-05
-2.66499e-06
-3.75054e-06
-2.6621e-07
5.97173e-06
6.86327e-06
6.64962e-06
-4.20329e-05
1.19022e-05
-2.85642e-05
8.91018e-06
2.1211e-05
-1.95026e-06
5.82629e-05
-1.97282e-05
8.36604e-05
-4.37508e-05
0.000102918
-7.35465e-05
0.000119003
-0.000108694
0.000133356
-0.000148879
0.000146688
-0.000193682
0.000159207
-0.000242782
0.000170995
-0.000295769
0.000181958
-0.000352234
0.000192009
-0.000411801
0.000201101
-0.00047404
0.000209127
-0.000538556
0.000216092
-0.000604963
0.000221949
-0.000672842
0.000226722
-0.000741816
0.000230411
-0.000811498
0.000233054
-0.00088155
0.000234683
-0.000951616
0.000235318
-0.00102138
0.000234989
-0.00109056
0.000233726
-0.00115888
0.000231549
-0.00122611
0.000228491
-0.00129203
0.000224583
-0.00135643
0.000219863
-0.00141913
0.00021438
-0.00147997
0.000208187
-0.00153879
0.000201336
-0.00159543
0.000193883
-0.00164977
0.000185891
-0.00170167
0.000177425
-0.001751
0.000168532
-0.00179765
0.000159259
-0.00184151
0.000149657
-0.00188249
0.000139759
-0.0019205
0.000129588
-0.00195546
0.000119171
-0.0019873
0.000108536
-0.00201598
9.77067e-05
-0.00204142
8.66982e-05
-0.00206358
7.55262e-05
-0.00208243
6.42156e-05
-0.00209793
5.27854e-05
-0.00211005
4.12437e-05
-0.00211875
2.96056e-05
-0.00212405
1.78925e-05
-0.00212592
6.12098e-06
-0.00212436
-5.69193e-06
-0.00211936
-1.75235e-05
-0.00211095
-2.93555e-05
-0.00209913
-4.11751e-05
-0.00208392
-5.296e-05
-0.00206535
-6.46786e-05
-0.00204346
-7.63052e-05
-0.00201829
-8.78189e-05
-0.00198987
-9.91883e-05
-0.00195826
-0.000110376
-0.00192351
-0.000121354
-0.0018857
-0.000132099
-0.00184488
-0.000142592
-0.00180116
-0.000152807
-0.00175463
-0.000162716
-0.00170542
-0.000172282
-0.00165363
-0.000181462
-0.0015994
-0.000190218
-0.00154288
-0.000198506
-0.0014842
-0.000206277
-0.00142353
-0.00021347
-0.00136105
-0.000220029
-0.00129694
-0.000225899
-0.00123141
-0.000231022
-0.00116467
-0.000235337
-0.00109696
-0.000238781
-0.00102852
-0.000241288
-0.000959614
-0.000242789
-0.000890534
-0.000243218
-0.000821573
-0.000242514
-0.00075305
-0.000240625
-0.000685301
-0.000237493
-0.000618686
-0.000233058
-0.000553578
-0.000227263
-0.000490363
-0.000220061
-0.000429436
-0.000211413
-0.000371202
-0.000201284
-0.000316068
-0.000189645
-0.000264439
-0.00017648
-0.000216699
-0.000161802
-0.000173209
-0.000145663
-0.000134291
-0.000128168
-0.000100217
-0.000109494
-7.11933e-05
-8.99049e-05
-4.73343e-05
-6.97825e-05
-2.8642e-05
-4.96653e-05
-1.49776e-05
-3.02999e-05
-6.0294e-06
-1.26987e-05
-1.29133e-06
1.23362e-06
5.57192e-06
3.75278e-06
-4.57859e-05
4.90348e-06
-2.97148e-05
-1.71565e-06
2.78301e-05
-1.62346e-05
7.27817e-05
-3.8052e-05
0.000105478
-6.65994e-05
0.000131465
-0.000101449
0.000153853
-0.000142212
0.000174119
-0.00018848
0.000192957
-0.000239914
0.000210641
-0.000296071
0.000227152
-0.000356555
0.000242442
-0.000420939
0.000256394
-0.000488755
0.000268917
-0.00055959
0.000279962
-0.000632948
0.00028945
-0.000708421
0.000297422
-0.000785533
0.000303834
-0.00086389
0.000308768
-0.000943052
0.000312216
-0.00102262
0.000314254
-0.00110223
0.000314922
-0.00118152
0.000314277
-0.00126015
0.000312363
-0.00133784
0.000309233
-0.0014143
0.00030495
-0.00148928
0.000299564
-0.00156255
0.000293135
-0.0016339
0.000285731
-0.00170313
0.000277418
-0.00177006
0.000268265
-0.00183452
0.000258347
-0.00189636
0.00024773
-0.00195542
0.000236481
-0.00201156
0.00022467
-0.00206465
0.000212353
-0.00211458
0.000199582
-0.00216122
0.000186402
-0.00220448
0.000172854
-0.00224429
0.000158978
-0.00228055
0.0001448
-0.0023132
0.000130352
-0.00234217
0.000115667
-0.00236741
0.00010077
-0.00238888
8.56826e-05
-0.00240653
7.04338e-05
-0.00242033
5.50479e-05
-0.00243027
3.95399e-05
-0.00243631
2.39331e-05
-0.00243845
8.261e-06
-0.00243669
-7.45048e-06
-0.00243103
-2.31833e-05
-0.00242147
-3.89133e-05
-0.00240804
-5.461e-05
-0.00239075
-7.02424e-05
-0.00236965
-8.57798e-05
-0.00234476
-0.000101193
-0.00231614
-0.000116449
-0.00228382
-0.000131505
-0.00224787
-0.000146321
-0.00220836
-0.000160864
-0.00216536
-0.000175101
-0.00211896
-0.000188996
-0.00206925
-0.000202511
-0.00201636
-0.000215606
-0.00196041
-0.000228233
-0.00190154
-0.000240337
-0.00183988
-0.000251871
-0.00177561
-0.00026278
-0.00170889
-0.000273
-0.0016399
-0.000282456
-0.00156885
-0.000291078
-0.00149595
-0.000298798
-0.00142143
-0.000305546
-0.00134553
-0.00031124
-0.00126851
-0.000315798
-0.00119066
-0.000319137
-0.00111228
-0.000321172
-0.00103367
-0.00032182
-0.000955185
-0.000321004
-0.000877164
-0.000318646
-0.000799991
-0.000314667
-0.000724061
-0.000308988
-0.000649785
-0.00030154
-0.000577584
-0.000292262
-0.000507892
-0.000281104
-0.000441151
-0.000268025
-0.000377805
-0.000252992
-0.000318288
-0.000235996
-0.000263019
-0.000217071
-0.000212388
-0.000196294
-0.000166748
-0.000173808
-0.000126404
-0.000149838
-9.15948e-05
-0.000124714
-6.24811e-05
-9.88962e-05
-3.9122e-05
-7.30244e-05
-2.14502e-05
-4.79716e-05
-9.2695e-06
-2.48793e-05
-2.24082e-06
-5.79511e-06
3.33113e-06
1.00805e-06
-4.67938e-05
-1.97634e-06
-2.67306e-05
-1.25942e-05
3.84479e-05
-3.11631e-05
9.13507e-05
-5.73276e-05
0.000131642
-9.06922e-05
0.00016483
-0.000130782
0.000193943
-0.000177225
0.000220561
-0.00022962
0.000245352
-0.00028753
0.000268551
-0.000350549
0.00029017
-0.000418222
0.000310115
-0.00049009
0.000328262
-0.000565683
0.00034451
-0.000644505
0.000358784
-0.000726087
0.000371032
-0.000809928
0.000381263
-0.000895576
0.000389482
-0.000982541
0.000395733
-0.00107039
0.000400068
-0.0011587
0.000402556
-0.00124704
0.000403268
-0.00133504
0.000402277
-0.00142233
0.000399657
-0.00150859
0.000395492
-0.00159351
0.000389867
-0.0016768
0.000382854
-0.0017582
0.000374537
-0.00183748
0.000365009
-0.00191442
0.000354353
-0.0019888
0.000342648
-0.00206043
0.000329983
-0.00212915
0.000316446
-0.00219478
0.000302115
-0.00225718
0.000287061
-0.00231618
0.000271354
-0.00237166
0.000255065
-0.00242351
0.000238249
-0.0024716
0.00022095
-0.00251585
0.000203221
-0.00255616
0.00018511
-0.00259246
0.000166652
-0.00262467
0.000147879
-0.00265273
0.000128834
-0.0026766
0.000109554
-0.00269624
9.00678e-05
-0.00271159
7.04019e-05
-0.00272264
5.05888e-05
-0.00272937
3.06634e-05
-0.00273177
1.06594e-05
-0.00272983
-9.39374e-06
-0.00272354
-2.94658e-05
-0.00271294
-4.95213e-05
-0.00269802
-6.95244e-05
-0.00267883
-8.94385e-05
-0.00265538
-0.000109224
-0.00262773
-0.000128845
-0.00259592
-0.000148259
-0.00256001
-0.000167417
-0.00252006
-0.000186267
-0.00247616
-0.000204769
-0.00242838
-0.000222882
-0.00237681
-0.000240557
-0.00232159
-0.000257738
-0.00226282
-0.000274372
-0.00220065
-0.000290401
-0.00213523
-0.000305761
-0.00206671
-0.000320389
-0.00199527
-0.000334216
-0.00192111
-0.000347162
-0.00184443
-0.000359137
-0.00176545
-0.00037006
-0.0016844
-0.000379846
-0.00160154
-0.000388406
-0.00151714
-0.000395641
-0.00143149
-0.000401447
-0.0013449
-0.000405724
-0.0012577
-0.000408371
-0.00117024
-0.000409288
-0.00108287
-0.000408371
-0.000995994
-0.000405522
-0.000910017
-0.000400644
-0.000825366
-0.000393638
-0.000742485
-0.000384421
-0.000661828
-0.000372919
-0.000583861
-0.000359071
-0.000509058
-0.000342828
-0.000437893
-0.000324157
-0.000370828
-0.000303061
-0.000308311
-0.000279588
-0.000250764
-0.000253841
-0.000198573
-0.000225999
-0.00015208
-0.000196332
-0.00011157
-0.000165223
-7.72592e-05
-0.000133207
-4.92743e-05
-0.000101009
-2.7647e-05
-6.95988e-05
-1.23109e-05
-4.02154e-05
-3.10407e-06
-1.50019e-05
2.27068e-07
-1.41413e-06
-4.53797e-05
-8.34763e-06
-1.97968e-05
-2.29535e-05
5.30536e-05
-4.56646e-05
0.000114062
-7.6302e-05
0.00016228
-0.0001145
0.000203028
-0.000159887
0.000239329
-0.000211989
0.000272664
-0.000270405
0.000303768
-0.000334683
0.00033283
-0.00040436
0.000359847
-0.000478959
0.000384714
-0.000557983
0.000407286
-0.000640942
0.000427469
-0.00072731
0.000445152
-0.00081661
0.000460332
-0.000908286
0.00047294
-0.00100187
0.000483067
-0.00109685
0.000490716
-0.00119277
0.000495986
-0.00128916
0.000498945
-0.00138559
0.000499691
-0.00148163
0.000498323
-0.00157692
0.000494948
-0.0016711
0.000489667
-0.00176381
0.00048258
-0.00185476
0.000473802
-0.00194367
0.000463444
-0.00203026
0.000451603
-0.00211429
0.000438383
-0.00219554
0.000423895
-0.0022738
0.000408242
-0.00234887
0.000391515
-0.00242056
0.000373805
-0.00248871
0.00035521
-0.00255316
0.000335813
-0.00261378
0.00031568
-0.00267041
0.000294883
-0.00272296
0.000273493
-0.0027713
0.000251568
-0.00281535
0.000229156
-0.00285501
0.000206309
-0.00289021
0.000183079
-0.00292088
0.000159511
-0.00294698
0.000135648
-0.00296844
0.000111527
-0.00298522
8.71897e-05
-0.00299731
6.26777e-05
-0.00300468
3.80323e-05
-0.00300732
1.32938e-05
-0.00300521
-1.15017e-05
-0.00299836
-3.63139e-05
-0.00298679
-6.10958e-05
-0.00297051
-8.58038e-05
-0.00294955
-0.000110397
-0.00292394
-0.000134828
-0.00289374
-0.000159048
-0.00285899
-0.000183006
-0.00281977
-0.000206644
-0.00277613
-0.000229903
-0.00272817
-0.000252732
-0.00267597
-0.000275081
-0.00261964
-0.000296883
-0.00255931
-0.000318068
-0.00249511
-0.000338571
-0.00242719
-0.000358323
-0.00235571
-0.000377247
-0.00228083
-0.000395262
-0.00220277
-0.000412283
-0.00212171
-0.000428214
-0.0020379
-0.000442953
-0.00195156
-0.000456401
-0.00186295
-0.000468456
-0.00177234
-0.000479009
-0.00168004
-0.00048794
-0.00158637
-0.000495126
-0.00149164
-0.00050045
-0.00139622
-0.000503791
-0.00130048
-0.000505028
-0.00120481
-0.000504035
-0.00110964
-0.000500692
-0.00101541
-0.00049488
-0.000922561
-0.000486486
-0.000831572
-0.00047541
-0.000742925
-0.000461567
-0.000657113
-0.000444883
-0.00057464
-0.000425301
-0.000496006
-0.000402791
-0.000421703
-0.000377365
-0.000352206
-0.000349085
-0.000287968
-0.000318079
-0.000229413
-0.000284554
-0.000176926
-0.000248819
-0.000130845
-0.000211305
-9.14472e-05
-0.000172604
-5.89447e-05
-0.000133512
-3.34781e-05
-9.50653e-05
-1.51159e-05
-5.85777e-05
-3.88327e-06
-2.62346e-05
-3.65622e-06
-3.47745e-06
-4.19023e-05
-1.39874e-05
-9.28691e-06
-3.24421e-05
7.15084e-05
-5.9226e-05
0.000140845
-9.426e-05
0.000197314
-0.000137287
0.000246056
-0.000187847
0.000289889
-0.000245531
0.000330348
-0.000309843
0.00036808
-0.00038031
0.000403297
-0.000456437
0.000435974
-0.000537708
0.000465984
-0.000623612
0.00049319
-0.000713605
0.000517463
-0.000807171
0.000538718
-0.000903748
0.000556909
-0.00100283
0.000572025
-0.00110388
0.000584114
-0.00120639
0.000593225
-0.00130985
0.000599447
-0.00141379
0.000602884
-0.00151775
0.000603655
-0.0016213
0.000601874
-0.00172403
0.000597672
-0.00182554
0.000591185
-0.0019255
0.00058254
-0.00202357
0.000571869
-0.00211943
0.000559301
-0.00221279
0.000544969
-0.00230341
0.000529001
-0.00239103
0.000511514
-0.00247541
0.000492626
-0.00255636
0.000472458
-0.00263367
0.000451118
-0.00270716
0.000428704
-0.00277666
0.000405313
-0.00284202
0.000381039
-0.0029031
0.000355965
-0.00295977
0.000330162
-0.00301191
0.000303704
-0.00305941
0.000276658
-0.00310219
0.000249088
-0.00314016
0.000221052
-0.00317326
0.000192606
-0.00320141
0.0001638
-0.00322457
0.000134686
-0.0032427
0.000105315
-0.00325575
7.57363e-05
-0.00326372
4.59997e-05
-0.00326658
1.61543e-05
-0.00326433
-1.37543e-05
-0.00325697
-4.36765e-05
-0.00324451
-7.35547e-05
-0.00322697
-0.000103339
-0.00320439
-0.000132981
-0.00317679
-0.000162424
-0.00314424
-0.000191605
-0.00310678
-0.000220464
-0.00306449
-0.000248935
-0.00301744
-0.000276952
-0.00296572
-0.000304451
-0.00290943
-0.000331368
-0.0028487
-0.00035762
-0.00278364
-0.000383126
-0.0027144
-0.000407806
-0.00264115
-0.000431579
-0.00256404
-0.000454354
-0.00248327
-0.000476031
-0.00239905
-0.000496505
-0.0023116
-0.000515668
-0.00222115
-0.000533401
-0.00212796
-0.000549587
-0.00203231
-0.000564106
-0.00193449
-0.000576825
-0.00183483
-0.000587605
-0.00173365
-0.000596303
-0.00163132
-0.000602783
-0.00152821
-0.000606904
-0.00142471
-0.000608522
-0.00132126
-0.000607488
-0.00121829
-0.000603658
-0.00111628
-0.000596896
-0.00101569
-0.000587074
-0.000917025
-0.000574074
-0.000820794
-0.000557798
-0.000727518
-0.000538158
-0.000637726
-0.000515093
-0.000551943
-0.000488575
-0.000470686
-0.000458622
-0.000394463
-0.000425308
-0.000323762
-0.00038878
-0.000259045
-0.000349271
-0.000200744
-0.00030712
-0.000149256
-0.000262793
-0.000104926
-0.000216934
-6.80557e-05
-0.000170382
-3.89027e-05
-0.000124218
-1.76742e-05
-7.98061e-05
-4.57972e-06
-3.93291e-05
-8.23592e-06
-5.2011e-06
-3.67013e-05
-1.891e-05
4.42198e-06
-4.09475e-05
9.35459e-05
-7.1633e-05
0.000171531
-0.000110969
0.000236649
-0.000158643
0.00029373
-0.000214275
0.00034552
-0.000277364
0.000393436
-0.000347403
0.000438119
-0.000423871
0.000479765
-0.000506234
0.000518337
-0.000593947
0.000553697
-0.000686461
0.000585704
-0.000783197
0.0006142
-0.000883629
0.00063915
-0.000987164
0.000660444
-0.00109328
0.000678142
-0.0012014
0.000692232
-0.00131101
0.000702835
-0.00142159
0.00071003
-0.00153264
0.000713936
-0.00164368
0.000714691
-0.00175426
0.00071245
-0.00186395
0.000707365
-0.00197235
0.000699581
-0.00207906
0.000689258
-0.00218376
0.000676566
-0.00228611
0.000661653
-0.0023858
0.000644662
-0.00248255
0.000625744
-0.00257609
0.000605055
-0.00266619
0.000582727
-0.00275262
0.000558883
-0.00283515
0.000533653
-0.00291361
0.000507162
-0.00298781
0.000479519
-0.0030576
0.000450823
-0.00312281
0.000421173
-0.00318331
0.000390662
-0.00323898
0.000359373
-0.0032897
0.000327386
-0.00333539
0.000294773
-0.00337594
0.000261606
-0.00341129
0.000227954
-0.00344137
0.000193877
-0.00346611
0.000159434
-0.00348549
0.000124691
-0.00349946
8.9705e-05
-0.00350799
5.45343e-05
-0.00351108
1.92377e-05
-0.0035087
-1.61287e-05
-0.00350087
-5.15046e-05
-0.0034876
-8.68239e-05
-0.00346891
-0.000122029
-0.00344483
-0.000157063
-0.0034154
-0.000191857
-0.00338067
-0.000226335
-0.0033407
-0.000260428
-0.00329558
-0.000294064
-0.00324536
-0.000327164
-0.00319016
-0.000359652
-0.00313009
-0.000391445
-0.00306525
-0.000422451
-0.00299581
-0.000452574
-0.00292189
-0.000481722
-0.00284367
-0.000509799
-0.00276133
-0.000536693
-0.00267507
-0.000562288
-0.00258512
-0.000586462
-0.0024917
-0.00060909
-0.00239506
-0.000630037
-0.00229548
-0.000649166
-0.00219325
-0.000666334
-0.00208869
-0.000681388
-0.00198213
-0.000694167
-0.00187392
-0.000704511
-0.00176444
-0.000712259
-0.0016541
-0.00071725
-0.0015433
-0.000719315
-0.00143251
-0.000718283
-0.00132218
-0.000713989
-0.00121279
-0.000706278
-0.00110486
-0.000695004
-0.000998903
-0.000680035
-0.000895447
-0.000661253
-0.000795044
-0.000638562
-0.000698244
-0.000611893
-0.0006056
-0.000581219
-0.000517658
-0.000546563
-0.000434956
-0.00050801
-0.000358019
-0.000465717
-0.00028735
-0.00041994
-0.000223434
-0.000371035
-0.000166723
-0.000319504
-0.00011764
-0.000266017
-7.65795e-05
-0.000211443
-4.39131e-05
-0.000156885
-1.99915e-05
-0.000103728
-5.18852e-06
-5.4132e-05
-1.34244e-05
-6.63049e-06
-3.00708e-05
-2.31675e-05
2.09589e-05
-4.8505e-05
0.000118883
-8.28968e-05
0.000205923
-0.000126316
0.000280068
-0.000178486
0.0003459
-0.000238987
0.000406022
-0.000307304
0.000461753
-0.000382877
0.000513693
-0.000465149
0.000562038
-0.000553535
0.000606722
-0.000647457
0.00064762
-0.000746324
0.00068457
-0.000849567
0.000717443
-0.000956571
0.000746154
-0.00106678
0.000770649
-0.00117958
0.000790951
-0.00129446
0.000807109
-0.00141083
0.000819208
-0.00152816
0.000827356
-0.00164594
0.000831711
-0.00176367
0.00083243
-0.0018809
0.000829671
-0.00199714
0.000823609
-0.002112
0.000814439
-0.00222509
0.000802348
-0.00233602
0.000787502
-0.00244445
0.00077008
-0.00255006
0.00075027
-0.00265256
0.000728244
-0.00275166
0.000704157
-0.0028471
0.000678164
-0.00293864
0.000650425
-0.00302607
0.000621085
-0.00310918
0.000590275
-0.00318778
0.000558117
-0.0032617
0.000524737
-0.00333077
0.000490248
-0.00339486
0.000454752
-0.00345384
0.000418346
-0.00350757
0.000381125
-0.00355598
0.000343176
-0.00359895
0.000304581
-0.00363642
0.000265417
-0.0036683
0.000225757
-0.00369454
0.000185675
-0.00371509
0.000145246
-0.00372992
0.000104536
-0.003739
6.36105e-05
-0.0037423
2.25422e-05
-0.00373983
-1.86013e-05
-0.00373158
-5.97517e-05
-0.00371757
-0.000100835
-0.00369782
-0.000141783
-0.00367235
-0.000182529
-0.00364122
-0.000222989
-0.00360448
-0.000263078
-0.00356219
-0.000302718
-0.00351443
-0.000341827
-0.00346127
-0.000380315
-0.00340284
-0.000418088
-0.00333923
-0.00045505
-0.00327059
-0.000491096
-0.00319704
-0.000526118
-0.00311876
-0.000560007
-0.00303591
-0.000592651
-0.00294868
-0.000623919
-0.0028573
-0.000653675
-0.00276197
-0.000681784
-0.00266296
-0.000708101
-0.00256052
-0.000732474
-0.00245495
-0.000754742
-0.00234654
-0.000774739
-0.00223564
-0.000792293
-0.00212258
-0.000807223
-0.00200775
-0.000819344
-0.00189154
-0.000828475
-0.00177436
-0.000834429
-0.00165666
-0.000837015
-0.0015389
-0.000836039
-0.00142158
-0.000831314
-0.00130519
-0.000822666
-0.00119026
-0.000809932
-0.00107734
-0.000792961
-0.000966971
-0.000771618
-0.000859737
-0.000745795
-0.000756212
-0.000715418
-0.000656972
-0.000680459
-0.000562593
-0.000640942
-0.000473647