/*--------------------------------*- C++ -*----------------------------------*\
  =========                 |
  \\      /  F ield         | OpenFOAM: The Open Source CFD Toolbox
   \\    /   O peration     | Website:  https://openfoam.org
    \\  /    A nd           | Version:  11
     \\/     M anipulation  |
\*---------------------------------------------------------------------------*/
FoamFile
{
    format      ascii;
    class       volScalarField;
    location    "7.2";
    object      p;
}
// * * * * * * * * * * * * * * * * * * * * * * * * * * * * * * * * * * * * * //

dimensions      [0 2 -2 0 0 0 0];

internalField   nonuniform List<scalar> 
10100
(
-5.95499e-08
8.88247e-05
-0.000130818
-0.000704301
-0.0015828
-0.00271095
-0.00403283
-0.00549461
-0.00704779
-0.00864983
-0.0102638
-0.0118571
-0.0134015
-0.0148726
-0.0162491
-0.0175134
-0.0186501
-0.0196462
-0.0204908
-0.0211743
-0.0216894
-0.0220305
-0.0221935
-0.022175
-0.021973
-0.021587
-0.0210169
-0.0202641
-0.0193305
-0.0182189
-0.0169325
-0.0154754
-0.0138525
-0.0120691
-0.0101313
-0.00804549
-0.00581865
-0.00345814
-0.000971634
0.00163274
0.00434635
0.00716021
0.0100652
0.0130518
0.0161105
0.0192311
0.0224037
0.0256178
0.0288631
0.032129
0.0354044
0.0386785
0.0419403
0.0451786
0.0483824
0.0515406
0.0546422
0.0576765
0.060633
0.0635012
0.0662705
0.068931
0.0714729
0.0738871
0.0761648
0.0782975
0.0802773
0.0820963
0.0837477
0.0852254
0.0865241
0.0876393
0.0885673
0.0893049
0.0898501
0.090202
0.090361
0.0903285
0.0901072
0.0897016
0.0891175
0.0883626
0.0874457
0.0863776
0.0851708
0.08384
0.0824023
0.0808777
0.0792891
0.0776623
0.0760268
0.0744155
0.072866
0.0714201
0.0701249
0.0690315
0.0681919
0.0676562
0.0674663
0.0675713
-9.16458e-05
-9.48946e-06
-0.000226685
-0.000741486
-0.00150404
-0.0024755
-0.00361535
-0.00488149
-0.0062336
-0.00763517
-0.00905343
-0.0104592
-0.0118262
-0.0131319
-0.014356
-0.015481
-0.0164922
-0.0173769
-0.0181241
-0.0187245
-0.0191707
-0.0194567
-0.019578
-0.0195312
-0.019314
-0.0189253
-0.0183647
-0.017633
-0.016732
-0.0156639
-0.0144315
-0.0130387
-0.0114895
-0.0097891
-0.00794283
-0.00595676
-0.00383746
-0.00159174
0.000773198
0.00324965
0.00582956
0.00850441
0.0112655
0.0141039
0.0170104
0.0199755
0.0229897
0.0260433
0.0291264
0.0322287
0.0353399
0.0384496
0.0415474
0.0446226
0.047665
0.050664
0.053609
0.0564901
0.0592974
0.0620209
0.0646507
0.0671772
0.0695915
0.0718853
0.0740501
0.076078
0.0779616
0.0796938
0.0812681
0.0826792
0.0839223
0.0849933
0.0858889
0.0866064
0.0871444
0.0875024
0.087681
0.0876818
0.0875079
0.0871638
0.0866557
0.0859911
0.0851791
0.0842299
0.0831558
0.0819709
0.080692
0.079338
0.0779306
0.0764938
0.0750546
0.0736427
0.0722911
0.071036
0.0699161
0.0689718
0.068241
0.0677588
0.0675704
0.0676761
0.000120908
0.00019254
-2.76445e-05
-0.000512912
-0.00120978
-0.00208589
-0.003109
-0.00424439
-0.00545784
-0.00671767
-0.00799476
-0.0092625
-0.0104973
-0.011678
-0.0127858
-0.0138041
-0.0147182
-0.015516
-0.0161871
-0.0167222
-0.0171138
-0.017356
-0.0174441
-0.0173747
-0.0171452
-0.0167543
-0.0162013
-0.0154869
-0.0146122
-0.0135793
-0.0123908
-0.0110501
-0.00956098
-0.007928
-0.00615634
-0.00425165
-0.00222011
-6.81219e-05
0.00219753
0.00456941
0.00703984
0.00960092
0.0122443
0.0149615
0.0177435
0.0205814
0.023466
0.0263883
0.0293388
0.0323074
0.0352844
0.0382599
0.0412238
0.044166
0.0470766
0.0499456
0.0527632
0.0555196
0.0582056
0.0608114
0.0633276
0.0657453
0.0680562
0.0702523
0.0723257
0.0742688
0.0760747
0.0777365
0.0792487
0.080606
0.0818043
0.0828397
0.0837092
0.0844106
0.0849427
0.0853053
0.0854992
0.0855262
0.0853894
0.0850936
0.0846449
0.0840509
0.0833201
0.0824627
0.0814903
0.0804168
0.079258
0.0780321
0.0767591
0.0754615
0.0741637
0.0728927
0.0716776
0.07055
0.0695429
0.0686898
0.0680219
0.0675684
0.0673809
0.0674868
0.000677745
0.000687509
0.000434374
-5.25552e-05
-0.000723917
-0.00155054
-0.00250471
-0.00355679
-0.00467738
-0.00583858
-0.00701449
-0.0081812
-0.00931699
-0.0104026
-0.0114207
-0.0123555
-0.0131933
-0.0139222
-0.0145323
-0.0150148
-0.0153625
-0.0155693
-0.0156306
-0.0155427
-0.0153033
-0.0149107
-0.0143644
-0.0136646
-0.0128123
-0.0118093
-0.0106579
-0.00936128
-0.00792295
-0.00634719
-0.0046389
-0.00280341
-0.000846424
0.00122593
0.00340708
0.00568996
0.00806723
0.0105314
0.0130744
0.0156882
0.0183642
0.0210938
0.0238683
0.0266789
0.0295164
0.0323712
0.035234
0.0380954
0.0409455
0.0437747
0.0465735
0.0493322
0.0520417
0.0546926
0.0572758
0.0597821
0.0622023
0.0645281
0.0667518
0.0688656
0.070862
0.0727337
0.0744741
0.076077
0.0775369
0.0788492
0.0800097
0.0810151
0.0818626
0.0825503
0.0830772
0.0834432
0.0836492
0.0836971
0.08359
0.0833328
0.0829315
0.0823934
0.0817268
0.0809413
0.0800481
0.0790606
0.0779938
0.0768646
0.0756917
0.0744957
0.0732989
0.0721255
0.0710017
0.0699551
0.0690145
0.0682091
0.0675661
0.0671127
0.0668977
0.0669532
0.00153272
0.00142808
0.00110797
0.000592865
-8.02269e-05
-0.000885559
-0.00179885
-0.00279486
-0.00384827
-0.00493487
-0.00603184
-0.00711776
-0.00817303
-0.00917987
-0.0101225
-0.0109863
-0.0117586
-0.0124282
-0.0129853
-0.0134219
-0.013731
-0.0139067
-0.0139444
-0.0138405
-0.0135926
-0.0131991
-0.0126593
-0.0119733
-0.011142
-0.0101668
-0.00904992
-0.00779417
-0.00640295
-0.00488032
-0.00323088
-0.00145964
0.000428034
0.00242631
0.00452883
0.00672888
0.00901952
0.0113935
0.0138432
0.0163607
0.018938
0.0215668
0.0242389
0.0269456
0.0296781
0.0324271
0.0351838
0.0379391
0.0406835
0.0434078
0.0461027
0.0487593
0.0513687
0.0539219
0.0564101
0.0588242
0.0611557
0.0633967
0.0655398
0.0675777
0.0695031
0.071309
0.0729891
0.0745377
0.0759496
0.0772203
0.078346
0.0793236
0.0801507
0.0808254
0.081347
0.0817155
0.0819317
0.0819975
0.0819162
0.0816925
0.0813324
0.0808427
0.0802312
0.0795071
0.0786813
0.0777662
0.0767762
0.0757268
0.0746353
0.0735203
0.0724019
0.0713021
0.070244
0.0692518
0.0683505
0.0675656
0.0669211
0.0664415
0.066165
0.0661161
0.0026355
0.00237924
0.00196425
0.00139718
0.000697947
-0.000110811
-0.00100798
-0.00197207
-0.00298165
-0.00401555
-0.00505384
-0.00607781
-0.00706976
-0.00801346
-0.00889455
-0.00969982
-0.0104173
-0.0110368
-0.0115492
-0.0119467
-0.0122227
-0.0123717
-0.0123893
-0.0122719
-0.0120172
-0.0116236
-0.0110903
-0.0104174
-0.00960563
-0.00865626
-0.00757129
-0.0063533
-0.00500553
-0.0035319
-0.0019367
-0.000224601
0.00159922
0.00352913
0.00555907
0.00768268
0.00989339
0.0121842
0.0145477
0.0169764
0.0194626
0.0219986
0.0245762
0.0271871
0.0298227
0.0324743
0.0351333
0.0377909
0.040438
0.0430656
0.0456651
0.048228
0.0507455
0.053209
0.0556099
0.0579396
0.0601899
0.0623533
0.0644229
0.0663915
0.0682519
0.0699977
0.0716228
0.0731218
0.0744899
0.0757226
0.0768164
0.0777685
0.0785767
0.0792392
0.0797554
0.0801252
0.0803495
0.0804303
0.0803708
0.0801755
0.0798502
0.0794012
0.078836
0.0781632
0.0773931
0.0765375
0.0756096
0.0746238
0.0735958
0.0725424
0.0714818
0.0704336
0.0694182
0.0684567
0.0675707
0.0667821
0.0661121
0.0655825
0.0652156
0.0650228
0.00393644
0.0035043
0.00297315
0.00233393
0.00158761
0.000753579
-0.000149321
-0.00110335
-0.00209013
-0.00309159
-0.00409047
-0.00507019
-0.00601499
-0.00691057
-0.00774359
-0.0085023
-0.0091758
-0.00975455
-0.0102303
-0.0105956
-0.0108444
-0.0109713
-0.0109723
-0.010844
-0.0105843
-0.0101915
-0.00966484
-0.0090044
-0.00821076
-0.00728514
-0.00622933
-0.00504584
-0.00373778
-0.00230886
-0.000763068
0.000895184
0.00266081
0.00452839
0.00649219
0.00854616
0.010684
0.0128989
0.0151838
0.0175315
0.0199349
0.0223863
0.0248778
0.0274014
0.0299488
0.0325118
0.0350819
0.0376507
0.0402092
0.0427491
0.0452621
0.0477401
0.0501744
0.0525567
0.0548786
0.0571319
0.0593089
0.0614024
0.0634057
0.0653117
0.0671137
0.0688053
0.0703809
0.0718354
0.073164
0.0743625
0.0754275
0.0763564
0.0771472
0.0777983
0.0783088
0.0786788
0.0789091
0.0790019
0.0789601
0.078788
0.078491
0.0780752
0.0775474
0.0769158
0.07619
0.0753809
0.0745009
0.0735631
0.0725816
0.0715715
0.0705493
0.0695323
0.0685385
0.0675862
0.0666939
0.0658801
0.0651637
0.0645635
0.0640842
0.0637215
0.00538902
0.00476599
0.00410338
0.00337612
0.00256538
0.00168814
0.000760961
-0.000201275
-0.00118345
-0.0021702
-0.0031464
-0.00409755
-0.00500988
-0.00587065
-0.00666805
-0.00739122
-0.00803057
-0.00857734
-0.00902388
-0.00936345
-0.0095903
-0.0096996
-0.00968749
-0.00955095
-0.00928785
-0.00889676
-0.00837697
-0.00772843
-0.00695168
-0.00604785
-0.00501872
-0.00386672
-0.00259481
-0.00120643
0.000294549
0.00190385
0.00361659
0.00542761
0.00733145
0.00932225
0.0113939
0.0135398
0.0157534
0.0180278
0.0203561
0.0227308
0.0251443
0.0275888
0.0300565
0.0325392
0.0350288
0.0375172
0.0399957
0.0424564
0.0448915
0.0472929
0.0496523
0.0519615
0.0542123
0.0563971
0.0585084
0.0605392
0.062483
0.064333
0.0660827
0.0677259
0.0692574
0.0706721
0.0719653
0.073133
0.0741721
0.0750801
0.075855
0.0764953
0.077
0.0773691
0.0776036
0.0777054
0.0776774
0.0775237
0.0772492
0.0768594
0.0763609
0.0757611
0.075069
0.0742948
0.0734498
0.0725457
0.0715954
0.0706124
0.0696115
0.0686078
0.0676173
0.0666558
0.0657388
0.0648817
0.0641014
0.0634144
0.0628066
0.0622581
0.00695195
0.00612986
0.00532527
0.00449762
0.00360895
0.00267372
0.00170702
0.000720909
-0.000272205
-0.00125923
-0.00222721
-0.00316366
-0.00405661
-0.00489451
-0.00566723
-0.00636505
-0.00697923
-0.00750197
-0.00792627
-0.00824602
-0.00845597
-0.00855178
-0.00852986
-0.00838744
-0.00812266
-0.00773422
-0.00722142
-0.00658421
-0.00582315
-0.0049394
-0.00393466
-0.00281126
-0.00157208
-0.000220379
0.0012401
0.00280517
0.00447013
0.00623007
0.00807977
0.0100135
0.0120254
0.0141092
0.0162585
0.0184668
0.0207274
0.0230329
0.0253761
0.0277493
0.0301452
0.0325558
0.034973
0.037389
0.0397958
0.0421855
0.0445508
0.0468837
0.0491761
0.0514199
0.0536073
0.055731
0.0577838
0.0597589
0.0616498
0.0634501
0.0651533
0.0667537
0.068246
0.0696254
0.0708872
0.0720277
0.0730437
0.0739329
0.0746933
0.0753234
0.0758221
0.0761895
0.0764263
0.0765345
0.0765169
0.076377
0.0761194
0.0757493
0.0752724
0.0746958
0.0740279
0.073278
0.0724562
0.0715733
0.0706406
0.0696704
0.0686757
0.0676701
0.0666672
0.0656807
0.0647235
0.0638082
0.0629502
0.0621638
0.0614165
0.0606734
0.00858925
0.0075646
0.00661125
0.00567423
0.0046969
0.00369197
0.00267315
0.00164993
0.000632679
-0.000367545
-0.00133991
-0.00227379
-0.0031587
-0.00398469
-0.00474255
-0.00542403
-0.0060213
-0.00652727
-0.00693567
-0.00724111
-0.00743886
-0.00752496
-0.00749623
-0.00735029
-0.00708539
-0.00670038
-0.00619467
-0.0055683
-0.00482183
-0.00395643
-0.00297385
-0.00187634
-0.000666621
0.000652119
0.00207621
0.00360155
0.00522367
0.00693787
0.00873904
0.0106216
0.0125799
0.014608
0.0166999
0.0188491
0.0210491
0.0232928
0.0255731
0.0278829
0.0302147
0.0325608
0.0349134
0.037265
0.0396079
0.0419346
0.044238
0.0465102
0.0487432
0.050929
0.0530605
0.0551303
0.0571315
0.0590575
0.0609019
0.0626585
0.064321
0.0658839
0.0673419
0.0686904
0.0699247
0.0710411
0.0720368
0.0729093
0.0736568
0.0742774
0.0747701
0.0751349
0.0753726
0.0754849
0.0754744
0.0753442
0.0750985
0.0747419
0.0742798
0.0737188
0.0730663
0.0723311
0.0715222
0.0706491
0.069722
0.0687519
0.0677503
0.0667293
0.0657007
0.0646758
0.0636654
0.0626799
0.0617333
0.0608383
0.0599447
0.0590029
0.0102695
0.00904201
0.00793613
0.00688335
0.00580915
0.00472517
0.00364388
0.00257283
0.00152034
0.00049567
-0.00049208
-0.00143392
-0.00232081
-0.00314438
-0.00389643
-0.00456968
-0.00515729
-0.00565307
-0.00605142
-0.00634756
-0.00653735
-0.00661727
-0.00658455
-0.00643713
-0.0061735
-0.00579265
-0.0052941
-0.004678
-0.00394503
-0.00309638
-0.00213378
-0.00105943
0.000124001
0.00141331
0.00280494
0.00429497
0.00587906
0.00755265
0.00931071
0.0111478
0.0130586
0.0150374
0.0170784
0.0191752
0.0213215
0.0235105
0.0257353
0.0279889
0.0302642
0.0325533
0.034849
0.0371438
0.0394306
0.0417021
0.0439512
0.0461701
0.048351
0.0504863
0.0525688
0.0545918
0.0565482
0.0584315
0.0602356
0.0619543
0.0635817
0.0651122
0.0665407
0.0678625
0.069073
0.0701687
0.0711467
0.0720048
0.0727407
0.0733527
0.0738395
0.0742012
0.0744385
0.0745529
0.0745466
0.0744224
0.0741839
0.0738354
0.0733819
0.0728293
0.0721847
0.0714555
0.0706501
0.0697768
0.0688448
0.0678637
0.066844
0.0657961
0.0647301
0.0636555
0.0625814
0.061516
0.0604724
0.0594624
0.0584185
0.0572772
0.0119658
0.0105369
0.0092771
0.00810409
0.00692702
0.00575643
0.00460444
0.00347678
0.00237979
0.00132111
0.000308529
-0.000650383
-0.00154824
-0.00237761
-0.00313172
-0.00380403
-0.00438856
-0.00487997
-0.00527352
-0.00556496
-0.00575063
-0.00582751
-0.00579335
-0.00564636
-0.00538517
-0.00500899
-0.00451757
-0.00391121
-0.00319066
-0.00235711
-0.0014123
-0.000358474
0.000801692
0.00206503
0.00342809
0.0048871
0.00643783
0.00807573
0.0097959
0.0115932
0.0134623
0.0153981
0.0173945
0.0194455
0.0215448
0.0236861
0.0258624
0.0280671
0.030293
0.0325325
0.0347785
0.0370242
0.0392624
0.0414862
0.0436883
0.0458612
0.0479972
0.050089
0.0521298
0.0541126
0.0560307
0.0578776
0.0596473
0.0613339
0.0629316
0.0644348
0.0658384
0.0671375
0.068328
0.0694062
0.0703694
0.0712151
0.0719411
0.0725453
0.0730266
0.0733848
0.0736207
0.0737355
0.0737309
0.0736093
0.0733739
0.0730287
0.0725782
0.072028
0.0713841
0.0706535
0.0698433
0.068961
0.0680148
0.0670132
0.0659655
0.0648807
0.0637675
0.062634
0.0614874
0.0603345
0.0591878
0.0580582
0.056862
0.0555228
0.0136545
0.0120273
0.0106131
0.00931732
0.00803293
0.00677007
0.00554077
0.00434915
0.00320002
0.00209943
0.00105396
7.00305e-05
-0.000846443
-0.00168907
-0.002452
-0.00312965
-0.00371697
-0.00420939
-0.00460278
-0.00489349
-0.00507846
-0.00515524
-0.0051219
-0.00497687
-0.00471907
-0.004348
-0.00386365
-0.00326638
-0.00255703
-0.00173688
-0.000807735
0.000228101
0.00136795
0.00260876
0.0039471
0.0053793
0.00690114
0.00850813
0.0101956
0.0119585
0.0137919
0.0156904
0.0176485
0.01966
0.021719
0.0238193
0.0259541
0.0281169
0.0303003
0.0324973
0.0347011
0.036905
0.0391021
0.0412853
0.0434476
0.0455815
0.0476797
0.049735
0.0517407
0.05369
0.055576
0.0573926
0.059134
0.0607942
0.0623674
0.0638482
0.0652312
0.066512
0.0676861
0.0687502
0.0697013
0.0705369
0.0712545
0.071852
0.0723282
0.0726829
0.0729167
0.0730304
0.0730253
0.0729033
0.0726675
0.0723213
0.0718691
0.0713157
0.0706666
0.0699277
0.0691054
0.0682065
0.067238
0.0662077
0.0651235
0.0639934
0.0628248
0.0616246
0.0603986
0.0591522
0.0578977
0.0566456
0.0552966
0.053762
0.0153157
0.0134933
0.0119253
0.0105052
0.0091106
0.00775135
0.00643941
0.00517785
0.00397021
0.00282123
0.0017361
0.000720118
-0.000221446
-0.00108363
-0.00186134
-0.00254993
-0.00314517
-0.00364322
-0.00404053
-0.00433408
-0.00452143
-0.00460063
-0.00456995
-0.00442815
-0.00417455
-0.00380892
-0.0033314
-0.00274245
-0.00204301
-0.00123455
-0.000318979
0.000701402
0.00182393
0.00304558
0.004363
0.00577247
0.00726977
0.00885057
0.0105103
0.0122443
0.0140475
0.0159148
0.0178404
0.0198187
0.0218439
0.0239098
0.0260099
0.0281374
0.0302853
0.0324469
0.0346156
0.0367849
0.0389479
0.0410975
0.0432269
0.0453289
0.0473962
0.0494219
0.0513992
0.0533213
0.0551816
0.0569739
0.0586926
0.060332
0.061886
0.0633491
0.0647161
0.0659825
0.0671441
0.0681974
0.0691392
0.0699668
0.0706778
0.0712698
0.0717417
0.0720932
0.0723245
0.0724359
0.0724284
0.0723036
0.0720643
0.0717136
0.0712555
0.0706942
0.0700343
0.0692813
0.0684407
0.0675183
0.0665206
0.0654543
0.0643265
0.0631439
0.0619131
0.0606399
0.0593289
0.0579844
0.0566188
0.0552423
0.0537409
0.0520141
0.0169316
0.0149175
0.013197
0.0116517
0.0101449
0.00868614
0.00728749
0.00595128
0.00467986
0.00347685
0.00234644
0.00129277
0.000320385
-0.000566703
-0.00136434
-0.00206874
-0.00267636
-0.00318398
-0.00358876
-0.00388834
-0.00408078
-0.00416441
-0.00413787
-0.00400037
-0.00375162
-0.00339156
-0.00292041
-0.00233884
-0.00164802
-0.000849545
5.45856e-05
0.00106208
0.0021703
0.00337619
0.00467635
0.00606706
0.00754417
0.00910349
0.0107407
0.0124509
0.0142294
0.0160709
0.0179701
0.0199214
0.0219192
0.0239572
0.0260289
0.0281277
0.030247
0.0323801
0.0345208
0.0366624
0.0387982
0.0409212
0.0430246
0.0451015
0.0471448
0.0491474
0.0511027
0.0530039
0.0548446
0.0566187
0.0583206
0.0599445
0.0614844
0.0629346
0.0642901
0.0655464
0.0666993
0.067745
0.0686803
0.0695024
0.0702085
0.0707966
0.0712652
0.0716138
0.0718423
0.0719506
0.0719393
0.0718098
0.0715645
0.0712063
0.0707387
0.0701652
0.06949
0.0687177
0.0678531
0.0669015
0.0658686
0.0647603
0.0635827
0.0623418
0.0610431
0.0596916
0.0582911
0.0568449
0.0553657
0.0538638
0.0522111
0.0502957
0.0184862
0.0162845
0.0144128
0.0127421
0.0111216
0.00956123
0.00807293
0.00665815
0.00531859
0.00405699
0.0028765
0.00178057
0.000772549
-0.000144031
-0.000966034
-0.00169038
-0.00231415
-0.00283476
-0.00325013
-0.00355843
-0.00375811
-0.00384779
-0.00382666
-0.00369436
-0.00345084
-0.00309618
-0.00263077
-0.00205559
-0.00137203
-0.000581805
0.000313117
0.0013104
0.00240734
0.00360079
0.0048873
0.00626319
0.00772447
0.00926703
0.0108865
0.0125782
0.0143373
0.0161587
0.0180373
0.0199677
0.0219442
0.0239605
0.0260102
0.0280869
0.0301843
0.0322958
0.0344152
0.036536
0.0386513
0.0407543
0.0428386
0.0448972
0.0469231
0.0489092
0.0508489
0.0527355
0.0545626
0.0563244
0.0580152
0.059629
0.0611598
0.062602
0.0639506
0.065201
0.066349
0.0673906
0.0683224
0.0691413
0.0698447
0.0704304
0.0708969
0.0712432
0.0714689
0.0715736
0.0715575
0.0714219
0.0711687
0.0708006
0.0703204
0.0697311
0.0690365
0.0682404
0.0673472
0.0663615
0.0652883
0.0641328
0.0629003
0.0615961
0.0602248
0.0587908
0.0572972
0.0557466
0.0541521
0.0525243
0.0507216
0.0486211
0.0199658
0.0175798
0.0155589
0.013763
0.012028
0.0103642
0.00878397
0.00728773
0.00587656
0.00455259
0.00331813
0.00217594
0.00112846
0.000178431
-0.000671676
-0.0014194
-0.0020625
-0.00259912
-0.00302772
-0.0033469
-0.00355546
-0.00365254
-0.00363788
-0.0035114
-0.00327316
-0.00292346
-0.00246307
-0.00189326
-0.00121555
-0.000431645
0.000456436
0.00144622
0.00253485
0.00371913
0.00499564
0.00636078
0.0078106
0.00934101
0.0109476
0.0126257
0.0143707
0.0161777
0.0180416
0.0199569
0.021918
0.0239188
0.0259528
0.028014
0.0300961
0.0321927
0.0342975
0.036404
0.0385054
0.0405953
0.0426671
0.0447141
0.0467291
0.0487051
0.0506354
0.0525136
0.0543333
0.0560887
0.0577739
0.0593829
0.0609098
0.0623489
0.0636953
0.0649442
0.0660912
0.0671322
0.0680634
0.0688818
0.0695848
0.07017
0.0706357
0.0709806
0.0712038
0.0713047
0.0712833
0.0711405
0.070878
0.0704979
0.0700026
0.0693946
0.068677
0.0678534
0.0669277
0.0659038
0.064786
0.063579
0.0622874
0.0609157
0.059468
0.057948
0.0563583
0.0547012
0.0529902
0.0512363
0.0492849
0.0470028
0.0213578
0.0187909
0.0166225
0.0147019
0.0128521
0.0110837
0.00940957
0.00782965
0.00634418
0.0049548
0.00366333
0.00247146
0.00138125
0.000394534
-0.00048671
-0.00126068
-0.00192587
-0.00248102
-0.00292494
-0.00325663
-0.0034754
-0.00358106
-0.00357362
-0.00345316
-0.00321992
-0.00287466
-0.00241852
-0.00185293
-0.00117939
-0.000399676
0.000483982
0.00146892
0.00255222
0.00373069
0.00500097
0.00635944
0.00780214
0.00932491
0.0109234
0.012593
0.0143292
0.0161272
0.0179821
0.0198881
0.0218398
0.023831
0.0258557
0.0279078
0.0299812
0.0320693
0.0341659
0.0362646
0.0383589
0.0404423
0.0425083
0.0445502
0.0465606
0.0485328
0.0504601
0.0523361
0.0541546
0.0559093
0.0575945
0.0592042
0.0607323
0.0621733
0.0635222
0.064774
0.065924
0.0669678
0.0679017
0.0687226
0.0694277
0.0700145
0.070481
0.0708255
0.071047
0.0711444
0.0711175
0.0709669
0.070694
0.0703003
0.0697879
0.0691587
0.0684154
0.0675613
0.0665997
0.0655342
0.0643684
0.0631063
0.0617519
0.0603091
0.0587817
0.0571728
0.0554848
0.0537196
0.0518912
0.0500112
0.0479124
0.0454515
0.0226511
0.0199063
0.017592
0.0155474
0.0135826
0.0117088
0.00993933
0.00827395
0.00671214
0.00525499
0.00390384
0.00265967
0.00152396
0.000497968
-0.000416925
-0.00121962
-0.00190921
-0.00248477
-0.00294552
-0.00329102
-0.0035212
-0.00363625
-0.00363629
-0.00352165
-0.00329305
-0.00295167
-0.00249883
-0.00193596
-0.00126468
-0.000486974
0.000394675
0.00137749
0.00245855
0.00363472
0.0049026
0.00625848
0.00769831
0.00921791
0.010813
0.0124792
0.0142119
0.0160065
0.0178578
0.0197603
0.0217083
0.0236962
0.0257178
0.0277672
0.0298381
0.0319241
0.034019
0.0361165
0.0382102
0.0402936
0.0423603
0.0444034
0.0464158
0.0483905
0.0503212
0.0522012
0.0540243
0.0557842
0.057475
0.0590908
0.0606255
0.0620735
0.0634296
0.0646887
0.0658457
0.0668962
0.0678363
0.0686628
0.0693727
0.0699634
0.0704324
0.070778
0.0709986
0.0710932
0.071061
0.0709025
0.0706185
0.0702102
0.069679
0.0690267
0.0682556
0.0673685
0.0663685
0.0652585
0.0640417
0.0627214
0.0613012
0.0597844
0.0581745
0.0564745
0.0546864
0.0528117
0.0508652
0.048859
0.046614
0.0439767
0.0238355
0.0209154
0.0184567
0.0162887
0.014209
0.0122291
0.0103634
0.00861113
0.00697136
0.0054446
0.00403155
0.00273303
0.00154966
0.00048226
-0.000468469
-0.00130193
-0.00201756
-0.00261487
-0.00309369
-0.00345412
-0.00369652
-0.00382121
-0.0038286
-0.00371948
-0.00349508
-0.00315677
-0.00270592
-0.00214404
-0.001473
-0.000695117
0.000186998
0.00117056
0.00225268
0.00343016
0.00469946
0.00605675
0.00749793
0.00901891
0.0106155
0.0122833
0.0140179
0.0158143
0.0176675
0.019572
0.0215224
0.0235129
0.0255377
0.0275905
0.0296653
0.0317556
0.0338551
0.0359579
0.0380575
0.0401475
0.0422213
0.0442721
0.0462927
0.0482764
0.0502167
0.0521069
0.0539406
0.0557115
0.0574136
0.059041
0.0605876
0.0620476
0.0634158
0.0646866
0.065855
0.0669161
0.067866
0.0687015
0.0694193
0.0700163
0.0704901
0.0708384
0.0710596
0.0711522
0.0711154
0.0709491
0.0706537
0.07023
0.0696791
0.0690024
0.0682018
0.0672798
0.0662392
0.0650824
0.0638121
0.062431
0.0609423
0.0593492
0.0576546
0.0558616
0.0539717
0.0519864
0.0499211
0.0477889
0.0453985
0.0425869
0.0249013
0.0218084
0.0192065
0.0169155
0.014721
0.012635
0.0106724
0.00883211
0.00711297
0.00551509
0.00403862
0.00268397
0.00145122
0.000340622
-0.000647623
-0.00151325
-0.0022561
-0.00287627
-0.00337414
-0.00375024
-0.00400511
-0.00413932
-0.00415378
-0.00404983
-0.00382893
-0.00349251
-0.00304201
-0.00247925
-0.00180645
-0.00102613
-0.000140883
0.000846527
0.00193312
0.00311551
0.00439
0.0057527
0.00719955
0.00872654
0.0103295
0.012004
0.0137455
0.0155491
0.0174096
0.0193219
0.0212806
0.0232798
0.0253138
0.0273763
0.0294611
0.0315619
0.0336727
0.0357873
0.0378993
0.0400022
0.0420895
0.0441544
0.0461897
0.0481888
0.0501449
0.0520515
0.0539017
0.0556895
0.0574086
0.0590532
0.0606171
0.0620944
0.0634795
0.0647667
0.0659507
0.0670266
0.0679904
0.0688384
0.0695672
0.0701735
0.0706544
0.0710074
0.0712308
0.0713229
0.0712824
0.0711088
0.0708022
0.0703629
0.0697917
0.0690896
0.0682584
0.0673002
0.0662172
0.0650117
0.0636857
0.0622417
0.0606824
0.0590108
0.0572298
0.0553421
0.0533491
0.0512522
0.0490676
0.0468091
0.044274
0.0412896
0.0258394
0.0225757
0.0198321
0.0174185
0.0151093
0.012917
0.0108569
0.00892792
0.00712845
0.00545821
0.00391715
0.00250493
0.00122138
6.62482e-05
-0.000960647
-0.00185941
-0.0026304
-0.00327428
-0.00379181
-0.00418377
-0.00445094
-0.00459441
-0.00461563
-0.00451623
-0.00429773
-0.00396165
-0.00350976
-0.00294426
-0.00226763
-0.00148236
-0.000591044
0.000403446
0.00149791
0.00268876
0.00397223
0.00534445
0.00680142
0.00833914
0.00995334
0.0116395
0.0133929
0.0152089
0.0170824
0.0190083
0.0209811
0.0229951
0.0250443
0.0271225
0.0292236
0.0313414
0.0334698
0.0356027
0.0377335
0.0398558
0.0419631
0.0440485
0.046105
0.0481257
0.0501041
0.0520331
0.053906
0.0557165
0.0574586
0.0591261
0.0607128
0.0622126
0.0636195
0.0649279
0.0661322
0.0672274
0.0682091
0.0690735
0.0698168
0.0704354
0.0709261
0.0712863
0.0715139
0.0716071
0.0715642
0.0713842
0.0710669
0.0706122
0.0700204
0.0692925
0.06843
0.0674345
0.066308
0.0650521
0.0636687
0.06216
0.0605284
0.0587768
0.0569079
0.0549241
0.0528268
0.0506172
0.0483127
0.0459278
0.0432483
0.0400919
0.0266414
0.0232085
0.0203241
0.0177886
0.0153648
0.0130659
0.0109081
0.0088898
0.00700925
0.0052658
0.00365907
0.00218828
0.000852909
-0.000347642
-0.00141391
-0.00234653
-0.00314638
-0.00381443
-0.00435172
-0.00475931
-0.0050385
-0.00519091
-0.00521832
-0.00512241
-0.00490481
-0.00456741
-0.00411239
-0.00354222
-0.00285938
-0.00206635
-0.00116588
-0.000161079
0.000944616
0.00214753
0.00344391
0.00482993
0.00630155
0.00785463
0.00948481
0.0111875
0.012958
0.0147919
0.016684
0.0186292
0.020622
0.0226567
0.0247271
0.0268272
0.028951
0.0310921
0.0332446
0.0354022
0.0375583
0.0397064
0.0418401
0.0439525
0.0460367
0.0480856
0.0500924
0.0520501
0.0539518
0.0557913
0.0575622
0.0592584
0.0608735
0.0624011
0.0638351
0.0651696
0.066399
0.0675181
0.0685222
0.0694071
0.0701686
0.0708028
0.0713063
0.0716765
0.0719108
0.072007
0.0719633
0.0717782
0.0714511
0.0709815
0.0703695
0.0696159
0.0687216
0.0676882
0.0665171
0.0652098
0.0637677
0.0621929
0.0604877
0.0586546
0.0566964
0.0546153
0.0524126
0.0500895
0.0476643
0.0451526
0.0423286
0.0390006
0.0272996
0.0236982
0.0206738
0.0180168
0.0154785
0.013073
0.0108172
0.00870914
0.00674687
0.00492962
0.00325641
0.00172639
0.000338593
-0.000907913
-0.00201409
-0.00298106
-0.00381004
-0.00450224
-0.00505903
-0.00548193
-0.00577279
-0.00593356
-0.0059661
-0.00587222
-0.00565394
-0.00531356
-0.00485356
-0.00427645
-0.0035847
-0.00278095
-0.00186822
-0.00084991
0.00027045
0.0014892
0.00280261
0.00420677
0.00569752
0.00727056
0.00892147
0.0106456
0.0124386
0.0142958
0.0162121
0.0181824
0.020201
0.0222622
0.0243599
0.0264882
0.0286409
0.0308118
0.0329948
0.0351835
0.0373713
0.0395518
0.0417185
0.0438646
0.0459829
0.0480664
0.050108
0.0521007
0.0540376
0.0559122
0.0577182
0.059449
0.0610981
0.062659
0.0641255
0.0654915
0.0667511
0.0678989
0.06893
0.0698396
0.0706233
0.0712768
0.0717966
0.0721796
0.0724233
0.072525
0.0724825
0.0722939
0.0719582
0.0714748
0.0708433
0.0700642
0.0691383
0.0680666
0.0668504
0.0654907
0.063989
0.0623471
0.0605672
0.0586516
0.0566029
0.0544233
0.0521141
0.0496766
0.04713
0.0444908
0.0415218
0.038022
0.027806
0.0240367
0.0208725
0.0180943
0.0154417
0.0129294
0.0105753
0.0083773
0.00633293
0.00444134
0.00270129
0.00111165
-0.000328917
-0.00162171
-0.00276811
-0.00376956
-0.00462749
-0.00534351
-0.00591941
-0.00635722
-0.00665912
-0.00682716
-0.00686338
-0.00676998
-0.00654939
-0.00620424
-0.00573707
-0.00515039
-0.00444684
-0.00362938
-0.00270132
-0.00166619
-0.000527525
0.000711036
0.00204567
0.00347231
0.00498661
0.00658421
0.00826067
0.0100115
0.0118322
0.0137182
0.0156643
0.0176653
0.0197155
0.0218091
0.0239403
0.026103
0.028291
0.0304981
0.0327179
0.0349442
0.0371703
0.0393898
0.0415962
0.0437825
0.0459416
0.0480661
0.0501491
0.0521833
0.0541619
0.056078
0.0579252
0.0596967
0.0613858
0.0629858
0.0644903
0.0658931
0.0671883
0.0683699
0.0694327
0.0703715
0.0711816
0.0718584
0.0723982
0.0727976
0.0730537
0.0731636
0.0731246
0.0729345
0.072592
0.072096
0.0714461
0.0706423
0.069685
0.0685751
0.0673135
0.0659011
0.0643392
0.0626295
0.060774
0.0587748
0.0566346
0.0543555
0.0519388
0.0493858
0.0467167
0.0439491
0.0408344
0.0371617
0.0281529
0.0242159
0.020912
0.0180126
0.0152457
0.0126266
0.0101739
0.0078856
0.00575898
0.00379275
0.00198571
0.000336269
-0.00115721
-0.0024964
-0.00368297
-0.00471859
-0.00560507
-0.00634444
-0.00693895
-0.00739095
-0.00770275
-0.00787662
-0.00791497
-0.00782043
-0.00759576
-0.00724368
-0.00676675
-0.00616766
-0.00544939
-0.00461523
-0.00366865
-0.00261318
-0.00145235
-0.000189901
0.00117016
0.00262356
0.00416585
0.00579267
0.00749965
0.00928231
0.0111361
0.0130564
0.0150379
0.0170753
0.0191628
0.021295
0.0234657
0.025669
0.0278987
0.0301483
0.0324115
0.0346819
0.036953
0.0392182
0.041471
0.0437042
0.0459106
0.0480828
0.0502138
0.0522962
0.054323
0.0562872
0.058182
0.0600005
0.0617356
0.0633806
0.064929
0.0663745
0.0677106
0.0689313
0.0700308
0.0710036
0.0718447
0.0725491
0.0731129
0.0735324
0.0738043
0.0739254
0.0738926
0.0737034
0.073356
0.0728493
0.0721824
0.071355
0.0703671
0.0692195
0.0679126
0.0664475
0.0648251
0.063047
0.0611151
0.0590316
0.0567989
0.0544193
0.0518939
0.0492243
0.0464316
0.0435344
0.0402725
0.0364258
0.0283325
0.0242277
0.0207839
0.0177632
0.0148817
0.0121556
0.00960433
0.00722554
0.00501649
0.00297562
0.00110153
-0.000607726
-0.00215404
-0.0035394
-0.00476573
-0.00583501
-0.0067495
-0.00751161
-0.00812389
-0.00858888
-0.00890912
-0.00908724
-0.00912609
-0.00902862
-0.00879772
-0.00843614
-0.00794665
-0.00733228
-0.00659636
-0.00574238
-0.00477383
-0.00369425
-0.00250727
-0.00121683
0.000172817
0.00165728
0.00323211
0.00489301
0.00663563
0.00845541
0.0103477
0.0123077
0.0143301
0.0164095
0.0185404
0.0207171
0.0229336
0.0251838
0.0274614
0.0297599
0.032073
0.0343943
0.0367171
0.0390348
0.0413406
0.0436274
0.0458879
0.0481146
0.0503004
0.0524379
0.0545196
0.0565385
0.0584874
0.0603592
0.0621467
0.063843
0.0654415
0.0669355
0.0683183
0.0695835
0.070725
0.0717369
0.0726137
0.0733504
0.0739426
0.0743862
0.0746777
0.0748133
0.0747898
0.0746042
0.0742545
0.0737392
0.0730571
0.0722076
0.0711904
0.0700058
0.0686543
0.0671366
0.0654536
0.0636068
0.0615981
0.0594295
0.0571034
0.0546222
0.051987
0.0491994
0.0462817
0.0432534
0.0398429
0.03582
0.0283369
0.0240639
0.0204799
0.0173374
0.0143411
0.0115079
0.00885783
0.00638856
0.00409698
0.00198161
4.05209e-05
-0.00172834
-0.00332717
-0.00475821
-0.00602369
-0.00712601
-0.00806777
-0.00885166
-0.00948046
-0.00995695
-0.010284
-0.0104647
-0.0105022
-0.0103997
-0.01016
-0.0097861
-0.00928119
-0.00864863
-0.00789199
-0.00701479
-0.00602055
-0.00491294
-0.00369579
-0.00237329
-0.000949838
0.000570149
0.00218228
0.00388228
0.00566571
0.00752789
0.00946404
0.0114692
0.0135381
0.0156654
0.0178456
0.0200729
0.0223413
0.0246446
0.0269764
0.0293304
0.0317
0.0340789
0.0364602
0.0388371
0.0412029
0.0435501
0.0458715
0.0481597
0.0504072
0.0526066
0.0547502
0.0568305
0.0588403
0.0607721
0.0626186
0.0643727
0.0660275
0.0675762
0.0690118
0.0703272
0.0715162
0.0725725
0.0734903
0.0742643
0.0748895
0.0753617
0.0756768
0.0758307
0.0758198
0.075641
0.0752919
0.0747705
0.0740755
0.0732057
0.0721608
0.0709405
0.0695452
0.0679754
0.066232
0.0643164
0.0622304
0.059976
0.0575558
0.0549719
0.0522256
0.0493185
0.0462742
0.0431132
0.039552
0.0353506