/*--------------------------------*- C++ -*----------------------------------*\
  =========                 |
  \\      /  F ield         | OpenFOAM: The Open Source CFD Toolbox
   \\    /   O peration     | Website:  https://openfoam.org
    \\  /    A nd           | Version:  11
     \\/     M anipulation  |
\*---------------------------------------------------------------------------*/
FoamFile
{
    format      ascii;
    class       surfaceScalarField;
    location    "7.2";
    object      phi;
}
// * * * * * * * * * * * * * * * * * * * * * * * * * * * * * * * * * * * * * //

dimensions      [0 3 -1 0 0 0 0];

internalField   nonuniform List<scalar> 
19980
(
6.96439e-07
-6.96234e-07
2.39901e-06
-1.70241e-06
4.28423e-06
-1.88533e-06
5.77353e-06
-1.48919e-06
6.53305e-06
-7.59603e-07
6.38065e-06
1.52299e-07
5.22572e-06
1.15482e-06
3.03631e-06
2.18947e-06
-1.83475e-07
3.21972e-06
-4.40568e-06
4.22223e-06
-9.58777e-06
5.18212e-06
-1.56767e-05
6.08891e-06
-2.2613e-05
6.93631e-06
-3.03328e-05
7.71986e-06
-3.87699e-05
8.43714e-06
-4.78563e-05
9.08658e-06
-5.75245e-05
9.66823e-06
-6.77063e-05
1.01818e-05
-7.83339e-05
1.06277e-05
-8.93407e-05
1.10068e-05
-0.000100661
1.13204e-05
-0.000112231
1.15702e-05
-0.000123989
1.17576e-05
-0.000135873
1.18841e-05
-0.000147825
1.19516e-05
-0.000159787
1.19621e-05
-0.000171704
1.19175e-05
-0.000183524
1.182e-05
-0.000195196
1.16714e-05
-0.00020667
1.14739e-05
-0.000217899
1.12293e-05
-0.000228838
1.09395e-05
-0.000239445
1.06067e-05
-0.000249678
1.02331e-05
-0.000259499
9.82099e-06
-0.000268872
9.37229e-06
-0.000277761
8.88932e-06
-0.000286135
8.37425e-06
-0.000293964
7.82907e-06
-0.00030122
7.2558e-06
-0.000307876
6.65648e-06
-0.00031391
6.03343e-06
-0.000319299
5.38894e-06
-0.000324024
4.72493e-06
-0.000328067
4.04359e-06
-0.000331415
3.34735e-06
-0.000334053
2.63845e-06
-0.000335972
1.91908e-06
-0.000337164
1.19159e-06
-0.000337622
4.5837e-07
-0.000337344
-2.78248e-07
-0.000336328
-1.01584e-06
-0.000334576
-1.75173e-06
-0.000332093
-2.48339e-06
-0.000328884
-3.20847e-06
-0.00032496
-3.92426e-06
-0.000320332
-4.62793e-06
-0.000315015
-5.31697e-06
-0.000309026
-5.98889e-06
-0.000302385
-6.6409e-06
-0.000295115
-7.27008e-06
-0.000287242
-7.87369e-06
-0.000278792
-8.44913e-06
-0.000269798
-8.99381e-06
-0.000260293
-9.50499e-06
-0.000250314
-9.97994e-06
-0.000239897
-1.0416e-05
-0.000229087
-1.08104e-05
-0.000217927
-1.11604e-05
-0.000206463
-1.14634e-05
-0.000194746
-1.17174e-05
-0.000182826
-1.19201e-05
-0.000170757
-1.2069e-05
-0.000158595
-1.21618e-05
-0.000146399
-1.21962e-05
-0.000134229
-1.21703e-05
-0.000122147
-1.20821e-05
-0.000110216
-1.19302e-05
-9.85031e-05
-1.17132e-05
-8.70731e-05
-1.143e-05
-7.59935e-05
-1.10796e-05
-6.53317e-05
-1.06617e-05
-5.51558e-05
-1.01759e-05
-4.55338e-05
-9.62209e-06
-3.65331e-05
-9.00062e-06
-2.82205e-05
-8.31254e-06
-2.0661e-05
-7.55957e-06
-1.39167e-05
-6.74439e-06
-8.04569e-06
-5.87103e-06
-3.10041e-06
-4.94525e-06
8.7472e-07
-3.97515e-06
3.84676e-06
-2.97205e-06
5.79918e-06
-1.95239e-06
6.73971e-06
-9.40488e-07
6.71291e-06
2.67848e-08
5.82052e-06
8.92373e-07
4.253e-06
1.56752e-06
2.34355e-06
1.90946e-06
6.60228e-07
1.68332e-06
6.60203e-07
1.66697e-06
-2.36305e-06
4.6011e-06
-4.6368e-06
7.43487e-06
-4.71904e-06
9.15564e-06
-3.21003e-06
9.06202e-06
-6.65707e-07
6.70525e-06
2.509e-06
1.8265e-06
6.03376e-06
-5.69991e-06
9.71569e-06
-1.59034e-05
1.34232e-05
-2.87474e-05
1.70661e-05
-4.41471e-05
2.05818e-05
-6.19844e-05
2.39262e-05
-8.21181e-05
2.70699e-05
-0.00010439
2.99917e-05
-0.000128631
3.2678e-05
-0.000154664
3.51202e-05
-0.00018231
3.73134e-05
-0.000211384
3.92556e-05
-0.000241703
4.09469e-05
-0.000273085
4.23889e-05
-0.000305349
4.35847e-05
-0.000338317
4.45387e-05
-0.000371816
4.52561e-05
-0.000405674
4.57423e-05
-0.000439726
4.60035e-05
-0.00047381
4.60465e-05
-0.000507771
4.58784e-05
-0.000541457
4.55065e-05
-0.000574724
4.49382e-05
-0.000607431
4.4181e-05
-0.000639444
4.32423e-05
-0.000670635
4.21298e-05
-0.00070088
4.08516e-05
-0.000730062
3.94157e-05
-0.000758072
3.78303e-05
-0.000784803
3.61036e-05
-0.000810158
3.4244e-05
-0.000834043
3.22595e-05
-0.000856372
3.01581e-05
-0.000877065
2.79482e-05
-0.000896046
2.5638e-05
-0.000913248
2.32357e-05
-0.000928609
2.07499e-05
-0.000942073
1.81891e-05
-0.000953592
1.55617e-05
-0.000963121
1.28767e-05
-0.000970625
1.01429e-05
-0.000976076
7.36923e-06
-0.000979449
4.56468e-06
-0.000980729
1.73837e-06
-0.000979907
-1.10031e-06
-0.000976981
-3.94181e-06
-0.000971956
-6.77654e-06
-0.000964844
-9.59469e-06
-0.000955666
-1.23864e-05
-0.000944449
-1.51416e-05
-0.000931227
-1.78501e-05
-0.000916042
-2.05017e-05
-0.000898945
-2.30861e-05
-0.000879993
-2.55931e-05
-0.000859251
-2.80119e-05
-0.000836792
-3.03323e-05
-0.000812698
-3.25436e-05
-0.000787056
-3.46357e-05
-0.000759963
-3.65982e-05
-0.000731522
-3.84208e-05
-0.000701845
-4.00931e-05
-0.00067105
-4.1605e-05
-0.000639264
-4.29465e-05
-0.000606619
-4.41082e-05
-0.000573256
-4.50809e-05
-0.00053932
-4.58559e-05
-0.000504964
-4.64245e-05
-0.000470348
-4.67784e-05
-0.000435634
-4.69095e-05
-0.000400994
-4.68108e-05
-0.0003666
-4.64757e-05
-0.000332631
-4.58987e-05
-0.00029927
-4.5075e-05
-0.000266698
-4.40011e-05
-0.000235104
-4.26743e-05
-0.000204673
-4.10931e-05
-0.000175591
-3.92575e-05
-0.000148044
-3.71689e-05
-0.000122214
-3.48309e-05
-9.82772e-05
-3.22493e-05
-7.64034e-05
-2.94333e-05
-5.67515e-05
-2.63962e-05
-3.94659e-05
-2.31566e-05
-2.46713e-05
-1.97399e-05
-1.24655e-05
-1.61809e-05
-2.91002e-06
-1.25275e-05
3.98368e-06
-8.84604e-06
8.27267e-06
-5.22951e-06
1.01092e-05
-1.80981e-06
9.77751e-06
1.22408e-06
7.74325e-06
3.60174e-06
4.71287e-06
4.93977e-06
1.68256e-06
4.71365e-06
2.34277e-06
1.81396e-06
-4.17713e-06
4.59579e-06
-7.41873e-06
6.67735e-06
-6.80062e-06
6.84648e-06
-3.3793e-06
4.22539e-06
1.95541e-06
-1.78155e-06
8.51602e-06
-1.15458e-05
1.57981e-05
-2.52662e-05
2.34361e-05
-4.30104e-05
3.11674e-05
-6.47475e-05
3.88032e-05
-9.03729e-05
4.62072e-05
-0.000119728
5.32814e-05
-0.000152613
5.9955e-05
-0.0001888
6.61788e-05
-0.000228039
7.19174e-05
-0.000270067
7.71478e-05
-0.000314608
8.18551e-05
-0.000361385
8.60319e-05
-0.000410113
8.96748e-05
-0.00046051
9.27857e-05
-0.000512294
9.5369e-05
-0.000565187
9.7432e-05
-0.000618915
9.89841e-05
-0.000673209
0.000100036
-0.000727807
0.000100601
-0.000782452
0.000100692
-0.000836897
0.000100323
-0.0008909
9.95101e-05
-0.000944231
9.82685e-05
-0.000996664
9.66143e-05
-0.00104799
9.45636e-05
-0.00109799
9.21333e-05
-0.00114648
8.93404e-05
-0.00119326
8.62023e-05
-0.00123817
8.27366e-05
-0.00128103
7.89611e-05
-0.00132168
7.48936e-05
-0.00135997
7.05519e-05
-0.00139577
6.5954e-05
-0.00142894
6.11179e-05
-0.00145936
5.60618e-05
-0.00148693
5.08042e-05
-0.00151154
4.53637e-05
-0.00153311
3.97588e-05
-0.00155156
3.40086e-05
-0.00156681
2.81324e-05
-0.00157882
2.21497e-05
-0.00158753
1.60801e-05
-0.00159291
9.94359e-06
-0.00159493
3.76031e-06
-0.00159358
-2.44927e-06
-0.00158886
-8.66421e-06
-0.00158077
-1.48633e-05
-0.00156934
-2.10254e-05
-0.0015546
-2.71286e-05
-0.00153659
-3.31511e-05
-0.00151537
-3.90707e-05
-0.00149101
-4.4865e-05
-0.00146358
-5.05115e-05
-0.00143319
-5.59877e-05
-0.00139993
-6.12707e-05
-0.00136392
-6.63375e-05
-0.0013253
-7.11656e-05
-0.0012842
-7.57324e-05
-0.00124079
-8.00152e-05
-0.00119522
-8.39917e-05
-0.00114767
-8.76397e-05
-0.00109834
-9.09374e-05
-0.00104742
-9.38634e-05
-0.000995132
-9.63972e-05
-0.000941694
-9.8519e-05
-0.00088734
-0.00010021
-0.000832314
-0.000101451
-0.000776867
-0.000102225
-0.00072126
-0.000102516
-0.000665761
-0.000102309
-0.000610646
-0.000101591
-0.000556195
-0.00010035
-0.000502693
-9.8577e-05
-0.000450429
-9.62649e-05
-0.000399694
-9.34092e-05
-0.000350779
-9.00082e-05
-0.000303973
-8.60636e-05
-0.000259561
-8.15809e-05
-0.000217821
-7.65704e-05
-0.000179022
-7.1048e-05
-0.000143419
-6.50372e-05
-0.000111244
-5.85705e-05
-8.27088e-05
-5.16921e-05
-5.79874e-05
-4.44613e-05
-3.72107e-05
-3.69576e-05
-2.04513e-05
-2.9287e-05
-7.7046e-06
-2.15928e-05
1.13409e-06
-1.40681e-05
6.30063e-06
-6.97629e-06
8.20076e-06
-6.76114e-07
7.45733e-06
4.34506e-06
4.96013e-06
7.43696e-06
1.91469e-06
7.75915e-06
4.25746e-06
1.4182e-06
-5.59516e-06
3.08936e-06
-9.09004e-06
3.25913e-06
-6.97051e-06
6.40606e-07
-7.60603e-07
-5.71173e-06
8.30762e-06
-1.646e-05
1.92642e-05
-3.20326e-05
3.13707e-05
-5.26708e-05
4.40743e-05
-7.84657e-05
5.69623e-05
-0.000109391
6.97289e-05
-0.00014533
8.21461e-05
-0.000186094
9.4045e-05
-0.00023144
0.000105301
-0.000281086
0.000115824
-0.000334716
0.000125548
-0.000391996
0.000134428
-0.000452575
0.000142433
-0.000516089
0.000149546
-0.000582172
0.000155758
-0.000650454
0.000161067
-0.000720564
0.000165479
-0.000792135
0.000169003
-0.000864805
0.000171654
-0.000938215
0.000173447
-0.00101202
0.000174403
-0.00108587
0.000174544
-0.00115944
0.000173894
-0.00123241
0.000172477
-0.00130446
0.000170319
-0.00137529
0.000167449
-0.00144462
0.000163892
-0.00151217
0.000159679
-0.00157766
0.000154838
-0.00164086
0.000149398
-0.00170152
0.000143391
-0.0017594
0.000136846
-0.0018143
0.000129794
-0.00186602
0.000122267
-0.00191436
0.000114294
-0.00195915
0.000105908
-0.00200023
9.71405e-05
-0.00203744
8.80234e-05
-0.00207067
7.85888e-05
-0.00209978
6.88696e-05
-0.00212467
5.88989e-05
-0.00214525
4.87101e-05
-0.00216144
3.83371e-05
-0.00217317
2.78141e-05
-0.0021804
1.71759e-05
-0.0021831
6.45761e-06
-0.00218124
-4.30491e-06
-0.00217483
-1.50756e-05
-0.00216388
-2.58179e-05
-0.00214841
-3.64945e-05
-0.00212847
-4.70679e-05
-0.00210412
-5.75001e-05
-0.00207544
-6.77527e-05
-0.00204252
-7.77872e-05
-0.00200546
-8.75644e-05
-0.00196441
-9.70454e-05
-0.00191949
-0.000106191
-0.00187086
-0.000114961
-0.00181871
-0.000123317
-0.00176322
-0.00013122
-0.00170461
-0.00013863
-0.00164309
-0.00014551
-0.00157891
-0.000151821
-0.00151232
-0.000157527
-0.00144359
-0.00016259
-0.00137301
-0.000166975
-0.00130088
-0.00017065
-0.00122751
-0.00017358
-0.00115323
-0.000175736
-0.00107837
-0.000177087
-0.00100328
-0.000177607
-0.000928313
-0.000177272
-0.000853844
-0.00017606
-0.000780241
-0.000173953
-0.000707883
-0.000170935
-0.00063715
-0.000166997
-0.000568427
-0.000162132
-0.000502096
-0.00015634
-0.000438533
-0.000149626
-0.000378111
-0.000142003
-0.00032119
-0.000133492
-0.000268113
-0.000124124
-0.000219205
-0.000113945
-0.000174762
-0.000103014
-0.000135042
-9.14122e-05
-0.000100258
-7.92446e-05
-7.05661e-05
-6.665e-05
-4.60431e-05
-5.381e-05
-2.6673e-05
-4.09629e-05
-1.23193e-05
-2.84219e-05
-2.69586e-06
-1.65997e-05
2.66824e-06
-6.04029e-06
4.47047e-06
2.54285e-06
3.67895e-06
8.22857e-06
1.59034e-06
9.84776e-06
5.84782e-06
7.18281e-07
-6.3134e-06
6.16791e-07
-8.98852e-06
-1.96402e-06
-4.38964e-06
-8.28181e-06
5.55698e-06
-1.92736e-05
1.92995e-05
-3.5608e-05
3.55985e-05
-5.77264e-05
5.34891e-05
-8.58821e-05
7.22299e-05
-0.000120173
9.12529e-05
-0.000160568
0.000110125
-0.000206937
0.000128515
-0.000259066
0.000146173
-0.000316676
0.000162911
-0.000379439
0.000178587
-0.000446989
0.000193098
-0.000518929
0.000206368
-0.000594843
0.000218348
-0.000674299
0.000229002
-0.000756856
0.000238315
-0.000842068
0.000246279
-0.000929487
0.000252898
-0.00101867
0.000258184
-0.00110917
0.000262153
-0.00120055
0.000264831
-0.00129239
0.000266243
-0.00138427
0.000266421
-0.00147577
0.000265399
-0.00156651
0.000263214
-0.00165609
0.000259904
-0.00174415
0.00025551
-0.00183034
0.000250073
-0.00191429
0.000243636
-0.0019957
0.000236243
-0.00207424
0.000227938
-0.00214961
0.000218767
-0.00222154
0.000208776
-0.00228976
0.000198011
-0.00235401
0.00018652
-0.00241407
0.000174351
-0.00246971
0.00016155
-0.00252074
0.000148167
-0.00256697
0.00013425
-0.00260823
0.00011985
-0.00264437
0.000105016
-0.00267527
8.97979e-05
-0.00270081
7.42481e-05
-0.00272089
5.84181e-05
-0.00273544
4.23603e-05
-0.00274439
2.61278e-05
-0.00274771
9.77458e-06
-0.00274537
-6.64482e-06
-0.00273737
-2.30751e-05
-0.00272372
-3.94605e-05
-0.00270447
-5.57441e-05
-0.00267967
-7.18687e-05
-0.0026494
-8.77764e-05
-0.00261374
-0.000103409
-0.00257282
-0.000118707
-0.00252677
-0.000133611
-0.00247576
-0.000148063
-0.00241995
-0.000162001
-0.00235954
-0.000175367
-0.00229476
-0.000188101
-0.00222583
-0.000200144
-0.00215303
-0.000211436
-0.00207662
-0.00022192
-0.0019969
-0.000231538
-0.00191419
-0.000240234
-0.00182883
-0.000247954
-0.00174116
-0.000254644
-0.00165156
-0.000260253
-0.0015604
-0.000264734
-0.0014681
-0.000268039
-0.00137506
-0.000270126
-0.00128171
-0.000270956
-0.00118849
-0.000270492
-0.00109585
-0.000268703
-0.00100424
-0.000265564
-0.00091412
-0.000261054
-0.000825958
-0.000255159
-0.000740217
-0.000247873
-0.000657358
-0.000239199
-0.000577838
-0.000229146
-0.000502101
-0.00021774
-0.000430577
-0.000205015
-0.000363677
-0.000191025
-0.00030178
-0.000175842
-0.000245234
-0.00015956
-0.00019434
-0.000142307
-0.000149342
-0.000124243
-0.000110415
-0.000105577
-7.76454e-05
-8.65792e-05
-5.10152e-05
-6.7593e-05
-3.03753e-05
-4.90617e-05
-1.54207e-05
-3.15544e-05
-5.65951e-06
-1.58015e-05
-3.78706e-07
-2.73787e-06
1.39442e-06
6.4555e-06
9.44901e-07
1.02973e-05
6.79277e-06
-1.50236e-07
-6.16311e-06
-2.45273e-06
-6.68624e-06
-8.36837e-06
1.52621e-06
-1.90435e-05
1.6232e-05
-3.53486e-05
3.56048e-05
-5.79126e-05
5.81625e-05
-8.71545e-05
8.27308e-05
-0.000123312
0.000108388
-0.000166471
0.000134412
-0.000216586
0.00016024
-0.000273507
0.000185435
-0.000336992
0.000209659
-0.000406732
0.000232651
-0.000482358
0.000254214
-0.000563458
0.000274198
-0.000649584
0.000292495
-0.000740263
0.000309026
-0.000835003
0.000323742
-0.000933298
0.00033661
-0.00103464
0.000347617
-0.0011385
0.000356763
-0.00124438
0.00036406
-0.00135175
0.000369529
-0.00146012
0.000373198
-0.00156898
0.000375104
-0.00167785
0.000375288
-0.00178624
0.000373795
-0.0018937
0.000370674
-0.00199978
0.000365979
-0.00210403
0.000359763
-0.00220604
0.000352084
-0.00230541
0.000343003
-0.00240174
0.000332578
-0.00249468
0.000320872
-0.00258386
0.00030795
-0.00266896
0.000293874
-0.00274966
0.00027871
-0.00282566
0.000262525
-0.00289669
0.000245384
-0.0029625
0.000227356
-0.00302284
0.000208509
-0.0030775
0.000188911
-0.00312629
0.000168633
-0.00316901
0.000147745
-0.00320553
0.000126318
-0.00323571
0.000104425
-0.00325943
8.21384e-05
-0.0032766
5.95329e-05
-0.00328716
3.66831e-05
-0.00329105
1.3665e-05
-0.00328825
-9.44443e-06
-0.00327876
-3.25674e-05
-0.00326259
-5.56252e-05
-0.0032398
-7.85381e-05
-0.00321044
-0.000101225
-0.00317461
-0.000123605
-0.00313242
-0.000145597
-0.00308402
-0.000167116
-0.00302955
-0.00018808
-0.0029692
-0.000208406
-0.00290319
-0.00022801
-0.00283175
-0.000246808
-0.00275514
-0.000264716
-0.00267363
-0.000281653
-0.00258753
-0.000297535
-0.00249717
-0.000312282
-0.00240289
-0.000325813
-0.00230508
-0.000338051
-0.00220411
-0.00034892
-0.00210041
-0.000358346
-0.0019944
-0.000366259
-0.00188654
-0.000372591
-0.0017773
-0.00037728
-0.00166716
-0.000380267
-0.00155662
-0.000381497
-0.00144619
-0.000380923
-0.00133639
-0.000378504
-0.00122775
-0.000374205
-0.0011208
-0.000368001
-0.00101608
-0.000359875
-0.000914136
-0.000349821
-0.000815489
-0.000337846
-0.000720665
-0.00032397
-0.000630176
-0.000308229
-0.000544512
-0.00029068
-0.000464137
-0.0002714
-0.000389485
-0.000250494
-0.000320945
-0.0002281
-0.000258856
-0.000204396
-0.000203492
-0.000179607
-0.00015505
-0.00015402
-0.000113632
-0.000127997
-7.92287e-05
-0.000101996
-5.16992e-05
-7.65912e-05
-3.07463e-05
-5.25073e-05
-1.58934e-05
-3.06544e-05
-6.45707e-06
-1.21742e-05
-1.51753e-06
1.516e-06
1.19158e-07
8.66066e-06
6.91195e-06
-1.10563e-06
-5.05757e-06
-5.86949e-06
-1.92215e-06
-1.55031e-05
1.11598e-05
-3.09905e-05
3.17193e-05
-5.3092e-05
5.77063e-05
-8.23614e-05
8.7432e-05
-0.000119165
0.000119535
-0.000163703
0.000152926
-0.00021603
0.000186739
-0.000276075
0.000220285
-0.000343658
0.000253018
-0.00041851
0.000284511
-0.000500287
0.000314428
-0.000588584
0.000342511
-0.000682946
0.000368559
-0.000782878
0.000392427
-0.000887858
0.000414006
-0.000997339
0.000433223
-0.00111076
0.000450031
-0.00122755
0.000464406
-0.00134713
0.000476344
-0.00146892
0.000485854
-0.00159236
0.000492961
-0.00171686
0.000497699
-0.00184187
0.000500112
-0.00196683
0.000500251
-0.00209121
0.000498174
-0.00221448
0.000493943
-0.00233612
0.000487627
-0.00245566
0.000479296
-0.0025726
0.000469026
-0.00268649
0.000456893
-0.00279689
0.000442978
-0.00290338
0.000427361
-0.00300556
0.000410128
-0.00310304
0.000391361
-0.00319548
0.000371149
-0.00328254
0.000349577
-0.00336389
0.000326736
-0.00343925
0.000302714
-0.00350834
0.000277602
-0.00357092
0.000251493
-0.00362677
0.000224479
-0.00367568
0.000196655
-0.00371748
0.000168115
-0.00375201
0.000138955
-0.00377914
0.000109274
-0.00379878
7.91695e-05
-0.00381084
4.87418e-05
-0.00381526
1.80922e-05
-0.00381203
-1.26772e-05
-0.00380114
-4.34625e-05
-0.0037826
-7.41589e-05
-0.00375648
-0.00010466
-0.00372285
-0.000134859
-0.0036818
-0.000164648
-0.00363348
-0.000193917
-0.00357804
-0.000222557
-0.00351567
-0.000250458
-0.00344656
-0.000277508
-0.00337098
-0.000303596
-0.00328917
-0.000328613
-0.00320144
-0.000352447
-0.00310811
-0.000374988
-0.00300951
-0.00039613
-0.00290603
-0.000415763
-0.00279806
-0.000433784
-0.00268602
-0.000450088
-0.00257037
-0.000464578
-0.00245156
-0.000477155
-0.00233009
-0.000487729
-0.00220647
-0.000496211
-0.00208123
-0.000502519
-0.00195492
-0.000506576
-0.0018281
-0.000508315
-0.00170135
-0.000507673
-0.00157526
-0.000504598
-0.00145042
-0.000499048
-0.00132743
-0.000490991
-0.00120689
-0.000480409
-0.00108941
-0.000467299
-0.000975585
-0.000451673
-0.000865994
-0.000433561
-0.000761205
-0.000413018
-0.000661764
-0.000390121
-0.000568186
-0.000364977
-0.000480949
-0.000337731
-0.000400485
-0.000308565
-0.000327167
-0.000277714
-0.0002613
-0.000245474
-0.000203108
-0.000212212
-0.000152716
-0.000178389
-0.00011014
-0.000144573
-7.52608e-05
-0.00011147
-4.78148e-05
-7.99534e-05
-2.73693e-05
-5.10999e-05
-1.33056e-05
-2.62378e-05
-4.79982e-06
-6.98975e-06
-8.01892e-07
4.66281e-06
6.11004e-06
-2.09885e-06
-2.95878e-06
-9.46799e-06
5.44687e-06
-2.30543e-05
2.47462e-05
-4.36505e-05
5.23156e-05
-7.18785e-05
8.59342e-05
-0.00010819
0.000123743
-0.000152875
0.00016422
-0.000206077
0.000206128
-0.000267803
0.000248465
-0.000337943
0.000290425
-0.000416283
0.000331357
-0.000502516
0.000370745
-0.000596264
0.000408177
-0.000697084
0.00044333
-0.000804478
0.000475954
-0.000917912
0.000505861
-0.00103681
0.000532909
-0.00116059
0.000557
-0.00128863
0.00057807
-0.00142031
0.000596082
-0.00155499
0.000611025
-0.00169204
0.000622908
-0.00183083
0.000631755
-0.00197074
0.000637606
-0.00211114
0.000640513
-0.00225143
0.000640537
-0.002391
0.000637748
-0.00252928
0.000632225
-0.00266571
0.00062405
-0.00279972
0.000613314
-0.00293081
0.000600108
-0.00305844
0.000584531
-0.00318215
0.000566682
-0.00330145
0.000546665
-0.00341591
0.000524585
-0.0035251
0.000500551
-0.00362862
0.000474671
-0.0037261
0.000447057
-0.00381719
0.000417823
-0.00390156
0.000387082
-0.0039789
0.00035495
-0.00404896
0.000321545
-0.00411146
0.000286985
-0.0041662
0.000251392
-0.00421297
0.000214885
-0.0042516
0.000177589
-0.00428196
0.000139629
-0.00430392
0.000101129
-0.0043174
6.22193e-05
-0.00432233
2.30276e-05
-0.00431869
-1.63146e-05
-0.00430648
-5.56749e-05
-0.00428572
-9.49193e-05
-0.00425647
-0.000133912
-0.00421881
-0.000172517
-0.00417286
-0.000210596
-0.00411877
-0.00024801
-0.00405671
-0.000284618
-0.00398689
-0.000320281
-0.00390954
-0.000354857
-0.00382493
-0.000388205
-0.00373335
-0.000420185
-0.00363515
-0.000450655
-0.00353066
-0.000479477
-0.00342027
-0.000506514
-0.00330441
-0.000531629
-0.0031835
-0.000554689
-0.00305803
-0.000575564
-0.00292847
-0.00059413
-0.00279537
-0.000610263
-0.00265925
-0.000623848
-0.00252068
-0.000634775
-0.00238026
-0.000642942
-0.00223858
-0.000648253
-0.00209628
-0.000650623
-0.00195397
-0.000649976
-0.00181232
-0.000646248
-0.00167198
-0.000639389
-0.00153361
-0.000629363
-0.00139787
-0.00061615
-0.00126542
-0.000599749
-0.00113691
-0.00058018
-0.00101299
-0.000557488
-0.000894261
-0.000531743
-0.000781331
-0.00050305
-0.000674759
-0.00047155
-0.000575065
-0.000437424
-0.000482721
-0.000400909
-0.000398136
-0.000362299
-0.00032165
-0.000321959
-0.00025352
-0.000280343
-0.000193903
-0.000238005
-0.000142849
-0.000195627
-0.000100282
-0.000154037
-6.59891e-05
-0.000114246
-3.96047e-05
-7.74842e-05
-2.06016e-05
-4.52409e-05
-8.28064e-06
-1.93107e-05
-1.76611e-06
-1.85169e-06
4.34392e-06
-3.10056e-06
1.41719e-07
-1.31408e-05
1.54871e-05
-3.08068e-05
4.24122e-05
-5.66891e-05
7.81979e-05
-9.12529e-05
0.000120498
-0.00013483
0.00016732
-0.000187617
0.000217007
-0.000249684
0.000268194
-0.000320978
0.000319759
-0.000401337
0.000370784
-0.000490503
0.000420523
-0.000588129
0.000468371
-0.000693796
0.000513844
-0.00080702
0.000556554
-0.000927266
0.0005962
-0.00105395
0.000632549
-0.00118647
0.000665426
-0.00132418
0.000694706
-0.00146641
0.000720305
-0.00161251
0.000742174
-0.00176177
0.000760292
-0.00191353
0.000774664
-0.00206709
0.000785318
-0.00222178
0.000792297
-0.00237693
0.00079566
-0.00253187
0.000795479
-0.00268596
0.000791839
-0.00283857
0.000784831
-0.00298907
0.000774556
-0.00313688
0.000761123
-0.00328142
0.000744643
-0.00342212
0.000725236
-0.00355846
0.000703024
-0.00368993
0.000678133
-0.00381604
0.000650693
-0.00393633
0.000620837
-0.00405036
0.0005887
-0.00415772
0.000554418
-0.00425802
0.000518131
-0.00435092
0.000479981
-0.00443609
0.000440112
-0.00451321
0.000398667
-0.00458202
0.000355794
-0.00464227
0.000311643
-0.00469375
0.000266364
-0.00473627
0.000220109
-0.00476967
0.000173033
-0.00479383
0.000125292
-0.00480866
7.70449e-05
-0.00481408
2.84516e-05
-0.00481007
-2.03259e-05
-0.00479662
-6.91235e-05
-0.00477377
-0.000117775
-0.00474157
-0.000166113
-0.00470012
-0.000213969
-0.00464954
-0.000261172
-0.00459
-0.000307549
-0.00452169
-0.000352929
-0.00444483
-0.000397137
-0.00435969
-0.00044
-0.00426655
-0.000481343
-0.00416574
-0.000520993
-0.00405762
-0.000558777
-0.00394257
-0.000594524
-0.00382102
-0.000628064
-0.00369342
-0.000659231
-0.00356025
-0.000687861
-0.00342202
-0.000713795
-0.00327927
-0.000736879
-0.00313257
-0.000756964
-0.00298251
-0.000773909
-0.0028297
-0.00078758
-0.00267479
-0.000797851
-0.00251844
-0.000804608
-0.00236131
-0.000807749
-0.0022041
-0.000807182
-0.00204752
-0.000802833
-0.00189227
-0.000794641
-0.00173906
-0.000782567
-0.00158863
-0.000766589
-0.00144166
-0.00074671
-0.00129888
-0.00072296
-0.00116097
-0.000695398
-0.0010286
-0.000664115
-0.000902411
-0.000629242
-0.000783005
-0.000590955
-0.000670949
-0.00054948
-0.000566754
-0.000505104
-0.000470869
-0.000458184
-0.000383672
-0.000409156
-0.000305458
-0.000358557
-0.000236428
-0.000307036
-0.000176677
-0.000255378
-0.000126184
-0.000204529
-8.48043e-05
-0.000155627
-5.22565e-05
-0.000110032
-2.81231e-05
-6.93743e-05
-1.18476e-05
-3.5586e-05
-2.74212e-06
-1.09573e-05
1.60181e-06
-4.09383e-06
4.23566e-06
-1.68189e-05
2.82122e-05
-3.86163e-05
6.42095e-05
-6.98727e-05
0.000109454
-0.00011089
0.000161515
-0.000161867
0.000218298
-0.000222896
0.000278036
-0.000293959
0.000339257
-0.000374932
0.000400732
-0.000465595
0.000461446
-0.000565634
0.000520562
-0.000674656
0.000577394
-0.000792197
0.000631385
-0.000917731
0.000682088
-0.00105068
0.000729149
-0.00119042
0.000772292
-0.0013363
0.000811307
-0.00148764
0.000846041
-0.00164372
0.00087639
-0.00180384
0.000902289
-0.00196726
0.000923711
-0.00213325
0.000940656
-0.00230108
0.000953151
-0.00247003
0.000961244
-0.00263937
0.000965002
-0.0028084
0.000964509
-0.00297643
0.000959862
-0.00314276
0.000951167
-0.00330675
0.000938545
-0.00346775
0.000922122
-0.00362514
0.000902032
-0.00377832
0.000878417
-0.00392672
0.000851422
-0.00406978
0.000821198
-0.00420699
0.000787902
-0.00433785
0.000751691
-0.00446187
0.000712728
-0.00457864
0.000671179
-0.00468772
0.000627211
-0.00478873
0.000580994
-0.00488132
0.000532702
-0.00496516
0.00048251
-0.00503996
0.000430595
-0.00510546
0.000377138
-0.00516141
0.000322319
-0.00520763
0.000266325
-0.00524394
0.000209341
-0.0052702
0.000151556
-0.00528632
9.31616e-05
-0.00529222
3.43515e-05
-0.00528786
-2.46785e-05
-0.00527326
-8.37305e-05
-0.00524843
-0.000142604
-0.00521344
-0.000201097
-0.00516841
-0.000259005
-0.00511346
-0.000316123
-0.00504876
-0.000372243
-0.00497454
-0.000427157
-0.00489102
-0.000480656
-0.00479849
-0.00053253
-0.00469726
-0.00058257
-0.00458768
-0.000630567
-0.00447015
-0.000676314
-0.00434507
-0.000719603
-0.0042129
-0.000760233
-0.00407413
-0.000798003
-0.00392927
-0.000832717
-0.00377888
-0.000864185
-0.00362354
-0.000892222
-0.00346385
-0.000916651
-0.00330046
-0.000937302
-0.00313402
-0.000954017
-0.00296523
-0.000966648
-0.00279478
-0.000975058
-0.0026234
-0.000979126
-0.00245184
-0.000978746
-0.00228084
-0.000973831
-0.00211117
-0.000964312
-0.00194359
-0.000950145
-0.00177887
-0.000931307
-0.00161777
-0.000907807
-0.00146105
-0.000879684
-0.00130943
-0.000847011
-0.00116365
-0.000809902
-0.00102437
-0.000768518
-0.000892256
-0.000723069
-0.00076791
-0.000673827
-0.000651885
-0.000621129
-0.000544673
-0.000565395
-0.000446696
-0.000507133
-0.000358294
-0.000446959
-0.000279718
-0.000385612
-0.000211119
-0.000323976
-0.000152545
-0.000263104
-0.000103927
-0.000204244
-6.50848e-05
-0.000148875
-3.57203e-05
-9.87388e-05
-1.54288e-05
-5.58775e-05
-3.71139e-06
-2.26747e-05
-2.10956e-06
-5.06847e-06
9.3041e-06
-2.04599e-05
4.36036e-05
-4.63883e-05
9.01378e-05
-8.3043e-05
0.000146109
-0.000130561
0.000209033
-0.000189004
0.000276741
-0.000258349
0.000347382
-0.000338483
0.000419391
-0.000429203
0.000491452
-0.000530216
0.00056246
-0.000641152
0.000631498
-0.000761564
0.000697805
-0.000890937
0.000760758
-0.0010287
0.000819851
-0.00117423
0.00087468
-0.00132686
0.000924926
-0.0014859
0.000970345
-0.00165062
0.00101076
-0.00182026
0.00104604
-0.00199408
0.0010761
-0.00217129
0.00110092
-0.00235113
0.00112049
-0.00253281
0.00113483
-0.00271557
0.001144
-0.00289864
0.00114807
-0.00308127
0.00114714
-0.00326273
0.00114132
-0.00344229
0.00113073
-0.00361924
0.0011155
-0.00379292
0.00109579
-0.00396264
0.00107176
-0.00412779
0.00104356
-0.00428774
0.00101137
-0.00444191
0.000975367
-0.00458974
0.000935732
-0.0047307
0.000892651
-0.00486428
0.000846316
-0.00499003
0.000796922
-0.00510748
0.000744668
-0.00521624
0.000689754
-0.00531593
0.000632386
-0.00540619
0.00057277
-0.00548671
0.000511117
-0.00555721
0.000447639
-0.00561745
0.000382553
-0.0056672
0.000316075
-0.00570628
0.000248429
-0.00573456
0.000179836
-0.00575193
0.000110524
-0.0057583
4.07225e-05
-0.00575364
-2.93375e-05
-0.00573795
-9.94213e-05
-0.00571126
-0.000169292
-0.00567365
-0.00023871
-0.00562522
-0.000307435
-0.00556612
-0.000375222
-0.00549654
-0.000441828
-0.00541669
-0.000507005
-0.00532684
-0.000570507
-0.00522728
-0.000632087
-0.00511835
-0.000691497
-0.00500043
-0.000748491
-0.00487392
-0.000802824
-0.00473927
-0.000854254
-0.00459696
-0.00090254
-0.00444752
-0.000947449
-0.00429149
-0.000988749
-0.00412945
-0.00102622
-0.00396204
-0.00105964
-0.00378989
-0.0010888
-0.00361369
-0.0011135
-0.00343414
-0.00113357
-0.00325196
-0.00114882
-0.00306792
-0.00115911
-0.00288277
-0.00116427
-0.0026973
-0.00116421
-0.00251233
-0.00115881
-0.00232864
-0.001148
-0.00214706
-0.00113172
-0.00196841
-0.00110997
-0.00179348
-0.00108274
-0.00162307
-0.00105009
-0.00145798
-0.0010121
-0.00129896
-0.000968926
-0.00114673
-0.000920741
-0.001002
-0.000867797
-0.000865422
-0.000810409
-0.000737583
-0.000748968
-0.000619026
-0.000683952
-0.000510221
-0.000615939
-0.000411559
-0.00054562
-0.00032335
-0.000473821
-0.000245811
-0.000401516
-0.000179062
-0.000329853
-0.000123126
-0.00026018
-7.79268e-05
-0.000194074
-4.32951e-05
-0.00013337
-1.89789e-05
-8.01937e-05
-4.66334e-06
-3.69903e-05
-6.77292e-06
-6.01937e-06
1.53235e-05
-2.40384e-05
6.16227e-05
-5.40629e-05
0.000120162
-9.60966e-05
0.000188143
-0.000150113
0.000263049
-0.000216035
0.000342663
-0.000293721
0.000425068
-0.000382956
0.000508626
-0.000483449
0.000591944
-0.000594833
0.000673845
-0.00071667
0.000753335
-0.000848454
0.000829588
-0.000989617
0.000901921
-0.00113954
0.000969772
-0.00129755
0.00103269
-0.00146294
0.00109031
-0.00163496
0.00114237
-0.00181286
0.00118865
-0.00199583
0.00122901
-0.00218307
0.00126335
-0.00237378
0.00129163
-0.00256713
0.00131384
-0.00276231
0.00133001
-0.00295851
0.0013402
-0.00315491
0.00134448
-0.00335074
0.00134297
-0.00354521
0.00133579
-0.00373755
0.00132307
-0.00392704
0.00130499
-0.00411294
0.00128169
-0.00429456
0.00125338
-0.00447123
0.00122023
-0.00464229
0.00118244
-0.00480714
0.00114021
-0.00496518
0.00109377
-0.00511584
0.00104332
-0.00525861
0.00098908
-0.00539297
0.000931286
-0.00551846
0.000870163
-0.00563466
0.000805946
-0.00574114
0.000738873
-0.00583756
0.000669185
-0.00592357
0.000597127
-0.00599887
0.000522946
-0.00606322
0.000446893
-0.00611636
0.000369224
-0.00615813
0.000290194
-0.00618836
0.000210065
-0.00620693
0.0001291
-0.00621378
4.75665e-05
-0.00620885
-3.42657e-05
-0.00619215
-0.000116124
-0.00616371
-0.000197732
-0.0061236
-0.000278812
-0.00607196
-0.000359083
-0.00600892
-0.000438262
-0.00593468
-0.000516065
-0.00584948
-0.000592204
-0.00575359
-0.000666394
-0.00564733
-0.000738347
-0.00553105
-0.000807776
-0.00540515
-0.000874395
-0.00527005
-0.00093792
-0.00512624
-0.000998069
-0.00497421
-0.00105457
-0.00481452
-0.00110714
-0.00464776
-0.00115552
-0.00447453
-0.00119944
-0.0042955
-0.00123867
-0.00411134
-0.00127295
-0.00392278
-0.00130207
-0.00373055
-0.0013258
-0.00353542
-0.00134395
-0.00333819
-0.00135633
-0.00313967
-0.00136279
-0.00294069
-0.00136319
-0.00274209
-0.00135741
-0.00254472
-0.00134536
-0.00234945
-0.001327
-0.00215712
-0.00130229
-0.0019686
-0.00127126
-0.00178473
-0.00123396
-0.00160633
-0.0011905
-0.00143421
-0.00114105
-0.00126914
-0.00108581
-0.00111187
-0.00102507
-0.000963097
-0.000959187
-0.000823458
-0.000888607
-0.000693545
-0.000813865
-0.000573881
-0.000735602
-0.000464917
-0.000654585
-0.000367025
-0.000571714
-0.000280493
-0.000488047
-0.000205527
-0.000404819
-0.000142243
-0.000323464