/*--------------------------------*- C++ -*----------------------------------*\
  =========                 |
  \\      /  F ield         | OpenFOAM: The Open Source CFD Toolbox
   \\    /   O peration     | Website:  https://openfoam.org
    \\  /    A nd           | Version:  11
     \\/     M anipulation  |
\*---------------------------------------------------------------------------*/
FoamFile
{
    format      ascii;
    class       volVectorField;
    location    "7.2";
    object      U;
}
// * * * * * * * * * * * * * * * * * * * * * * * * * * * * * * * * * * * * * //

dimensions      [0 1 -1 0 0 0 0];

internalField   nonuniform List<vector> 
10100
(
(2.95437e-06 -3.03833e-06 0)
(1.47769e-05 -7.79406e-06 0)
(3.36541e-05 -9.03791e-06 0)
(5.1543e-05 -7.86035e-06 0)
(6.33752e-05 -5.36988e-06 0)
(6.67272e-05 -2.24616e-06 0)
(6.03482e-05 1.13859e-06 0)
(4.36816e-05 4.57031e-06 0)
(1.66195e-05 7.92703e-06 0)
(-2.06587e-05 1.11474e-05 0)
(-6.77796e-05 1.41952e-05 0)
(-0.000124258 1.70352e-05 0)
(-0.000189523 1.96648e-05 0)
(-0.000262947 2.20739e-05 0)
(-0.000343887 2.42566e-05 0)
(-0.000431663 2.62275e-05 0)
(-0.000525594 2.79822e-05 0)
(-0.000625007 2.95232e-05 0)
(-0.000729213 3.08558e-05 0)
(-0.000837538 3.19809e-05 0)
(-0.00094933 3.29065e-05 0)
(-0.00106394 3.36416e-05 0)
(-0.00118072 3.41909e-05 0)
(-0.00129908 3.45576e-05 0)
(-0.00141839 3.47482e-05 0)
(-0.0015381 3.4772e-05 0)
(-0.00165763 3.46369e-05 0)
(-0.00177644 3.43482e-05 0)
(-0.00189402 3.39113e-05 0)
(-0.00200986 3.33319e-05 0)
(-0.00212349 3.26153e-05 0)
(-0.00223444 3.1767e-05 0)
(-0.00234227 3.07944e-05 0)
(-0.00244657 2.97059e-05 0)
(-0.00254693 2.8507e-05 0)
(-0.00264298 2.72019e-05 0)
(-0.00273437 2.57985e-05 0)
(-0.00282077 2.43037e-05 0)
(-0.00290185 2.27225e-05 0)
(-0.00297734 2.10609e-05 0)
(-0.00304697 1.93248e-05 0)
(-0.00311047 1.75203e-05 0)
(-0.00316763 1.56547e-05 0)
(-0.00321825 1.37329e-05 0)
(-0.00326213 1.17591e-05 0)
(-0.00329912 9.74121e-06 0)
(-0.00332907 7.68734e-06 0)
(-0.00335188 5.60389e-06 0)
(-0.00336745 3.49674e-06 0)
(-0.00337571 1.37233e-06 0)
(-0.00337662 -7.63297e-07 0)
(-0.00337015 -2.90341e-06 0)
(-0.0033563 -5.03923e-06 0)
(-0.00333511 -7.16279e-06 0)
(-0.00330663 -9.26809e-06 0)
(-0.00327094 -1.13477e-05 0)
(-0.00322815 -1.33928e-05 0)
(-0.00317839 -1.53961e-05 0)
(-0.00312181 -1.73511e-05 0)
(-0.00305861 -1.9249e-05 0)
(-0.002989 -2.10808e-05 0)
(-0.00291321 -2.28385e-05 0)
(-0.00283153 -2.45152e-05 0)
(-0.00274423 -2.61035e-05 0)
(-0.00265165 -2.75953e-05 0)
(-0.00255414 -2.89825e-05 0)
(-0.00245206 -3.02575e-05 0)
(-0.00234582 -3.14117e-05 0)
(-0.00223586 -3.24358e-05 0)
(-0.00212262 -3.33223e-05 0)
(-0.0020066 -3.4066e-05 0)
(-0.00188828 -3.46614e-05 0)
(-0.0017682 -3.5101e-05 0)
(-0.00164691 -3.53761e-05 0)
(-0.00152498 -3.54788e-05 0)
(-0.001403 -3.54023e-05 0)
(-0.00128159 -3.51411e-05 0)
(-0.00116137 -3.46904e-05 0)
(-0.001043 -3.40457e-05 0)
(-0.000927123 -3.32025e-05 0)
(-0.000814414 -3.21575e-05 0)
(-0.000705545 -3.09079e-05 0)
(-0.000601196 -2.94511e-05 0)
(-0.000502046 -2.77848e-05 0)
(-0.000408776 -2.59079e-05 0)
(-0.000322058 -2.38207e-05 0)
(-0.000242552 -2.15245e-05 0)
(-0.000170897 -1.90222e-05 0)
(-0.000107697 -1.63205e-05 0)
(-5.35102e-05 -1.34318e-05 0)
(-8.82899e-06 -1.0375e-05 0)
(2.59499e-05 -7.17775e-06 0)
(5.05648e-05 -3.88336e-06 0)
(6.49496e-05 -5.61932e-07 0)
(6.93341e-05 2.66691e-06 0)
(6.44023e-05 5.59652e-06 0)
(5.1508e-05 7.87093e-06 0)
(3.31338e-05 8.8561e-06 0)
(1.42447e-05 7.4749e-06 0)
(2.76138e-06 2.76018e-06 0)
(7.42026e-06 -1.46687e-05 0)
(3.0466e-05 -3.09653e-05 0)
(6.1531e-05 -3.32855e-05 0)
(8.6544e-05 -2.55897e-05 0)
(9.60841e-05 -1.17048e-05 0)
(8.46501e-05 5.73681e-06 0)
(4.89291e-05 2.5032e-05 0)
(-1.29025e-05 4.50535e-05 0)
(-0.000101552 6.50856e-05 0)
(-0.000216926 8.46476e-05 0)
(-0.000358387 0.000103429 0)
(-0.000524882 0.000121214 0)
(-0.000715091 0.000137866 0)
(-0.000927521 0.000153285 0)
(-0.0011605 0.000167419 0)
(-0.0014123 0.000180232 0)
(-0.00168115 0.000191717 0)
(-0.00196519 0.000201865 0)
(-0.0022626 0.000210688 0)
(-0.00257155 0.000218195 0)
(-0.00289022 0.00022441 0)
(-0.00321682 0.000229364 0)
(-0.00354957 0.000233084 0)
(-0.00388677 0.0002356 0)
(-0.00422672 0.000236949 0)
(-0.00456779 0.000237167 0)
(-0.0049084 0.000236294 0)
(-0.005247 0.00023437 0)
(-0.00558212 0.000231434 0)
(-0.00591233 0.000227526 0)
(-0.00623625 0.000222683 0)
(-0.00655258 0.000216943 0)
(-0.00686005 0.000210351 0)
(-0.00715747 0.000202948 0)
(-0.0074437 0.000194779 0)
(-0.00771766 0.000185885 0)
(-0.00797832 0.000176308 0)
(-0.00822474 0.000166093 0)
(-0.00845602 0.000155279 0)
(-0.00867132 0.000143907 0)
(-0.00886987 0.000132019 0)
(-0.00905095 0.00011966 0)
(-0.00921391 0.000106872 0)
(-0.00935816 9.36981e-05 0)
(-0.00948319 8.01811e-05 0)
(-0.00958853 6.63669e-05 0)
(-0.00967377 5.23009e-05 0)
(-0.00973861 3.80291e-05 0)
(-0.00978277 2.35976e-05 0)
(-0.00980607 9.05223e-06 0)
(-0.00980837 -5.55925e-06 0)
(-0.00978963 -2.01877e-05 0)
(-0.00974985 -3.4783e-05 0)
(-0.00968913 -4.92949e-05 0)
(-0.00960763 -6.36734e-05 0)
(-0.00950557 -7.78663e-05 0)
(-0.00938328 -9.18202e-05 0)
(-0.00924113 -0.000105483 0)
(-0.00907959 -0.000118803 0)
(-0.00889919 -0.000131727 0)
(-0.00870055 -0.000144198 0)
(-0.00848436 -0.000156163 0)
(-0.00825138 -0.000167569 0)
(-0.00800247 -0.000178362 0)
(-0.00773855 -0.000188489 0)
(-0.00746061 -0.000197897 0)
(-0.00716974 -0.000206533 0)
(-0.00686708 -0.000214341 0)
(-0.00655385 -0.00022127 0)
(-0.00623136 -0.000227271 0)
(-0.00590097 -0.000232297 0)
(-0.0055641 -0.000236303 0)
(-0.00522226 -0.000239243 0)
(-0.004877 -0.000241073 0)
(-0.00452994 -0.000241747 0)
(-0.00418275 -0.000241227 0)
(-0.00383714 -0.000239478 0)
(-0.00349489 -0.000236469 0)
(-0.00315779 -0.000232173 0)
(-0.00282768 -0.000226571 0)
(-0.00250639 -0.000219645 0)
(-0.0021958 -0.000211385 0)
(-0.00189778 -0.000201786 0)
(-0.00161419 -0.00019085 0)
(-0.00134687 -0.000178588 0)
(-0.00109762 -0.000165023 0)
(-0.000868166 -0.000150194 0)
(-0.000660172 -0.000134158 0)
(-0.000475161 -0.000117002 0)
(-0.000314494 -9.88447e-05 0)
(-0.000179305 -7.98553e-05 0)
(-7.04177e-05 -6.02702e-05 0)
(1.17661e-05 -4.04278e-05 0)
(6.74218e-05 -2.08197e-05 0)
(9.75286e-05 -2.17351e-06 0)
(0.00010418 1.44178e-05 0)
(9.09326e-05 2.73058e-05 0)
(6.33663e-05 3.40008e-05 0)
(3.08902e-05 3.08838e-05 0)
(7.46985e-06 1.42333e-05 0)
(8.45453e-06 -3.29962e-05 0)
(3.21785e-05 -6.16816e-05 0)
(5.94e-05 -6.06995e-05 0)
(7.34787e-05 -3.81892e-05 0)
(6.30471e-05 -1.31275e-06 0)
(2.10574e-05 4.45468e-05 0)
(-5.71218e-05 9.55289e-05 0)
(-0.000174222 0.000148928 0)
(-0.000331497 0.000202839 0)
(-0.000529075 0.00025594 0)
(-0.000766207 0.000307292 0)
(-0.00104155 0.000356238 0)
(-0.00135328 0.000402312 0)
(-0.00169922 0.000445193 0)
(-0.00207698 0.000484667 0)
(-0.00248398 0.000520581 0)
(-0.0029175 0.000552865 0)
(-0.00337479 0.000581481 0)
(-0.00385301 0.000606409 0)
(-0.00434933 0.00062768 0)
(-0.00486093 0.000645332 0)
(-0.005385 0.000659421 0)
(-0.00591878 0.000670021 0)
(-0.00645955 0.000677211 0)
(-0.00700465 0.000681078 0)
(-0.00755149 0.000681722 0)
(-0.00809754 0.000679243 0)
(-0.00864037 0.000673748 0)
(-0.00917761 0.000665345 0)
(-0.00970697 0.000654145 0)
(-0.0102263 0.000640259 0)
(-0.0107334 0.000623799 0)
(-0.0112263 0.000604884 0)
(-0.0117032 0.000583634 0)
(-0.0121621 0.000560166 0)
(-0.0126013 0.000534603 0)
(-0.0130192 0.000507069 0)
(-0.0134143 0.000477681 0)
(-0.013785 0.000446562 0)
(-0.0141302 0.000413833 0)
(-0.0144484 0.000379615 0)
(-0.0147386 0.000344034 0)
(-0.0149998 0.000307217 0)
(-0.0152309 0.000269287 0)
(-0.0154312 0.000230371 0)
(-0.0155999 0.000190603 0)
(-0.0157363 0.000150113 0)
(-0.01584 0.000109032 0)
(-0.0159105 6.74955e-05 0)
(-0.0159476 2.56399e-05 0)
(-0.015951 -1.63973e-05 0)
(-0.0159206 -5.84746e-05 0)
(-0.0158565 -0.000100448 0)
(-0.0157588 -0.000142174 0)
(-0.0156279 -0.000183507 0)
(-0.015464 -0.000224297 0)
(-0.0152677 -0.000264394 0)
(-0.0150396 -0.000303645 0)
(-0.0147804 -0.000341899 0)
(-0.0144911 -0.000379004 0)
(-0.0141725 -0.000414803 0)
(-0.0138259 -0.000449141 0)
(-0.0134524 -0.000481865 0)
(-0.0130535 -0.000512821 0)
(-0.0126305 -0.000541855 0)
(-0.0121851 -0.000568816 0)
(-0.0117191 -0.000593552 0)
(-0.0112342 -0.000615913 0)
(-0.0107325 -0.000635754 0)
(-0.0102159 -0.000652933 0)
(-0.00968669 -0.000667317 0)
(-0.00914714 -0.000678774 0)
(-0.00859963 -0.000687179 0)
(-0.00804663 -0.000692408 0)
(-0.0074907 -0.000694349 0)
(-0.0069345 -0.000692895 0)
(-0.00638075 -0.000687955 0)
(-0.00583221 -0.000679447 0)
(-0.00529174 -0.000667304 0)
(-0.00476219 -0.000651473 0)
(-0.00424648 -0.000631919 0)
(-0.00374751 -0.000608623 0)
(-0.00326819 -0.000581589 0)
(-0.00281141 -0.000550846 0)
(-0.00237998 -0.000516451 0)
(-0.00197664 -0.000478501 0)
(-0.00160403 -0.00043714 0)
(-0.00126459 -0.000392576 0)
(-0.000960572 -0.000345094 0)
(-0.000693911 -0.000295083 0)
(-0.000466172 -0.000243073 0)
(-0.000278408 -0.000189782 0)
(-0.00013101 -0.000136198 0)
(-2.34958e-05 -8.36836e-05 0)
(4.57578e-05 -3.41398e-05 0)
(7.9868e-05 9.77105e-06 0)
(8.37785e-05 4.4334e-05 0)
(6.47266e-05 6.44509e-05 0)
(3.41304e-05 6.33872e-05 0)
(8.87188e-06 3.31252e-05 0)
(7.24409e-06 -5.00842e-05 0)
(2.44972e-05 -8.61009e-05 0)
(3.69235e-05 -7.46704e-05 0)
(2.76423e-05 -2.88131e-05 0)
(-1.51942e-05 4.08427e-05 0)
(-9.9387e-05 0.000125975 0)
(-0.000230184 0.000220387 0)
(-0.000410836 0.000319496 0)
(-0.000642928 0.000419961 0)
(-0.000926709 0.000519336 0)
(-0.00126142 0.000615842 0)
(-0.00164546 0.000708171 0)
(-0.00207666 0.000795386 0)
(-0.00255236 0.000876812 0)
(-0.00306955 0.000951957 0)
(-0.00362495 0.00102051 0)
(-0.00421513 0.00108225 0)
(-0.00483649 0.00113707 0)
(-0.0054854 0.00118491 0)
(-0.00615814 0.00122578 0)
(-0.00685101 0.00125972 0)
(-0.00756033 0.00128685 0)
(-0.00828242 0.00130725 0)
(-0.0090137 0.00132108 0)
(-0.00975062 0.0013285 0)
(-0.0104897 0.00132967 0)
(-0.0112277 0.00132479 0)
(-0.0119611 0.00131404 0)
(-0.012687 0.00129765 0)
(-0.0134022 0.0012758 0)
(-0.0141037 0.00124873 0)
(-0.0147887 0.00121664 0)
(-0.0154546 0.00117977 0)
(-0.0160987 0.00113833 0)
(-0.0167185 0.00109257 0)
(-0.0173117 0.00104271 0)
(-0.0178762 0.000988997 0)
(-0.0184098 0.000931658 0)
(-0.0189105 0.00087093 0)
(-0.0193766 0.000807055 0)
(-0.0198063 0.000740274 0)
(-0.0201981 0.000670829 0)
(-0.0205507 0.000598966 0)
(-0.0208626 0.000524934 0)
(-0.0211329 0.000448984 0)
(-0.0213604 0.00037137 0)
(-0.0215444 0.000292351 0)
(-0.0216842 0.000212187 0)
(-0.0217791 0.00013114 0)
(-0.0218288 4.9478e-05 0)
(-0.021833 -3.25262e-05 0)
(-0.0217917 -0.000114597 0)
(-0.0217048 -0.000196456 0)
(-0.0215726 -0.000277821 0)
(-0.0213954 -0.000358406 0)
(-0.0211738 -0.000437921 0)
(-0.0209085 -0.000516073 0)
(-0.0206002 -0.000592566 0)
(-0.02025 -0.000667105 0)
(-0.0198591 -0.000739389 0)
(-0.0194289 -0.000809121 0)
(-0.0189607 -0.000875997 0)
(-0.0184564 -0.000939717 0)
(-0.0179177 -0.000999984 0)
(-0.0173467 -0.0010565 0)
(-0.0167454 -0.00110897 0)
(-0.0161163 -0.00115711 0)
(-0.0154618 -0.00120062 0)
(-0.0147845 -0.00123922 0)
(-0.0140873 -0.00127266 0)
(-0.013373 -0.00130066 0)
(-0.0126447 -0.00132297 0)
(-0.0119056 -0.00133936 0)
(-0.011159 -0.00134959 0)
(-0.0104084 -0.00135347 0)
(-0.00965718 -0.00135078 0)
(-0.0089091 -0.00134137 0)
(-0.00816781 -0.00132509 0)
(-0.00743707 -0.00130182 0)
(-0.00672066 -0.00127147 0)
(-0.00602244 -0.00123398 0)
(-0.00534622 -0.00118934 0)
(-0.00469582 -0.00113758 0)
(-0.00407499 -0.00107879 0)
(-0.0034874 -0.00101311 0)
(-0.00293658 -0.000940758 0)
(-0.00242589 -0.000862066 0)
(-0.00195845 -0.000777475 0)
(-0.00153704 -0.000687584 0)
(-0.00116407 -0.00059319 0)
(-0.000841402 -0.00049535 0)
(-0.000570245 -0.000395468 0)
(-0.000350963 -0.000295414 0)
(-0.000182857 -0.000197685 0)
(-6.38923e-05 -0.00010563 0)
(9.63509e-06 -2.37441e-05 0)
(4.33911e-05 4.1975e-05 0)
(4.54065e-05 8.36627e-05 0)
(2.77717e-05 9.12437e-05 0)
(7.95418e-06 5.16162e-05 0)
(4.89782e-06 -6.13149e-05 0)
(1.11118e-05 -9.5261e-05 0)
(9.6595e-07 -6.43778e-05 0)
(-4.07089e-05 1.39282e-05 0)
(-0.000125249 0.000125602 0)
(-0.000260528 0.000259559 0)
(-0.000451948 0.000407234 0)
(-0.000702896 0.000562158 0)
(-0.00101505 0.000719425 0)
(-0.00138869 0.000875354 0)
(-0.00182295 0.00102717 0)
(-0.00231605 0.0011728 0)
(-0.00286549 0.00131069 0)
(-0.00346822 0.00143972 0)
(-0.00412074 0.00155904 0)
(-0.0048192 0.00166809 0)
(-0.00555953 0.00176646 0)
(-0.00633746 0.0018539 0)
(-0.00714863 0.00193029 0)
(-0.00798859 0.00199561 0)
(-0.00885285 0.0020499 0)
(-0.00973695 0.00209326 0)
(-0.0106364 0.00212587 0)
(-0.0115469 0.00214791 0)
(-0.0124641 0.00215962 0)
(-0.0133837 0.00216127 0)
(-0.0143016 0.00215315 0)
(-0.0152138 0.00213555 0)
(-0.0161163 0.0021088 0)
(-0.0170055 0.00207323 0)
(-0.0178776 0.00202917 0)
(-0.0187291 0.00197699 0)
(-0.0195567 0.00191705 0)
(-0.0203572 0.00184969 0)
(-0.0211275 0.00177531 0)
(-0.0218647 0.00169426 0)
(-0.0225661 0.00160694 0)
(-0.023229 0.00151372 0)
(-0.0238512 0.001415 0)
(-0.0244302 0.00131115 0)
(-0.024964 0.00120258 0)
(-0.0254507 0.00108968 0)
(-0.0258885 0.000972847 0)
(-0.0262759 0.000852491 0)
(-0.0266114 0.000729022 0)
(-0.0268939 0.000602856 0)
(-0.0271222 0.000474411 0)
(-0.0272955 0.000344113 0)
(-0.0274131 0.000212392 0)
(-0.0274745 7.96844e-05 0)
(-0.0274795 -5.35667e-05 0)
(-0.0274277 -0.000186913 0)
(-0.0273195 -0.000319902 0)
(-0.0271549 -0.000452073 0)
(-0.0269345 -0.00058296 0)
(-0.0266589 -0.000712093 0)
(-0.026329 -0.000838998 0)
(-0.0259458 -0.000963196 0)
(-0.0255106 -0.00108421 0)
(-0.0250248 -0.00120154 0)
(-0.0244902 -0.00131472 0)
(-0.0239086 -0.00142325 0)
(-0.0232821 -0.00152665 0)
(-0.0226129 -0.00162444 0)
(-0.0219036 -0.00171614 0)
(-0.0211568 -0.00180127 0)
(-0.0203754 -0.00187936 0)
(-0.0195625 -0.00194996 0)
(-0.0187213 -0.00201261 0)
(-0.0178552 -0.00206689 0)
(-0.0169679 -0.00211238 0)
(-0.0160632 -0.00214867 0)
(-0.0151449 -0.00217539 0)
(-0.0142171 -0.00219219 0)
(-0.0132841 -0.00219872 0)
(-0.0123501 -0.0021947 0)
(-0.0114197 -0.00217987 0)
(-0.0104973 -0.002154 0)
(-0.00958752 -0.00211692 0)
(-0.00869496 -0.00206851 0)
(-0.00782429 -0.0020087 0)
(-0.00698014 -0.00193749 0)
(-0.00616713 -0.00185497 0)
(-0.00538976 -0.00176131 0)
(-0.00465242 -0.00165677 0)
(-0.00395931 -0.00154178 0)
(-0.00331442 -0.00141689 0)
(-0.0027214 -0.00128287 0)
(-0.00218352 -0.00114073 0)
(-0.00170353 -0.000991793 0)
(-0.00128358 -0.000837763 0)
(-0.000925003 -0.000680872 0)
(-0.000628207 -0.000524015 0)
(-0.000392411 -0.00037096 0)
(-0.000215413 -0.00022661 0)
(-9.3303e-05 -9.7345e-05 0)
(-2.01928e-05 8.5666e-06 0)
(1.21415e-05 8.05654e-05 0)
(1.54416e-05 0.000105303 0)
(5.79621e-06 6.48661e-05 0)
(2.00159e-06 -6.44558e-05 0)
(-5.58496e-06 -8.40507e-05 0)
(-4.35542e-05 -2.30394e-05 0)
(-0.000124062 9.75418e-05 0)
(-0.00025709 0.000260676 0)
(-0.000450145 0.000452663 0)
(-0.000708376 0.000662764 0)
(-0.00103498 0.000882627 0)
(-0.00143153 0.00110579 0)
(-0.00189814 0.00132728 0)
(-0.00243382 0.00154326 0)
(-0.00303654 0.00175078 0)
(-0.00370351 0.00194763 0)
(-0.00443131 0.00213212 0)
(-0.00521602 0.002303 0)
(-0.00605329 0.00245936 0)
(-0.00693852 0.00260058 0)
(-0.00786686 0.00272623 0)
(-0.0088333 0.00283609 0)
(-0.00983274 0.00293005 0)
(-0.01086 0.00300815 0)
(-0.01191 0.0030705 0)
(-0.0129776 0.00311729 0)
(-0.0140575 0.00314879 0)
(-0.0151449 0.00316532 0)
(-0.0162347 0.00316723 0)
(-0.0173222 0.00315492 0)
(-0.0184027 0.00312882 0)
(-0.0194714 0.00308938 0)
(-0.0205241 0.00303707 0)
(-0.0215565 0.00297238 0)
(-0.0225643 0.00289582 0)
(-0.0235438 0.0028079 0)
(-0.024491 0.00270915 0)
(-0.0254025 0.00260012 0)
(-0.0262747 0.00248134 0)
(-0.0271044 0.00235337 0)
(-0.0278886 0.00221676 0)
(-0.0286245 0.00207209 0)
(-0.0293093 0.00191991 0)
(-0.0299406 0.00176082 0)
(-0.0305161 0.00159539 0)
(-0.0310338 0.00142421 0)
(-0.0314918 0.00124787 0)
(-0.0318884 0.00106698 0)
(-0.0322222 0.000882142 0)
(-0.0324919 0.00069398 0)
(-0.0326966 0.000503116 0)
(-0.0328354 0.000310182 0)
(-0.0329077 0.000115819 0)
(-0.0329132 -7.93235e-05 0)
(-0.0328517 -0.000274589 0)
(-0.0327233 -0.000469313 0)
(-0.0325284 -0.000662822 0)
(-0.0322675 -0.000854433 0)
(-0.0319413 -0.00104346 0)
(-0.0315509 -0.0012292 0)
(-0.0310975 -0.00141097 0)
(-0.0305827 -0.00158806 0)
(-0.0300081 -0.00175976 0)
(-0.0293758 -0.00192536 0)
(-0.028688 -0.00208415 0)
(-0.027947 -0.00223543 0)
(-0.0271557 -0.0023785 0)
(-0.0263168 -0.00251265 0)
(-0.0254337 -0.0026372 0)
(-0.0245096 -0.00275147 0)
(-0.0235482 -0.0028548 0)
(-0.0225533 -0.00294654 0)
(-0.0215289 -0.00302606 0)
(-0.0204792 -0.00309277 0)
(-0.0194088 -0.00314609 0)
(-0.0183221 -0.00318547 0)
(-0.017224 -0.00321042 0)
(-0.0161193 -0.00322047 0)
(-0.0150131 -0.00321521 0)
(-0.0139107 -0.00319427 0)
(-0.0128171 -0.00315735 0)
(-0.0117379 -0.00310423 0)
(-0.0106782 -0.00303475 0)
(-0.00964355 -0.00294884 0)
(-0.00863926 -0.00284655 0)
(-0.00767062 -0.00272803 0)
(-0.00674281 -0.00259357 0)
(-0.00586085 -0.00244361 0)
(-0.00502954 -0.00227881 0)
(-0.00425338 -0.00210003 0)
(-0.00353651 -0.00190843 0)
(-0.0028826 -0.0017055 0)
(-0.00229475 -0.00149318 0)
(-0.00177534 -0.00127392 0)
(-0.00132591 -0.00105087 0)
(-0.000946986 -0.000828023 0)
(-0.000637859 -0.00061048 0)
(-0.000396396 -0.000404714 0)
(-0.000218797 -0.000218955 0)
(-9.93415e-05 -6.36308e-05 0)
(-3.00817e-05 4.81946e-05 0)
(-4.08092e-07 0.00010021 0)
(3.02641e-06 7.05078e-05 0)
(-1.12236e-06 -5.83411e-05 0)
(-2.40706e-05 -4.92075e-05 0)
(-9.32071e-05 5.39549e-05 0)
(-0.000216867 0.000227436 0)
(-0.000403185 0.000451712 0)
(-0.000658891 0.000710831 0)
(-0.000988559 0.000992056 0)
(-0.00139497 0.00128529 0)
(-0.00187932 0.00158256 0)
(-0.0024415 0.00187761 0)
(-0.0030802 0.00216551 0)
(-0.00379315 0.00244243 0)
(-0.00457723 0.00270541 0)
(-0.00542868 0.00295215 0)
(-0.00634315 0.00318094 0)
(-0.0073159 0.0033905 0)
(-0.00834179 0.00357991 0)
(-0.00941547 0.00374855 0)
(-0.0105314 0.00389605 0)
(-0.0116839 0.00402222 0)
(-0.0128672 0.00412704 0)
(-0.0140755 0.00421063 0)
(-0.015303 0.00427321 0)
(-0.0165441 0.00431509 0)
(-0.0177931 0.00433669 0)
(-0.0190443 0.00433845 0)
(-0.0202923 0.0043209 0)
(-0.0215318 0.00428459 0)
(-0.0227577 0.00423012 0)
(-0.0239648 0.00415812 0)
(-0.0251483 0.00406924 0)
(-0.0263036 0.00396417 0)
(-0.0274261 0.00384359 0)
(-0.0285116 0.00370823 0)
(-0.0295559 0.00355882 0)
(-0.0305552 0.00339608 0)
(-0.0315057 0.00322079 0)
(-0.0324039 0.00303369 0)
(-0.0332467 0.00283555 0)
(-0.034031 0.00262717 0)
(-0.0347539 0.00240932 0)
(-0.0354128 0.0021828 0)
(-0.0360055 0.00194842 0)
(-0.0365298 0.001707 0)
(-0.0369837 0.00145936 0)
(-0.0373657 0.00120634 0)
(-0.0376743 0.000948781 0)
(-0.0379084 0.000687538 0)
(-0.0380671 0.000423482 0)
(-0.0381496 0.000157488 0)
(-0.0381556 -0.000109553 0)
(-0.0380849 -0.000376744 0)
(-0.0379377 -0.000643172 0)
(-0.0377143 -0.000907916 0)
(-0.0374153 -0.00117004 0)
(-0.0370416 -0.00142862 0)
(-0.0365944 -0.00168269 0)
(-0.0360752 -0.0019313 0)
(-0.0354856 -0.0021735 0)
(-0.0348276 -0.00240832 0)
(-0.0341036 -0.00263479 0)
(-0.0333159 -0.00285195 0)
(-0.0324675 -0.00305883 0)
(-0.0315613 -0.00325449 0)
(-0.0306008 -0.00343798 0)
(-0.0295894 -0.00360836 0)
(-0.0285311 -0.00376471 0)
(-0.02743 -0.00390614 0)
(-0.0262904 -0.00403178 0)
(-0.0251169 -0.00414077 0)
(-0.0239142 -0.00423232 0)
(-0.0226875 -0.00430565 0)
(-0.0214418 -0.00436004 0)
(-0.0201827 -0.00439482 0)
(-0.0189157 -0.00440938 0)
(-0.0176464 -0.00440317 0)
(-0.0163807 -0.00437573 0)
(-0.0151245 -0.00432667 0)
(-0.0138838 -0.00425571 0)
(-0.0126647 -0.00416267 0)
(-0.0114732 -0.0040475 0)
(-0.0103152 -0.00391029 0)
(-0.00919664 -0.0037513 0)
(-0.00812335 -0.00357096 0)
(-0.00710088 -0.00336994 0)
(-0.00613455 -0.00314916 0)
(-0.00522934 -0.00290984 0)
(-0.00438983 -0.00265358 0)
(-0.00362006 -0.00238244 0)
(-0.00292348 -0.00209901 0)
(-0.00230274 -0.00180656 0)
(-0.00175964 -0.0015092 0)
(-0.00129492 -0.00121205 0)
(-0.000908106 -0.000921537 0)
(-0.00059734 -0.000645664 0)
(-0.000359193 -0.000394408 0)
(-0.000188429 -0.000180174 0)
(-7.77415e-05 -1.82472e-05 0)
(-1.82013e-05 7.25548e-05 0)
(-1.18664e-08 6.72729e-05 0)
(-4.29989e-06 -4.23969e-05 0)
(-4.34056e-05 1.11955e-05 0)
(-0.000145642 0.000169612 0)
(-0.000315209 0.000407275 0)
(-0.000558014 0.000702694 0)
(-0.000879763 0.00103805 0)
(-0.00128422 0.00139883 0)
(-0.00177347 0.00177339 0)
(-0.00234825 0.00215234 0)
(-0.003008 0.00252818 0)
(-0.00375105 0.00289493 0)
(-0.00457477 0.00324784 0)
(-0.00547571 0.00358319 0)
(-0.00644972 0.00389807 0)
(-0.00749208 0.00419024 0)
(-0.00859761 0.00445802 0)
(-0.00976074 0.00470019 0)
(-0.0109756 0.00491587 0)
(-0.0122363 0.00510452 0)
(-0.0135364 0.00526585 0)
(-0.0148698 0.00539978 0)
(-0.01623 0.0055064 0)
(-0.0176108 0.00558596 0)
(-0.0190059 0.00563883 0)
(-0.020409 0.00566549 0)
(-0.0218139 0.0056665 0)
(-0.0232147 0.00564251 0)
(-0.0246054 0.00559421 0)
(-0.0259803 0.00552235 0)
(-0.0273338 0.00542774 0)
(-0.0286606 0.00531121 0)
(-0.0299555 0.00517364 0)
(-0.0312134 0.00501591 0)
(-0.0324296 0.00483894 0)
(-0.0335994 0.00464369 0)
(-0.0347187 0.00443109 0)
(-0.0357832 0.00420214 0)
(-0.0367891 0.00395782 0)
(-0.0377328 0.00369912 0)
(-0.0386109 0.00342708 0)
(-0.0394202 0.0031427 0)
(-0.0401578 0.00284704 0)
(-0.0408212 0.00254114 0)
(-0.0414079 0.00222608 0)
(-0.0419159 0.00190292 0)
(-0.0423434 0.00157275 0)
(-0.0426886 0.00123669 0)
(-0.0429505 0.00089585 0)
(-0.0431278 0.000551358 0)
(-0.04322 0.000204362 0)
(-0.0432265 -0.000143978 0)
(-0.0431473 -0.000492489 0)
(-0.0429823 -0.000839985 0)
(-0.042732 -0.00118526 0)
(-0.0423972 -0.00152711 0)
(-0.0419789 -0.00186431 0)
(-0.0414783 -0.00219561 0)
(-0.040897 -0.0025198 0)
(-0.0402371 -0.0028356 0)
(-0.0395006 -0.00314178 0)
(-0.0386901 -0.00343708 0)
(-0.0378084 -0.00372025 0)
(-0.0368586 -0.00399003 0)
(-0.0358442 -0.00424521 0)
(-0.0347689 -0.00448454 0)
(-0.0336365 -0.00470683 0)
(-0.0324516 -0.00491088 0)
(-0.0312184 -0.00509555 0)
(-0.029942 -0.0052597 0)
(-0.0286274 -0.00540225 0)
(-0.0272799 -0.00552218 0)
(-0.025905 -0.00561848 0)
(-0.0245086 -0.00569025 0)
(-0.0230966 -0.00573662 0)
(-0.0216751 -0.00575684 0)
(-0.0202504 -0.00575021 0)
(-0.0188291 -0.00571615 0)
(-0.0174175 -0.00565421 0)
(-0.0160222 -0.00556404 0)
(-0.01465 -0.00544545 0)
(-0.0133074 -0.00529842 0)
(-0.012001 -0.0051231 0)
(-0.0107373 -0.00491988 0)
(-0.00952253 -0.00468936 0)
(-0.00836281 -0.00443245 0)
(-0.00726395 -0.00415038 0)
(-0.00623138 -0.00384478 0)
(-0.00527009 -0.00351773 0)
(-0.0043845 -0.00317188 0)
(-0.0035784 -0.00281052 0)
(-0.0028548 -0.00243777 0)
(-0.00221579 -0.0020587 0)
(-0.00166246 -0.00167956 0)
(-0.00119471 -0.00130806 0)
(-0.000811125 -0.00095363 0)
(-0.000508868 -0.000627856 0)
(-0.000283433 -0.000344892 0)
(-0.000128425 -0.000121906 0)
(-3.69381e-05 2.02794e-05 0)
(-3.1292e-06 5.4519e-05 0)
(-7.44898e-06 -1.64188e-05 0)
(-6.29915e-05 9.81335e-05 0)
(-0.000199318 0.000325657 0)
(-0.000416344 0.00063934 0)
(-0.000717618 0.00101626 0)
(-0.00110763 0.00143705 0)
(-0.00158912 0.00188576 0)
(-0.00216338 0.00234932 0)
(-0.00283046 0.0028171 0)
(-0.00358925 0.00328042 0)
(-0.00443764 0.00373231 0)
(-0.00537256 0.00416713 0)
(-0.00639016 0.00458039 0)
(-0.00748589 0.00496855 0)
(-0.00865464 0.00532886 0)
(-0.0098908 0.00565919 0)
(-0.0111884 0.00595798 0)
(-0.0125411 0.00622412 0)
(-0.0139425 0.00645685 0)
(-0.0153858 0.00665576 0)
(-0.0168643 0.0068207 0)
(-0.0183712 0.00695173 0)
(-0.0198995 0.0070491 0)
(-0.0214424 0.00711325 0)
(-0.0229933 0.00714472 0)
(-0.0245453 0.00714419 0)
(-0.0260921 0.00711241 0)
(-0.0276271 0.00705025 0)
(-0.0291442 0.00695861 0)
(-0.0306372 0.00683849 0)
(-0.0321004 0.00669091 0)
(-0.0335279 0.00651694 0)
(-0.0349145 0.0063177 0)
(-0.0362548 0.00609432 0)
(-0.0375438 0.00584799 0)
(-0.0387769 0.00557989 0)
(-0.0399496 0.00529125 0)
(-0.0410575 0.0049833 0)
(-0.0420968 0.00465731 0)
(-0.0430637 0.00431454 0)
(-0.0439548 0.00395628 0)
(-0.0447669 0.00358384 0)
(-0.0454972 0.00319855 0)
(-0.0461431 0.00280175 0)
(-0.0467022 0.00239478 0)
(-0.0471726 0.00197903 0)
(-0.0475526 0.00155588 0)
(-0.0478407 0.00112674 0)
(-0.0480359 0.000693034 0)
(-0.0481372 0.000256201 0)
(-0.0481443 -0.0001823 0)
(-0.048057 -0.000620993 0)
(-0.0478754 -0.00105838 0)
(-0.0475999 -0.00149296 0)
(-0.0472313 -0.00192321 0)
(-0.0467709 -0.00234759 0)
(-0.0462198 -0.00276455 0)
(-0.0455801 -0.00317253 0)
(-0.0448536 -0.00356998 0)
(-0.0440429 -0.00395532 0)
(-0.0431508 -0.00432698 0)
(-0.0421802 -0.0046834 0)
(-0.0411346 -0.00502302 0)
(-0.0400177 -0.00534429 0)
(-0.0388337 -0.00564568 0)
(-0.0375867 -0.00592568 0)
(-0.0362816 -0.00618283 0)
(-0.0349233 -0.00641568 0)
(-0.033517 -0.00662283 0)
(-0.0320683 -0.00680294 0)
(-0.030583 -0.00695472 0)
(-0.0290671 -0.00707696 0)
(-0.0275269 -0.00716853 0)
(-0.0259689 -0.00722837 0)
(-0.0243998 -0.00725555 0)
(-0.0228264 -0.00724924 0)
(-0.0212557 -0.00720875 0)
(-0.0196947 -0.00713352 0)
(-0.0181507 -0.00702317 0)
(-0.0166307 -0.0068775 0)
(-0.0151419 -0.00669652 0)
(-0.0136915 -0.00648046 0)
(-0.0122863 -0.00622985 0)
(-0.0109333 -0.00594549 0)
(-0.00963889 -0.00562856 0)
(-0.00840944 -0.00528062 0)
(-0.00725079 -0.00490373 0)
(-0.00616833 -0.00450049 0)
(-0.0051669 -0.00407415 0)
(-0.00425065 -0.00362874 0)
(-0.00342297 -0.00316919 0)
(-0.00268637 -0.00270154 0)
(-0.00204236 -0.00223313 0)
(-0.00149134 -0.00177287 0)
(-0.00103251 -0.00133152 0)
(-0.00066377 -0.000922081 0)
(-0.00038154 -0.000560218 0)
(-0.000180516 -0.00026464 0)
(-5.59968e-05 -5.76956e-05 0)
(-6.22375e-06 3.20042e-05 0)
(-1.05175e-05 1.95672e-05 0)
(-8.24828e-05 0.000211961 0)
(-0.000253209 0.000522901 0)
(-0.000518409 0.000924901 0)
(-0.000879203 0.00139395 0)
(-0.00133876 0.00190958 0)
(-0.0018987 0.00245458 0)
(-0.00255935 0.00301472 0)
(-0.00331997 0.00357821 0)
(-0.00417882 0.00413537 0)
(-0.00513321 0.00467825 0)
(-0.00617959 0.00520037 0)
(-0.00731365 0.00569654 0)
(-0.0085304 0.00616257 0)
(-0.00982432 0.00659517 0)
(-0.0111894 0.00699181 0)
(-0.0126192 0.00735055 0)
(-0.014107 0.00767001 0)
(-0.0156459 0.00794925 0)
(-0.0172287 0.00818769 0)
(-0.0188482 0.00838511 0)
(-0.020497 0.00854154 0)
(-0.022168 0.00865723 0)
(-0.0238537 0.00873265 0)
(-0.0255469 0.00876844 0)
(-0.0272405 0.00876536 0)
(-0.0289275 0.00872433 0)
(-0.030601 0.00864633 0)
(-0.0322542 0.00853248 0)
(-0.0338808 0.00838393 0)
(-0.0354742 0.00820192 0)
(-0.0370285 0.00798775 0)
(-0.0385378 0.00774275 0)
(-0.0399965 0.00746831 0)
(-0.0413991 0.00716585 0)
(-0.0427407 0.00683683 0)
(-0.0440162 0.00648272 0)
(-0.0452212 0.00610503 0)
(-0.0463514 0.0057053 0)
(-0.0474028 0.00528508 0)
(-0.0483717 0.00484594 0)
(-0.0492546 0.00438948 0)
(-0.0500485 0.00391733 0)
(-0.0507506 0.00343111 0)
(-0.0513584 0.00293249 0)
(-0.0518697 0.00242315 0)
(-0.0522827 0.00190478 0)
(-0.0525959 0.00137911 0)
(-0.052808 0.000847873 0)
(-0.0529182 0.000312841 0)
(-0.052926 -0.000224205 0)
(-0.0528312 -0.000761461 0)
(-0.0526339 -0.0012971 0)
(-0.0523346 -0.00182928 0)
(-0.0519342 -0.00235615 0)
(-0.0514339 -0.00287582 0)
(-0.0508352 -0.00338641 0)
(-0.05014 -0.00388601 0)
(-0.0493506 -0.00437273 0)
(-0.0484696 -0.00484464 0)
(-0.0475 -0.00529984 0)
(-0.0464451 -0.00573642 0)
(-0.0453085 -0.00615248 0)
(-0.0440944 -0.00654615 0)
(-0.0428069 -0.00691556 0)
(-0.041451 -0.00725888 0)
(-0.0400315 -0.00757434 0)
(-0.0385539 -0.00786017 0)
(-0.0370237 -0.0081147 0)
(-0.035447 -0.00833629 0)
(-0.03383 -0.0085234 0)
(-0.0321792 -0.00867457 0)
(-0.0305013 -0.00878843 0)
(-0.0288032 -0.00886374 0)
(-0.0270923 -0.00889937 0)
(-0.0253757 -0.00889435 0)
(-0.023661 -0.00884786 0)
(-0.0219558 -0.00875926 0)
(-0.0202676 -0.00862812 0)
(-0.0186042 -0.00845423 0)
(-0.0169732 -0.00823766 0)
(-0.0153823 -0.00797872 0)
(-0.0138388 -0.00767809 0)
(-0.01235 -0.0073368 0)
(-0.010923 -0.00695629 0)
(-0.0095645 -0.00653849 0)
(-0.00828075 -0.0060859 0)
(-0.00707758 -0.00560164 0)
(-0.00596026 -0.00508958 0)
(-0.00493336 -0.00455447 0)
(-0.00400072 -0.00400205 0)
(-0.00316531 -0.0034393 0)
(-0.00242919 -0.00287458 0)
(-0.00179334 -0.0023179 0)
(-0.00125769 -0.00178122 0)
(-0.000821035 -0.0012788 0)
(-0.000480822 -0.00082754 0)
(-0.000232956 -0.000447386 0)
(-7.49984e-05 -0.000161791 0)
(-9.24338e-06 -2.73953e-07 0)
(-1.3482e-05 6.54156e-05 0)
(-0.000101665 0.000352598 0)
(-0.000306676 0.000761575 0)
(-0.000620158 0.00126445 0)
(-0.00104085 0.00183658 0)
(-0.00157053 0.00245658 0)
(-0.00220964 0.00310633 0)
(-0.00295745 0.00377058 0)
(-0.00381234 0.00443657 0)
(-0.00477183 0.00509367 0)
(-0.00583261 0.00573309 0)
(-0.00699055 0.00634758 0)
(-0.00824083 0.00693122 0)
(-0.00957801 0.00747925 0)
(-0.0109961 0.00798785 0)
(-0.0124886 0.00845406 0)
(-0.0140487 0.00887561 0)
(-0.0156694 0.00925082 0)
(-0.0173431 0.00957855 0)
(-0.0190623 0.00985809 0)
(-0.0208193 0.0100891 0)
(-0.0226065 0.0102716 0)
(-0.024416 0.0104058 0)
(-0.0262402 0.0104922 0)
(-0.0280712 0.0105316 0)
(-0.0299016 0.0105248 0)
(-0.0317239 0.0104729 0)
(-0.0335307 0.010377 0)
(-0.035315 0.0102384 0)
(-0.0370698 0.0100585 0)
(-0.0387885 0.0098387 0)
(-0.0404644 0.00958056 0)
(-0.0420913 0.00928566 0)
(-0.0436634 0.00895563 0)
(-0.0451747 0.00859216 0)
(-0.04662 0.00819697 0)
(-0.0479939 0.00777183 0)
(-0.0492917 0.00731853 0)
(-0.0505088 0.0068389 0)
(-0.0516408 0.00633479 0)
(-0.052684 0.00580809 0)
(-0.0536345 0.00526071 0)
(-0.0544892 0.00469457 0)
(-0.055245 0.00411164 0)
(-0.0558992 0.00351389 0)
(-0.0564496 0.00290335 0)
(-0.0568942 0.00228204 0)
(-0.0572314 0.00165202 0)
(-0.0574598 0.00101537 0)
(-0.0575786 0.0003742 0)
(-0.0575872 -0.000269353 0)
(-0.0574855 -0.000913133 0)
(-0.0572734 -0.00155496 0)
(-0.0569517 -0.00219263 0)
(-0.0565212 -0.00282393 0)
(-0.0559831 -0.00344661 0)
(-0.0553392 -0.00405843 0)
(-0.0545914 -0.0046571 0)
(-0.0537422 -0.00524036 0)
(-0.0527944 -0.00580593 0)
(-0.0517511 -0.00635153 0)
(-0.0506159 -0.00687489 0)
(-0.0493927 -0.00737375 0)
(-0.0480857 -0.00784588 0)
(-0.0466997 -0.00828906 0)
(-0.0452396 -0.00870113 0)
(-0.0437107 -0.00907996 0)
(-0.0421189 -0.00942348 0)
(-0.0404701 -0.00972969 0)
(-0.0387707 -0.00999667 0)
(-0.0370272 -0.0102226 0)
(-0.0352466 -0.0104057 0)
(-0.0334361 -0.0105445 0)