/*--------------------------------*- C++ -*----------------------------------*\
  =========                 |
  \\      /  F ield         | OpenFOAM: The Open Source CFD Toolbox
   \\    /   O peration     | Website:  https://openfoam.org
    \\  /    A nd           | Version:  11
     \\/     M anipulation  |
\*---------------------------------------------------------------------------*/
FoamFile
{
    format      ascii;
    class       volScalarField;
    location    "7.1";
    object      p;
}
// * * * * * * * * * * * * * * * * * * * * * * * * * * * * * * * * * * * * * //

dimensions      [0 2 -2 0 0 0 0];

internalField   nonuniform List<scalar> 
10100
(
2.98988e-07
8.95086e-05
-0.000123391
-0.000672939
-0.00151464
-0.00259878
-0.00387307
-0.00528612
-0.0067916
-0.00834792
-0.0099186
-0.011472
-0.0129799
-0.0144179
-0.0157651
-0.0170033
-0.0181169
-0.0190928
-0.0199196
-0.0205879
-0.0210901
-0.0214204
-0.0215742
-0.0215482
-0.0213404
-0.0209497
-0.0203761
-0.0196203
-0.0186844
-0.0175709
-0.0162836
-0.0148268
-0.0132052
-0.011424
-0.00948879
-0.00740579
-0.0051818
-0.00282423
-0.00034093
0.00225992
0.0049698
0.00777985
0.0106809
0.0136636
0.016718
0.0198343
0.0230024
0.0262121
0.0294527
0.0327136
0.0359838
0.0392524
0.0425088
0.0457419
0.048941
0.0520948
0.0551926
0.0582235
0.0611769
0.0640425
0.06681
0.0694694
0.072011
0.0744253
0.0767031
0.078836
0.080816
0.082636
0.0842892
0.0857691
0.0870703
0.0881876
0.0891172
0.0898565
0.0904038
0.0907587
0.0909214
0.0908933
0.0906771
0.0902768
0.0896979
0.0889476
0.0880349
0.0869706
0.0857679
0.0844416
0.083009
0.0814899
0.0799067
0.0782851
0.0766542
0.075047
0.0735007
0.0720572
0.0707635
0.0696705
0.0688306
0.068294
0.0681024
0.0682058
-9.11709e-05
1.44079e-05
-0.000181308
-0.000666253
-0.00139262
-0.00232502
-0.00342393
-0.00464856
-0.00595977
-0.00732186
-0.00870261
-0.0100731
-0.0114078
-0.0126839
-0.0138812
-0.0149822
-0.015972
-0.0168375
-0.0175678
-0.0181535
-0.018587
-0.0188622
-0.0189744
-0.0189198
-0.0186963
-0.0183025
-0.0177378
-0.0170028
-0.016099
-0.0150287
-0.013795
-0.0124017
-0.0108532
-0.00915423
-0.00731001
-0.00532618
-0.00320914
-0.000965773
0.00139654
0.00387004
0.0064467
0.00911816
0.0118758
0.0147107
0.0176136
0.020575
0.0235854
0.026635
0.0297138
0.0328116
0.035918
0.0390228
0.0421157
0.0451865
0.0482247
0.0512197
0.0541614
0.0570395
0.0598442
0.0625655
0.0651939
0.0677198
0.0701342
0.0724281
0.0745931
0.0766211
0.0785051
0.0802384
0.0818146
0.0832279
0.0844733
0.0855462
0.0864434
0.0871627
0.0877029
0.0880637
0.0882459
0.088251
0.0880821
0.0877434
0.0872405
0.0865805
0.0857723
0.0848268
0.0837566
0.0825762
0.0813021
0.0799532
0.0785507
0.0771185
0.0756832
0.0742749
0.0729262
0.071673
0.0705542
0.0696099
0.0688786
0.0683952
0.068205
0.0683084
0.000125885
0.00023615
4.71512e-05
-0.000403991
-0.0010646
-0.0019045
-0.00289108
-0.00398988
-0.00516755
-0.00639273
-0.00763668
-0.00887325
-0.0100792
-0.0112334
-0.0123169
-0.013313
-0.0142072
-0.0149871
-0.015642
-0.0161629
-0.0165422
-0.0167739
-0.016853
-0.0167758
-0.0165399
-0.0161435
-0.0155861
-0.0148678
-0.01399
-0.0129546
-0.0117645
-0.010423
-0.00893401
-0.00730206
-0.00553194
-0.00362902
-0.0015993
0.000550716
0.00281411
0.00518349
0.00765122
0.0102094
0.0128497
0.0155637
0.0183426
0.0211772
0.0240586
0.0269774
0.0299238
0.0328882
0.0358608
0.0388317
0.0417913
0.0447296
0.0476365
0.0505021
0.0533167
0.0560705
0.0587541
0.0613582
0.0638736
0.0662913
0.0686025
0.0707989
0.0728724
0.0748158
0.0766222
0.0782855
0.0797997
0.0811595
0.0823599
0.0833971
0.0842682
0.0849714
0.0855057
0.0858711
0.0860684
0.0860997
0.0859679
0.0856775
0.0852338
0.0846441
0.0839171
0.0830631
0.0820946
0.0810253
0.0798712
0.0786499
0.0773813
0.0760877
0.0747935
0.0735255
0.0723129
0.0711868
0.0701804
0.0693272
0.0686583
0.0682034
0.0680137
0.0681165
0.000703593
0.000758469
0.000540903
8.93312e-05
-0.000546924
-0.00134004
-0.00226149
-0.00328117
-0.00437008
-0.00550077
-0.00664736
-0.00778642
-0.0088965
-0.00995829
-0.0109543
-0.0118689
-0.0126883
-0.0134007
-0.0139958
-0.0144647
-0.0148004
-0.0149969
-0.0150493
-0.014954
-0.0147081
-0.01431
-0.0137591
-0.0130551
-0.0121993
-0.0111936
-0.0100404
-0.00874288
-0.00730453
-0.00572946
-0.00402226
-0.00218805
-0.000232535
0.00183805
0.00401715
0.00629784
0.00867282
0.0111345
0.013675
0.0162859
0.018959
0.0216857
0.0244572
0.0272646
0.0300985
0.0329494
0.0358081
0.0386653
0.0415116
0.0443373
0.0471329
0.0498888
0.0525957
0.0552443
0.0578255
0.0603305
0.0627505
0.0650769
0.0673012
0.0694155
0.0714121
0.0732842
0.0750255
0.0766302
0.0780925
0.0794073
0.0805701
0.0815774
0.0824265
0.0831159
0.0836449
0.0840136
0.0842229
0.084275
0.0841729
0.0839209
0.0835244
0.0829904
0.0823273
0.0815452
0.0806559
0.0796725
0.0786098
0.0774848
0.0763159
0.0751235
0.0739298
0.0727591
0.0716373
0.0705919
0.0696516
0.0688459
0.0682018
0.0677467
0.0675293
0.0675811
0.00159184
0.00153247
0.00124835
0.000767528
0.000127325
-0.000647529
-0.00153149
-0.0024988
-0.00352422
-0.00458373
-0.00565478
-0.0067161
-0.00774829
-0.0087337
-0.00965632
-0.0105018
-0.0112573
-0.0119115
-0.0124547
-0.0128787
-0.0131763
-0.0133421
-0.0133712
-0.01326
-0.0130058
-0.0126069
-0.0120623
-0.0113721
-0.010537
-0.009559
-0.00844027
-0.00718362
-0.00579232
-0.00427018
-0.00262153
-0.00085127
0.00103518
0.00303189
0.00513257
0.00733069
0.00961934
0.0119912
0.0144387
0.0169538
0.0195285
0.0221547
0.024824
0.0275277
0.0302568
0.0330023
0.0357554
0.038507
0.0412481
0.0439695
0.0466618
0.049316
0.0519231
0.0544743
0.0569609
0.0593743
0.0617062
0.0639482
0.0660923
0.0681308
0.0700566
0.0718632
0.0735447
0.0750954
0.07651
0.0777833
0.0789115
0.0798912
0.0807199
0.0813963
0.0819199
0.0822908
0.0825102
0.0825802
0.0825038
0.0822852
0.0819295
0.0814435
0.0808353
0.0801147
0.0792927
0.0783816
0.0773954
0.0763497
0.0752616
0.0741498
0.0730343
0.0719368
0.0708803
0.0698889
0.0689878
0.0682023
0.0675566
0.0670752
0.0667962
0.0667431
0.00273475
0.00251959
0.00213825
0.00160297
0.00093378
0.00015259
-0.0007185
-0.00165721
-0.0026419
-0.00365177
-0.00466704
-0.00566893
-0.00664003
-0.0075644
-0.00842733
-0.0092157
-0.00991779
-0.0105232
-0.0110226
-0.0114083
-0.0116736
-0.0118132
-0.0118226
-0.0116981
-0.0114372
-0.0110382
-0.0105003
-0.00982312
-0.00900765
-0.00805549
-0.00696869
-0.00574978
-0.00440186
-0.00292857
-0.001334
0.000377206
0.00219986
0.00412837
0.00615673
0.00827869
0.0104877
0.0127767
0.0151382
0.0175648
0.0200489
0.0225825
0.0251576
0.0277657
0.0303982
0.0330466
0.0357025
0.038357
0.0410013
0.0436267
0.0462242
0.048785
0.0513006
0.0537624
0.0561622
0.0584918
0.0607431
0.0629079
0.0649785
0.0669478
0.068809
0.0705559
0.0721828
0.0736843
0.0750551
0.0762907
0.0773871
0.0783414
0.0791513
0.0798154
0.0803334
0.0807056
0.0809332
0.0810181
0.0809633
0.0807727
0.0804515
0.0800059
0.0794439
0.0787745
0.0780082
0.0771563
0.076232
0.0752495
0.0742245
0.073174
0.072116
0.0710698
0.0700556
0.0690947
0.0682086
0.0674192
0.066748
0.0662166
0.0658472
0.0656502
0.00407907
0.00368209
0.0031807
0.00256981
0.00185031
0.0010408
0.000161004
-0.000770587
-0.00173545
-0.00271563
-0.00369385
-0.00465373
-0.00557986
-0.00645787
-0.00727451
-0.00801779
-0.00867708
-0.00924277
-0.00970636
-0.0100606
-0.0102993
-0.0104175
-0.0104107
-0.0102757
-0.01001
-0.00961192
-0.00908058
-0.00841593
-0.00761879
-0.00669055
-0.00563307
-0.00444873
-0.00314046
-0.00171174
-0.0001665
0.00149083
0.00325528
0.00512154
0.007084
0.00913662
0.011273
0.0134864
0.0157696
0.0181156
0.0205171
0.0229664
0.0254557
0.0279768
0.0305215
0.0330817
0.0356492
0.0382154
0.040772
0.0433102
0.0458217
0.0482978
0.0507305
0.0531115
0.0554329
0.0576866
0.059865
0.06196
0.0639645
0.0658713
0.0676743
0.0693674
0.0709452
0.0724024
0.0737338
0.0749352
0.0760029
0.0769341
0.0777266
0.0783792
0.0788915
0.079264
0.0794978
0.0795946
0.0795572
0.0793896
0.0790963
0.0786837
0.078159
0.0775308
0.0768087
0.0760033
0.0751266
0.0741918
0.0732131
0.0722057
0.0711859
0.0701706
0.0691777
0.0682256
0.0673329
0.0665183
0.0658007
0.0651989
0.0647172
0.0643506
0.00557602
0.00498155
0.00434417
0.00364128
0.00285395
0.00199812
0.00109124
0.000148604
-0.000814403
-0.00178227
-0.00274002
-0.0036734
-0.00456897
-0.00541395
-0.00619644
-0.00690567
-0.00753196
-0.00806658
-0.00850183
-0.00883104
-0.00904854
-0.00914959
-0.00913021
-0.00898724
-0.00871839
-0.00832214
-0.0077977
-0.00714506
-0.006365
-0.0054588
-0.0044282
-0.00327544
-0.00200331
-0.000615135
0.000885268
0.00249363
0.00420525
0.00601506
0.00791771
0.0099074
0.0119779
0.0141227
0.016335
0.0186079
0.0209346
0.0233075
0.025719
0.0281614
0.0306267
0.0331072
0.0355948
0.0380813
0.0405585
0.0430182
0.045452
0.0478519
0.0502099
0.0525182
0.0547689
0.0569546
0.0590674
0.0610999
0.0630449
0.0648959
0.0666468
0.0682917
0.0698255
0.0712429
0.0725391
0.0737098
0.0747516
0.0756618
0.0764384
0.0770801
0.0775868
0.0779586
0.0781966
0.0783025
0.0782788
0.0781291
0.0778579
0.0774711
0.0769756
0.0763793
0.075691
0.0749205
0.0740786
0.0731773
0.0722297
0.0712494
0.0702506
0.0692484
0.0682586
0.0672969
0.0663794
0.0655216
0.0647403
0.0640519
0.0634421
0.0628902
0.00718207
0.00638233
0.00559831
0.00479122
0.00392239
0.00300559
0.00205637
0.00108722
0.000110915
-0.000859518
-0.00181125
-0.0027319
-0.00360969
-0.0044335
-0.00519277
-0.00587787
-0.0064801
-0.0069916
-0.00740546
-0.00771563
-0.00791691
-0.00800496
-0.00797619
-0.00782767
-0.0075573
-0.00716377
-0.00664648
-0.00600544
-0.00524131
-0.00435538
-0.00334932
-0.00222527
-0.000985938
0.000365474
0.00182529
0.00338941
0.00505332
0.00681221
0.00866091
0.0105938
0.0126048
0.0146877
0.016836
0.0190432
0.0213025
0.0236065
0.0259481
0.0283196
0.0307136
0.0331224
0.0355382
0.0379532
0.0403592
0.0427484
0.0451128
0.0474444
0.0497357
0.051979
0.0541667
0.0562916
0.058346
0.0603227
0.0622148
0.0640161
0.0657207
0.0673229
0.0688175
0.0701995
0.0714642
0.0726076
0.0736262
0.0745176
0.0752797
0.0759113
0.0764122
0.0767825
0.0770231
0.0771354
0.0771217
0.0769855
0.076731
0.0763636
0.0758899
0.0753171
0.0746531
0.0739067
0.0730879
0.0722077
0.0712778
0.0703102
0.0693176
0.0683132
0.0673107
0.066324
0.0653663
0.0644505
0.0635919
0.0628046
0.0620558
0.0613097
0.00886008
0.00785209
0.00691499
0.00599475
0.00503412
0.00404466
0.00304066
0.00203212
0.00102949
4.36454e-05
-0.000914551
-0.00183443
-0.00270581
-0.00351904
-0.00426491
-0.0049348
-0.00552105
-0.00601674
-0.0064156
-0.00671219
-0.00690189
-0.0069808
-0.00694567
-0.00679382
-0.00652343
-0.0061335
-0.00562354
-0.00499359
-0.0042443
-0.00337694
-0.00239319
-0.00129512
-8.53304e-05
0.00123302
0.00265634
0.00418072
0.00580189
0.00751522
0.00931559
0.0111975
0.0131552
0.0151828
0.0172739
0.0194223
0.0216213
0.0238638
0.0261429
0.0284512
0.0307816
0.0331266
0.0354785
0.0378297
0.0401725
0.0424992
0.0448019
0.047073
0.0493051
0.0514909
0.053623
0.0556942
0.057697
0.0596245
0.06147
0.0632277
0.0648916
0.0664562
0.0679164
0.0692673
0.0705043
0.0716236
0.0726218
0.0734963
0.0742453
0.0748676
0.0753627
0.0757308
0.0759724
0.0760887
0.0760819
0.075955
0.0757123
0.0753587
0.0749
0.0743428
0.0736943
0.0729625
0.0721565
0.0712862
0.070362
0.0693946
0.0683951
0.0673751
0.0663467
0.0653217
0.0643112
0.0633257
0.0623789
0.0614834
0.0605888
0.0596447
0.0105781
0.00936209
0.00826852
0.00722906
0.00616857
0.00509745
0.00402869
0.00297018
0.00193028
0.000918002
-5.74239e-05
-0.000987006
-0.00186203
-0.00267409
-0.00341519
-0.0040779
-0.00465548
-0.00514188
-0.00553152
-0.00581954
-0.0060019
-0.00607516
-0.00603639
-0.00588326
-0.00561429
-0.00522873
-0.00472618
-0.00410672
-0.00337115
-0.00252077
-0.00155715
-0.000482345
0.000701034
0.00198985
0.00338068
0.00486979
0.00645303
0.00812586
0.00988332
0.01172
0.0136305
0.015609
0.0176495
0.0197458
0.0218914
0.0240795
0.0263033
0.0285559
0.0308302
0.0331188
0.0354144
0.0377096
0.0399968
0.0422685
0.0445171
0.0467352
0.0489156
0.0510512
0.0531348
0.0551591
0.057117
0.0590017
0.0608069
0.0625267
0.0641554
0.0656875
0.0671179
0.0684419
0.069655
0.0707533
0.0717338
0.0725936
0.073331
0.0739447
0.0744343
0.0747996
0.0750408
0.075159
0.0751561
0.0750351
0.0747998
0.0744546
0.0740047
0.0734562
0.0728153
0.0720896
0.0712871
0.0704168
0.0694877
0.0685094
0.0674917
0.0664448
0.0653792
0.0643049
0.0632312
0.0621662
0.061123
0.0601129
0.0590684
0.0579258
0.0123083
0.0108869
0.00963571
0.00847287
0.00730679
0.00614694
0.00500545
0.0038883
0.00280207
0.00175418
0.000752284
-0.000196031
-0.00108339
-0.00190256
-0.00264664
-0.00330931
-0.00388477
-0.00436768
-0.00475325
-0.00503724
-0.0052161
-0.00528679
-0.00524679
-0.00509427
-0.00482802
-0.00444739
-0.00395217
-0.00334266
-0.00261971
-0.00178457
-0.000838913
0.000215186
0.00137516
0.00263798
0.00400027
0.00545841
0.00700837
0.00864567
0.0103654
0.0121625
0.0140316
0.0159671
0.0179634
0.0200141
0.0221129
0.0242535
0.0264292
0.0286333
0.0308586
0.0330981
0.0353448
0.0375913
0.0398303
0.0420545
0.0442563
0.0464287
0.0485646
0.0506571
0.052699
0.0546831
0.0566027
0.0584509
0.0602218
0.0619095
0.0635083
0.0650128
0.066418
0.0677193
0.0689123
0.069993
0.0709583
0.0718056
0.072533
0.0731391
0.0736234
0.0739854
0.0742252
0.0743435
0.0743422
0.0742238
0.0739919
0.0736504
0.0732038
0.0726575
0.0720174
0.0712901
0.070483
0.0696039
0.0686607
0.0676619
0.0666161
0.0655325
0.0644201
0.0632875
0.0621419
0.0609899
0.059844
0.0587148
0.0575186
0.0561789
0.0140272
0.0124039
0.0109954
0.00970695
0.00843123
0.00717721
0.00595662
0.00477382
0.00363381
0.00254261
0.00150647
0.000531708
-0.000375447
-0.00120892
-0.00196284
-0.0026318
-0.00321088
-0.00369552
-0.00408163
-0.00436557
-0.00454426
-0.00461516
-0.00457619
-0.00442586
-0.0041633
-0.00378807
-0.00330008
-0.00269981
-0.00198826
-0.00116674
-0.000236895
0.000799149
0.00193875
0.00317895
0.00451654
0.00594797
0.0074692
0.00907577
0.010763
0.0125258
0.0143593
0.0162579
0.0182158
0.0202273
0.022286
0.0243858
0.0265202
0.0286825
0.0308659
0.0330635
0.0352684
0.0374734
0.0396715
0.0418552
0.0440174
0.0461511
0.0482496
0.0503059
0.0523127
0.0542633
0.0561508
0.0579688
0.0597114
0.0613726
0.0629467
0.0644285
0.0658132
0.067096
0.0682726
0.069339
0.0702919
0.0711289
0.0718479
0.0724475
0.072927
0.0732856
0.073523
0.07364
0.0736381
0.0735197
0.0732877
0.0729455
0.0724972
0.0719476
0.0713021
0.0705667
0.0697477
0.068852
0.0678866
0.0668589
0.0657768
0.0646482
0.063481
0.0622823
0.0610579
0.0598131
0.0585599
0.0573087
0.0559604
0.0544263
0.0157145
0.0138934
0.0123288
0.0109137
0.00952564
0.00817347
0.00686876
0.00561461
0.00441464
0.00327362
0.00219669
0.00118899
0.000255638
-0.000598294
-0.00136793
-0.00204871
-0.00263648
-0.00312743
-0.00351809
-0.0038055
-0.00398699
-0.00406047
-0.00402443
-0.00387775
-0.00361965
-0.00324994
-0.00276892
-0.00217723
-0.00147584
-0.000666138
0.000250089
0.0012706
0.00239281
0.00361387
0.0049306
0.00633943
0.0078363
0.00941686
0.0110766
0.0128106
0.014614
0.0164813
0.0184071
0.0203854
0.0224104
0.0244759
0.0265757
0.028703
0.0308512
0.0330138
0.0351839
0.0373545
0.0395185
0.0416687
0.0437984
0.0459005
0.0479683
0.049995
0.0519733
0.0538967
0.0557586
0.0575525
0.0592725
0.0609127
0.0624674
0.0639315
0.0653002
0.0665687
0.0677327
0.068788
0.0697314
0.0705604
0.0712729
0.0718674
0.0723426
0.0726977
0.0729323
0.0730469
0.0730428
0.0729219
0.0726866
0.07234
0.0718857
0.071328
0.0706719
0.0699224
0.0690851
0.068166
0.0671713
0.0661077
0.0649821
0.0638016
0.0625728
0.0613017
0.0599929
0.0586505
0.0572868
0.0559118
0.054412
0.0526866
0.0173527
0.0153381
0.013619
0.012077
0.0105749
0.00912183
0.00772916
0.0063991
0.00513413
0.00393791
0.00281463
0.00176846
0.000803464
-7.62803e-05
-0.000866704
-0.00156397
-0.00216476
-0.00266605
-0.00306485
-0.00335861
-0.00354539
-0.0036237
-0.00359225
-0.00345012
-0.00319697
-0.00283297
-0.00235858
-0.00177451
-0.00108186
-0.000282208
0.000622521
0.0016301
0.00273801
0.00394338
0.00524299
0.00663323
0.0081101
0.00966936
0.0113066
0.0130171
0.0147958
0.0166376
0.0185369
0.0204882
0.0224858
0.0245235
0.026595
0.0286939
0.0308137
0.0329481
0.0350902
0.0372331
0.0393698
0.0414935
0.0435974
0.0456747
0.0477186
0.0497221
0.0516784
0.053581
0.0554235
0.0571994
0.0589025
0.0605271
0.0620676
0.0635189
0.0648762
0.0661347
0.0672897
0.0683373
0.0692742
0.0700977
0.0708058
0.0713965
0.0718683
0.0722202
0.0724517
0.0725631
0.0725554
0.0724299
0.0721888
0.0718345
0.0713706
0.0708007
0.0701293
0.0693606
0.0684995
0.0675511
0.0665211
0.0654156
0.0642405
0.063002
0.0617059
0.0603571
0.0589594
0.057516
0.0560394
0.0545397
0.0528891
0.0509761
0.0189263
0.0167226
0.0148511
0.0131822
0.0115651
0.0100091
0.00852574
0.0071162
0.00578214
0.0045264
0.00335221
0.00226279
0.00126138
0.000351347
-0.000464071
-0.00118199
-0.00179965
-0.00231451
-0.00272433
-0.00302714
-0.00322149
-0.00330627
-0.00328056
-0.00314381
-0.00289603
-0.00253764
-0.00206926
-0.00149174
-0.000806395
-1.49746e-05
0.000880515
0.00187785
0.00297453
0.00416762
0.0054538
0.00682944
0.00829064
0.00983329
0.011453
0.0131451
0.0149045
0.0167262
0.018605
0.0205354
0.0225116
0.0245276
0.0265772
0.0286542
0.0307523
0.0328651
0.0349859
0.0371078
0.0392241
0.0413281
0.043413
0.045472
0.0474983
0.0494852
0.0514259
0.0533141
0.0551433
0.0569069
0.0585988
0.0602132
0.0617448
0.0631883
0.0645387
0.0657913
0.0669412
0.0679845
0.068918
0.0697389
0.0704446
0.0710331
0.0715025
0.0718519
0.0720804
0.0721882
0.0721757
0.0720441
0.071795
0.0714306
0.0709539
0.0703684
0.0696776
0.0688852
0.0679953
0.0670127
0.0659425
0.0647898
0.0635602
0.0622587
0.0608904
0.0594596
0.0579693
0.0564222
0.0548309
0.0532059
0.051406
0.0493088
0.020422
0.0180332
0.0160113
0.0142161
0.0124835
0.0108231
0.00924676
0.00775505
0.0063488
0.00502996
0.00380097
0.00266447
0.00162287
0.000678634
-0.000165579
-0.000907472
-0.00154507
-0.00207642
-0.00249979
-0.00281382
-0.00301753
-0.00311012
-0.00309106
-0.00296021
-0.00271794
-0.00236485
-0.00190169
-0.00132954
-0.000649972
0.000135123
0.00102372
0.00201359
0.00310212
0.00428626
0.00556265
0.00692772
0.00837765
0.00990832
0.0115153
0.0131939
0.0149394
0.0167467
0.0186107
0.020526
0.0224869
0.0244873
0.0265214
0.028583
0.0306659
0.0327636
0.0348696
0.0369771
0.0390798
0.0411707
0.0432432
0.0452904
0.0473057
0.0492823
0.0512139
0.0530939
0.0549158
0.0566729
0.0583592
0.059969
0.0614968
0.0629374
0.0642855
0.0655363
0.0666851
0.0677278
0.0686612
0.0694821
0.0701878
0.0707758
0.0712443
0.0715919
0.0718179
0.0719219
0.071904
0.0717651
0.0715064
0.0711299
0.0706381
0.0700339
0.0693202
0.0685003
0.0675777
0.0665566
0.0654418
0.0642377
0.062949
0.0615802
0.0601358
0.0586195
0.0570337
0.0553807
0.0536735
0.051923
0.049975
0.0476969
0.0218274
0.0192573
0.0170873
0.0151665
0.0133181
0.0115523
0.00988149
0.00830544
0.00682431
0.00543956
0.0041528
0.00296591
0.00188084
0.000899384
2.33687e-05
-0.000745464
-0.00140559
-0.00195572
-0.00239474
-0.0027218
-0.00293622
-0.00303757
-0.00302581
-0.00290121
-0.00266434
-0.00231593
-0.00185701
-0.00128898
-0.000613592
0.000167234
0.00105143
0.00203663
0.00312005
0.00429857
0.00556888
0.00692746
0.00837046
0.00989368
0.0114927
0.0131629
0.0148997
0.0166981
0.018553
0.020459
0.0224105
0.0244015
0.0264264
0.0284789
0.0305529
0.032642
0.0347397
0.0368397
0.0389352
0.0410197
0.0430863
0.0451282
0.0471388
0.0491117
0.0510404
0.0529183
0.0547388
0.0564953
0.0581818
0.0597924
0.0613217
0.0627641
0.0641145
0.0653679
0.0665196
0.0675656
0.0685022
0.069326
0.0700341
0.0706237
0.0710928
0.07144
0.0716641
0.0717645
0.071741
0.071594
0.0713247
0.0709346
0.0704257
0.0698002
0.0690608
0.0682101
0.0672514
0.0661885
0.0650254
0.0637661
0.0624147
0.0609751
0.0594512
0.0578465
0.0561629
0.0544022
0.0525782
0.050702
0.0486073
0.046151
0.0231316
0.0203836
0.0180674
0.0160219
0.0140579
0.0121861
0.0104196
0.00875761
0.0071996
0.00574645
0.0043994
0.00315967
0.00202851
0.00100713
9.68746e-05
-0.000701113
-0.00138591
-0.0019568
-0.00241318
-0.00275453
-0.00298058
-0.00309142
-0.00308741
-0.00296908
-0.00273714
-0.00239263
-0.0019369
-0.00137162
-0.000698589
8.02077e-05
0.000962543
0.00194583
0.0030272
0.00420354
0.00547157
0.00682772
0.00826803
0.00978827
0.0113841
0.013051
0.0147843
0.0165792
0.0184306
0.0203331
0.022281
0.0242688
0.0262906
0.0283403
0.0304117
0.0324987
0.0345948
0.0366937
0.0387888
0.0408733
0.0429404
0.0449834
0.046996
0.0489715
0.0509036
0.0527854
0.0546105
0.0563722
0.0580645
0.0596815
0.0612174
0.0626666
0.064024
0.0652844
0.0664433
0.0674963
0.0684395
0.0692694
0.0699824
0.0705759
0.0710476
0.0713958
0.071619
0.0717164
0.0716874
0.0715323
0.0712517
0.0708468
0.0703192
0.0696706
0.0689032
0.0680192
0.0670217
0.065914
0.0646996
0.063382
0.0619647
0.0604513
0.0588453
0.0571499
0.0553665
0.0534967
0.0515549
0.0495532
0.0473127
0.0446808
0.0243247
0.0214017
0.018941
0.0167717
0.0146924
0.0127144
0.0108513
0.00910197
0.00746548
0.00594222
0.00453288
0.00323817
0.0020588
0.000995504
4.9083e-05
-0.000779892
-0.00149112
-0.00208431
-0.00255922
-0.00291575
-0.00315414
-0.00327495
-0.00327878
-0.00316635
-0.00293867
-0.00259716
-0.00214344
-0.00157927
-0.000906567
-0.000127483
0.000755526
0.00173973
0.00282225
0.00399997
0.00526953
0.00662723
0.00806906
0.0095908
0.0111882
0.0128568
0.0145919
0.0163888
0.0182421
0.0201467
0.0220971
0.0240877
0.0261125
0.0281656
0.0302408
0.0323321
0.0344331
0.0365374
0.0386385
0.0407294
0.0428036
0.0448543
0.0468752
0.0488598
0.0508014
0.0526933
0.054529
0.0563019
0.0580057
0.0596344
0.0611822
0.0626433
0.0640124
0.0652845
0.0664548
0.0675188
0.0684722
0.0693112
0.0700321
0.0706321
0.0711085
0.0714594
0.0716832
0.0717785
0.0717446
0.0715816
0.0712895
0.0708693
0.0703219
0.0696487
0.0688516
0.0679325
0.066894
0.065739
0.0644708
0.0630922
0.0616065
0.060017
0.0583266
0.0565384
0.0546536
0.0526735
0.0506133
0.0484859
0.0461005
0.0432948
0.0253976
0.0223018
0.0196981
0.0174059
0.0152116
0.0131272
0.0111669
0.0093294
0.00761321
0.00601843
0.00454525
0.00319395
0.00196477
0.000858006
-0.000126133
-0.000987595
-0.00172653
-0.00234304
-0.00283727
-0.00320962
-0.00346082
-0.00359169
-0.00360305
-0.00349591
-0.00327169
-0.00293211
-0.00247893
-0.00191402
-0.00123948
-0.000457732
0.000428579
0.00141668
0.00250368
0.00368637
0.00496123
0.00632448
0.00777207
0.00929987
0.0109037
0.0125789
0.014321
0.0161251
0.0179859
0.0198984
0.0218571
0.0238564
0.0258903
0.0279529
0.0300383
0.0321403
0.0342527
0.0363689
0.0384823
0.0405863
0.042674
0.044739
0.0467747
0.0487746
0.050732
0.0526401
0.0544925
0.0562824
0.0580035
0.0596496
0.0612146
0.0626927
0.0640785
0.065367
0.0665531
0.0676321
0.0685995
0.069451
0.070183
0.0707922
0.0712758
0.0716315
0.0718574
0.071952
0.0719143
0.0717439
0.0714405
0.0710047
0.070437
0.0697385
0.0689106
0.0679549
0.0668736
0.0656695
0.0643453
0.0629037
0.0613476
0.0596798
0.0579032
0.0560205
0.0540328
0.0519413
0.0497621
0.0475087
0.044979
0.0420009
0.0263414
0.0230751
0.0203296
0.0179151
0.0156062
0.0134152
0.0113574
0.00943097
0.00763422
0.00596682
0.00442866
0.00301959
0.00173942
0.000587952
-0.000435102
-0.00133013
-0.00209761
-0.00273806
-0.00325213
-0.0036407
-0.00390477
-0.00404539
-0.00406368
-0.00396108
-0.00373933
-0.00340033
-0.00294595
-0.00237826
-0.00169965
-0.000912776
-2.03614e-05
0.000974795
0.00206969
0.00326095
0.00454491
0.00591772
0.00737542
0.0089139
0.0105289
0.0122158
0.01397
0.0157866
0.0176605
0.0195865
0.0215593
0.0235732
0.0256223
0.0277007
0.0298025
0.0319215
0.0340516
0.0361862
0.0383185
0.040442
0.0425499
0.0446356
0.0466926
0.0487141
0.0506935
0.0526242
0.0544993
0.0563123
0.0580565
0.0597255
0.0613132
0.0628136
0.0642214
0.0655311
0.0667376
0.0678358
0.068821
0.0696888
0.0704352
0.0710566
0.0715501
0.0719131
0.0721432
0.0722388
0.0721985
0.0720215
0.0717076
0.0712564
0.0706684
0.0699441
0.0690846
0.0680913
0.0669661
0.0657114
0.0643296
0.0628233
0.061195
0.0594472
0.0575826
0.0556039
0.0535121
0.0513082
0.0490092
0.0466296
0.0439557
0.040806
0.0271483
0.023713
0.0208268
0.0182904
0.0158669
0.0135694
0.0114138
0.00939803
0.00752007
0.00577929
0.00417531
0.00270761
0.00137556
0.000178455
-0.000884336
-0.00181355
-0.00261004
-0.00327482
-0.00380901
-0.00421378
-0.00449038
-0.00464012
-0.0046646
-0.00456559
-0.00434504
-0.00400495
-0.00354741
-0.00297481
-0.0022898
-0.00149514
-0.000593606
0.000411896
0.00151815
0.0027216
0.00401849
0.00540504
0.0068773
0.00843111
0.0100621
0.0117657
0.013537
0.0153714
0.0172639
0.0192092
0.0212019
0.0232363
0.0253066
0.0274069
0.0295314
0.0316739
0.0338281
0.0359873
0.038145
0.0402945
0.0424291
0.0445421
0.0466268
0.0486765
0.0506843
0.0526437
0.0545479
0.0563899
0.0581631
0.0598609
0.0614769
0.0630052
0.0644401
0.065776
0.0670076
0.0681294
0.0691367
0.0700247
0.0707891
0.0714262
0.0719326
0.0723055
0.0725422
0.0726406
0.0725994
0.0724173
0.0720936
0.0716279
0.0710198
0.0702698
0.0693784
0.0683468
0.0671768
0.0658705
0.06443
0.0628577
0.0611556
0.0593263
0.0573724
0.0552964
0.0530992
0.0507818
0.0483623
0.0458559
0.0430376
0.0397165
0.0278102
0.024207
0.021181
0.0185232
0.0159853
0.0135813
0.0113276
0.00922209
0.00726247
0.00544782
0.00377744
0.00225045
0.000865803
-0.000377504
-0.00148045
-0.00244412
-0.00326987
-0.00395914
-0.00451333
-0.00493386
-0.0052223
-0.00538041
-0.00541013
-0.00531347
-0.0050925
-0.00474941
-0.00428665
-0.00370691
-0.00301296
-0.00220761
-0.00129376
-0.00027457
0.000846516
0.00206584
0.00337968
0.00478428
0.00627562
0.00784941
0.00950119
0.0112263
0.0130201
0.0148777
0.0167943
0.0187645
0.0207829
0.0228437
0.0249413
0.0270698
0.0292232
0.0313954
0.0335799
0.0357703
0.0379598
0.040142
0.0423099
0.0444567
0.0465756
0.0486598
0.0507025
0.0526971
0.0546365
0.0565138
0.058322
0.0600545
0.0617047
0.0632665
0.0647339
0.0661013
0.0673628
0.068513
0.0695468
0.0704592
0.0712456
0.071902
0.0724246
0.0728103
0.0730562
0.0731599
0.0731197
0.0729342
0.0726022
0.0721228
0.0714954
0.0707199
0.0697967
0.0687268
0.0675117
0.0661531
0.064653
0.0630135
0.0612365
0.0593244
0.05728
0.0551054
0.0528017
0.0503698
0.0478288
0.045195
0.0422317
0.0387388
0.0283195
0.0245492
0.0213838
0.0186049
0.0159528
0.0134422
0.0110903
0.00889482
0.00685323
0.00496435
0.00322712
0.00164036
0.000202749
-0.00108699
-0.00223021
-0.00322846
-0.00408346
-0.00479696
-0.00537062
-0.00580619
-0.00610566
-0.00627118
-0.0063049
-0.00620897
-0.00598569
-0.0056376
-0.00516746
-0.00457812
-0.00387241
-0.00305326
-0.00212385
-0.00108762
5.18602e-05
0.00129093
0.00262592
0.00405297
0.00556792
0.00716633
0.00884371
0.0105955
0.0124169
0.0143032
0.0162494
0.0182502
0.0203
0.0223932
0.0245242
0.026687
0.0288756
0.0310837
0.033305
0.0355329
0.0377609
0.0399822
0.0421899
0.0443771
0.0465368
0.0486621
0.0507463
0.0527824
0.0547635
0.0566824
0.0585318
0.0603051
0.0619954
0.0635965
0.0651021
0.0665063
0.0678031
0.0689866
0.0700516
0.0709929
0.0718055
0.0724851
0.0730276
0.0734294
0.0736874
0.0737991
0.0737624
0.0735755
0.0732369
0.0727452
0.0720995
0.0712993
0.0703449
0.0692369
0.0679765
0.0665654
0.0650051
0.0632976
0.0614447
0.059449
0.0573128
0.0550386
0.0526272
0.0500797
0.0474161
0.0446538
0.0415448
0.0378792
0.0286692
0.0247319
0.0214273
0.0185274
0.015761
0.0131438
0.0106936
0.00840792
0.0062841
0.00432066
0.00251629
0.000869567
-0.000621066
-0.00195725
-0.00314072
-0.00417339
-0.00505728
-0.00579437
-0.00638671
-0.00683646
-0.00714597
-0.00731762
-0.0073537
-0.00725663
-0.00702906
-0.00667386
-0.00619394
-0.00559223
-0.0048717
-0.00403559
-0.00308737
-0.00203066
-0.000869023
0.000393891
0.00175431
0.00320822
0.00475129
0.00637903
0.00808695
0.00987049
0.0117249
0.0136453
0.0156267
0.0176637
0.0197508
0.0218825
0.0240529
0.0262562
0.0284861
0.0307365
0.0330009
0.0352729
0.0375459
0.039813
0.0420671
0.0443012
0.0465083
0.0486814
0.0508137
0.052898
0.0549273
0.056894
0.0587911
0.0606113
0.062348
0.0639944
0.0655442
0.0669908
0.0683282
0.0695503
0.0706516
0.0716266
0.07247
0.0731771
0.0737433
0.0741649
0.0744386
0.0745614
0.0745309
0.074345
0.0740017
0.0734993
0.0728366
0.0720129
0.0710281
0.0698826
0.0685774
0.0671136
0.0654928
0.0637168
0.0617874
0.0597071
0.0574782
0.0551033
0.0525831
0.0499187
0.0471313
0.0442393
0.0409834
0.0371437
0.0288517
0.0247473
0.0213034
0.0182823
0.0154016
0.0126776
0.0101289
0.00775293
0.00554661
0.00350842
0.00163685
-6.98066e-05
-0.00161337
-0.00299585
-0.00421929
-0.0052859
-0.00619794
-0.00695779
-0.00756788
-0.00803074
-0.00834897
-0.00852507
-0.00856165
-0.00846146
-0.0082275
-0.0078628
-0.00737036
-0.00675328
-0.00601483
-0.00515859
-0.00418822
-0.00310735
-0.00191956
-0.000628589
0.000761576
0.00224675
0.00382251
0.0054844
0.00722793
0.00904849
0.0109412
0.0129012
0.0149233
0.0170022
0.0191326
0.0213088
0.0235249
0.0257747
0.0280523
0.0303513
0.0326654
0.0349881
0.0373126
0.039632
0.0419392
0.0442269
0.0464881
0.0487157
0.0509028
0.0530421
0.0551261
0.0571473
0.0590984
0.0609722
0.0627616
0.0644596
0.0660594
0.0675544
0.0689382
0.0702045
0.0713475
0.0723613
0.0732403
0.0739794
0.0745738
0.0750193
0.0753124
0.0754499
0.0754288
0.0752466
0.0749009
0.0743899
0.0737119
0.0728661
0.0718521
0.0706699
0.0693203
0.0678042
0.0661229
0.0642781
0.0622717
0.0601061
0.0577838
0.055307
0.0526768
0.0498943
0.0469817
0.0439587
0.040554
0.0365384
0.0288597
0.0245876
0.0210039
0.0178615
0.0148662
0.0120351
0.00938771
0.00692115
0.00463222
0.00251927
0.00058057
-0.00118584
-0.0027821
-0.00421048
-0.00547331
-0.00657305
-0.00751236
-0.00829398
-0.00892069
-0.00939527
-0.00972049
-0.00989915
-0.00993422
-0.00982881
-0.00958608
-0.00920916
-0.00870124
-0.00806572
-0.00730625
-0.00642659
-0.00543045
-0.0043215
-0.00310343
-0.00178018
-0.00035597
0.00116493
0.00277814
0.00447916
0.00626345
0.00812625
0.0100626
0.0120676
0.0141361
0.0162629
0.0184426
0.0206693
0.0229371
0.0252398
0.0275713
0.0299255
0.0322958
0.0346758
0.0370585
0.0394369
0.0418037
0.0441518
0.0464741
0.0487632
0.0510119
0.0532129
0.0553583
0.0574408
0.0594527
0.0613867
0.0632353
0.0649913
0.0666476
0.0681972
0.0696334
0.0709497
0.07214
0.0731981
0.074118
0.074894
0.0755213
0.0759953
0.0763121
0.076468
0.0764598
0.0762843
0.075939
0.0754217
0.0747306
0.0738645
0.0728228
0.0716051
0.0702118
0.0686438
0.0669022
0.0649886
0.0629051
0.0606537
0.058237
0.0556574
0.0529159
0.0500139
0.0469747
0.0438189
0.0402636
0.0360695
0.0286855