/*--------------------------------*- C++ -*----------------------------------*\
  =========                 |
  \\      /  F ield         | OpenFOAM: The Open Source CFD Toolbox
   \\    /   O peration     | Website:  https://openfoam.org
    \\  /    A nd           | Version:  11
     \\/     M anipulation  |
\*---------------------------------------------------------------------------*/
FoamFile
{
    format      ascii;
    class       surfaceScalarField;
    location    "7.1";
    object      phi;
}
// * * * * * * * * * * * * * * * * * * * * * * * * * * * * * * * * * * * * * //

dimensions      [0 3 -1 0 0 0 0];

internalField   nonuniform List<scalar> 
19980
(
6.91505e-07
-6.92685e-07
2.32568e-06
-1.63413e-06
4.07188e-06
-1.7461e-06
5.40893e-06
-1.33713e-06
6.03512e-06
-6.26304e-07
5.77835e-06
2.5688e-07
4.54844e-06
1.22989e-06
2.3112e-06
2.23741e-06
-9.33234e-07
3.24438e-06
-5.16069e-06
4.22738e-06
-1.03319e-05
5.17136e-06
-1.63976e-05
6.06567e-06
-2.33007e-05
6.90324e-06
-3.09799e-05
7.67926e-06
-3.93709e-05
8.39102e-06
-4.84075e-05
9.03668e-06
-5.80231e-05
9.6155e-06
-6.81504e-05
1.01273e-05
-7.87226e-05
1.05724e-05
-8.96738e-05
1.09513e-05
-0.000100939
1.12653e-05
-0.000112455
1.15158e-05
-0.000124159
1.17043e-05
-0.000135991
1.18322e-05
-0.000147893
1.19013e-05
-0.000159806
1.19136e-05
-0.000171677
1.18708e-05
-0.000183452
1.17746e-05
-0.000195079
1.16273e-05
-0.00020651
1.1431e-05
-0.000217698
1.11878e-05
-0.000228598
1.08997e-05
-0.000239167
1.05691e-05
-0.000249365
1.0198e-05
-0.000259153
9.78837e-06
-0.000268495
9.34207e-06
-0.000277356
8.8612e-06
-0.000285704
8.34795e-06
-0.000293509
7.80446e-06
-0.000300742
7.23285e-06
-0.000307377
6.63527e-06
-0.000313391
6.01392e-06
-0.000318762
5.37102e-06
-0.000323471
4.7088e-06
-0.0003275
4.0295e-06
-0.000330836
3.33534e-06
-0.000333464
2.62846e-06
-0.000335375
1.91112e-06
-0.000336561
1.18563e-06
-0.000337015
4.54388e-07
-0.000336735
-2.79991e-07
-0.00033572
-1.01505e-06
-0.000333972
-1.74853e-06
-0.000331494
-2.47797e-06
-0.000328293
-3.20078e-06
-0.000324379
-3.9144e-06
-0.000319763
-4.61615e-06
-0.000314459
-5.30331e-06
-0.000308486
-5.97331e-06
-0.000301862
-6.62363e-06
-0.000294611
-7.25159e-06
-0.000286756
-7.85432e-06
-0.000278327
-8.4291e-06
-0.000269354
-8.97325e-06
-0.00025987
-9.48391e-06
-0.000249912
-9.95828e-06
-0.000239518
-1.03939e-05
-0.00022873
-1.07884e-05
-0.000217591
-1.1139e-05
-0.000206148
-1.14431e-05
-0.000194449
-1.16981e-05
-0.000182548
-1.19013e-05
-0.000170498
-1.20501e-05
-0.000158356
-1.21424e-05
-0.000146179
-1.21764e-05
-0.000134029
-1.21505e-05
-0.000121966
-1.20629e-05
-0.000110054
-1.19118e-05
-9.8358e-05
-1.16959e-05
-8.69443e-05
-1.14137e-05
-7.58802e-05
-1.10642e-05
-6.52336e-05
-1.06465e-05
-5.5073e-05
-1.01605e-05
-4.54665e-05
-9.60657e-06
-3.64812e-05
-8.98526e-06
-2.81835e-05
-8.29776e-06
-2.06375e-05
-7.54599e-06
-1.39048e-05
-6.7327e-06
-8.0431e-06
-5.86174e-06
-3.10458e-06
-4.93851e-06
8.66256e-07
-3.97083e-06
3.83615e-06
-2.96995e-06
5.78825e-06
-1.95219e-06
6.72993e-06
-9.41694e-07
6.70537e-06
2.46238e-08
5.81582e-06
8.89589e-07
4.2514e-06
1.56439e-06
2.34475e-06
1.90662e-06
6.62334e-07
1.68247e-06
6.62363e-07
1.72319e-06
-2.41582e-06
4.64804e-06
-4.5592e-06
7.35897e-06
-4.45697e-06
8.90911e-06
-2.88713e-06
8.64492e-06
-3.6207e-07
6.14129e-06
2.76053e-06
1.14874e-06
6.22248e-06
-6.45671e-06
9.8428e-06
-1.67068e-05
1.34946e-05
-2.95682e-05
1.70887e-05
-4.496e-05
2.05632e-05
-6.27683e-05
2.3874e-05
-8.28552e-05
2.69901e-05
-0.000105066
2.98901e-05
-0.000129234
3.25593e-05
-0.000155186
3.49883e-05
-0.000182742
3.71716e-05
-0.000211721
3.91064e-05
-0.000241941
4.07925e-05
-0.000273221
4.22314e-05
-0.000305381
4.34258e-05
-0.000338245
4.43797e-05
-0.000371639
4.5098e-05
-0.000405393
4.55861e-05
-0.000439342
4.585e-05
-0.000473324
4.58962e-05
-0.000507184
4.57314e-05
-0.000540772
4.53627e-05
-0.000573943
4.47976e-05
-0.000606556
4.40438e-05
-0.000638477
4.31091e-05
-0.000669579
4.20015e-05
-0.000699739
4.0729e-05
-0.000728841
3.92996e-05
-0.000756773
3.77209e-05
-0.000783432
3.60009e-05
-0.000808719
3.41476e-05
-0.00083254
3.21692e-05
-0.000854809
3.00739e-05
-0.000875446
2.78699e-05
-0.000894376
2.55655e-05
-0.000911531
2.31692e-05
-0.00092685
2.06896e-05
-0.000940277
1.81354e-05
-0.000951762
1.55152e-05
-0.000961265
1.28375e-05
-0.000968747
1.01111e-05
-0.000974181
7.34465e-06
-0.000977543
4.54735e-06
-0.000978817
1.72853e-06
-0.000977994
-1.10233e-06
-0.000975074
-3.93569e-06
-0.00097006
-6.76223e-06
-0.000962965
-9.57253e-06
-0.000953809
-1.23567e-05
-0.000942619
-1.51046e-05
-0.00092943
-1.7806e-05
-0.000914282
-2.04507e-05
-0.000897227
-2.30287e-05
-0.000878321
-2.55297e-05
-0.000857629
-2.79435e-05
-0.000835224
-3.02595e-05
-0.000811186
-3.24673e-05
-0.000785603
-3.45562e-05
-0.000758571
-3.65157e-05
-0.000730194
-3.83357e-05
-0.000700581
-4.00061e-05
-0.000669853
-4.1517e-05
-0.000638133
-4.28587e-05
-0.000605555
-4.40214e-05
-0.000572258
-4.49953e-05
-0.000538388
-4.57708e-05
-0.000504099
-4.63394e-05
-0.000469548
-4.66929e-05
-0.000434901
-4.68241e-05
-0.000400325
-4.6726e-05
-0.000365995
-4.63927e-05
-0.000332089
-4.58183e-05
-0.000298787
-4.49978e-05
-0.000266274
-4.39271e-05
-0.000234734
-4.26032e-05
-0.000204356
-4.10246e-05
-0.000175326
-3.91912e-05
-0.000147827
-3.71049e-05
-0.000122043
-3.47698e-05
-9.81484e-05
-3.21923e-05
-7.63127e-05
-2.93817e-05
-5.66942e-05
-2.63512e-05
-3.94368e-05
-2.31191e-05
-2.46649e-05
-1.97104e-05
-1.24763e-05
-1.61594e-05
-2.93269e-06
-1.25137e-05
3.95411e-06
-8.83899e-06
8.24063e-06
-5.22819e-06
1.00785e-05
-1.81324e-06
9.75116e-06
1.21685e-06
7.7237e-06
3.59185e-06
4.70151e-06
4.92895e-06
1.67894e-06
4.70513e-06
2.34132e-06
1.94461e-06
-4.36033e-06
4.83362e-06
-7.44804e-06
6.9072e-06
-6.53065e-06
6.99962e-06
-2.97962e-06
4.27706e-06
2.36044e-06
-1.83023e-06
8.86769e-06
-1.16796e-05
1.60718e-05
-2.54631e-05
2.36265e-05
-4.32463e-05
3.12776e-05
-6.49983e-05
3.88408e-05
-9.06161e-05
4.61813e-05
-0.000119943
5.32009e-05
-0.000152782
5.9829e-05
-0.000188907
6.60148e-05
-0.00022807
7.17224e-05
-0.000270009
7.69277e-05
-0.000314453
8.16151e-05
-0.000361122
8.5776e-05
-0.000409736
8.94069e-05
-0.000460014
9.25088e-05
-0.000511674
9.50858e-05
-0.000564439
9.71451e-05
-0.000618036
9.86956e-05
-0.000672198
9.97478e-05
-0.000726663
0.000100314
-0.000781174
0.000100408
-0.000835486
0.000100043
-0.000889358
9.92343e-05
-0.000942558
9.79976e-05
-0.000994863
9.63492e-05
-0.00104606
9.43053e-05
-0.00109594
9.18832e-05
-0.00114431
8.90998e-05
-0.00119098
8.59723e-05
-0.00123578
8.2518e-05
-0.00127853
7.87541e-05
-0.00131909
7.46984e-05
-0.00135729
7.03687e-05
-0.00139299
6.57829e-05
-0.00142608
6.09591e-05
-0.00145643
5.59156e-05
-0.00148394
5.06709e-05
-0.00150849
4.52436e-05
-0.00153001
3.96527e-05
-0.00154841
3.39172e-05
-0.00156363
2.80561e-05
-0.00157561
2.20887e-05
-0.00158429
1.60345e-05
-0.00158966
9.91333e-06
-0.00159168
3.74574e-06
-0.00159033
-2.4477e-06
-0.00158562
-8.64624e-06
-0.00157756
-1.4829e-05
-0.00156615
-2.0975e-05
-0.00155145
-2.70626e-05
-0.00153348
-3.307e-05
-0.00151231
-3.89749e-05
-0.00148801
-4.4755e-05
-0.00146065
-5.03881e-05
-0.00143033
-5.58517e-05
-0.00139715
-6.11233e-05
-0.00136123
-6.61799e-05
-0.0013227
-7.0999e-05
-0.00128169
-7.55576e-05
-0.00123838
-7.98332e-05
-0.00119291
-8.38032e-05
-0.00114547
-8.74459e-05
-0.00109625
-9.07399e-05
-0.00104544
-9.36638e-05
-0.000993266
-9.61967e-05
-0.000939943
-9.83182e-05
-0.000885705
-0.000100009
-0.000830794
-0.00010125
-0.000775463
-0.000102024
-0.000719971
-0.000102316
-0.000664585
-0.000102112
-0.000609581
-0.000101397
-0.000555238
-0.000100161
-0.000501842
-9.83942e-05
-0.00044968
-9.60889e-05
-0.000399043
-9.32402e-05
-0.000350221
-8.98464e-05
-0.000303503
-8.59092e-05
-0.000259174
-8.14345e-05
-0.00021751
-7.64331e-05
-0.000178781
-7.09214e-05
-0.00014324
-6.49229e-05
-0.000111121
-5.84702e-05
-8.26332e-05
-5.1607e-05
-5.79517e-05
-4.4392e-05
-3.7207e-05
-3.69041e-05
-2.04718e-05
-2.92489e-05
-7.74172e-06
-2.1569e-05
1.08751e-06
-1.40574e-05
6.25124e-06
-6.97693e-06
8.15449e-06
-6.8637e-07
7.41924e-06
4.32715e-06
4.93438e-06
7.41383e-06
1.90424e-06
7.73531e-06
4.24562e-06
1.56551e-06
-5.92599e-06
3.39754e-06
-9.27993e-06
3.63393e-06
-6.76709e-06
1.01403e-06
-3.59536e-07
-5.3743e-06
8.74908e-06
-1.61704e-05
1.96636e-05
-3.17875e-05
3.16892e-05
-5.24581e-05
4.42971e-05
-7.82691e-05
5.70887e-05
-0.000109192
6.9764e-05
-0.00014511
8.20985e-05
-0.000185833
9.39244e-05
-0.000231121
0.000105117
-0.000280693
0.000115586
-0.000334234
0.000125264
-0.000391412
0.000134105
-0.000451876
0.000142079
-0.000515265
0.000149166
-0.000581214
0.000155356
-0.000649354
0.000160649
-0.000719316
0.000165048
-0.000790733
0.000168563
-0.000863244
0.000171207
-0.000936494
0.000172997
-0.00101013
0.000173953
-0.00108382
0.000174095
-0.00115722
0.000173448
-0.00123003
0.000172036
-0.00130191
0.000169885
-0.00137259
0.000167022
-0.00144176
0.000163476
-0.00150915
0.000159274
-0.0015745
0.000154447
-0.00163755
0.000149023
-0.00169806
0.000143032
-0.00175581
0.000136505
-0.00181059
0.000129472
-0.00186218
0.000121964
-0.00191041
0.000114011
-0.0019551
0.000105646
-0.00199608
9.68994e-05
-0.00203321
8.78043e-05
-0.00206636
7.83926e-05
-0.00209541
6.86971e-05
-0.00212024
5.87509e-05
-0.00214077
4.85874e-05
-0.00215692
3.82401e-05
-0.00216863
2.77432e-05
-0.00217585
1.71314e-05
-0.00217854
6.43976e-06
-0.0021767
-4.29587e-06
-0.0021703
-1.50395e-05
-0.00215938
-2.57546e-05
-0.00214395
-3.64046e-05
-0.00212406
-4.69518e-05
-0.00209977
-5.73585e-05
-0.00207116
-6.75864e-05
-0.00203832
-7.75971e-05
-0.00200135
-8.73517e-05
-0.00196039
-9.68112e-05
-0.00191558
-0.000105937
-0.00186707
-0.000114689
-0.00181504
-0.000123028
-0.00175968
-0.000130915
-0.0017012
-0.000138312
-0.00163983
-0.00014518
-0.00157579
-0.000151481
-0.00150935
-0.000157179
-0.00144078
-0.000162236
-0.00137036
-0.000166617
-0.00129839
-0.000170289
-0.00122518
-0.000173218
-0.00115106
-0.000175373
-0.00107636
-0.000176725
-0.00100143
-0.000177248
-0.00092662
-0.000176917
-0.000852306
-0.000175711
-0.000778856
-0.000173612
-0.000706645
-0.000170604
-0.000636057
-0.000166678
-0.000567471
-0.000161826
-0.00050127
-0.000156047
-0.000437831
-0.000149348
-0.000377525
-0.000141741
-0.00032071
-0.000133248
-0.000267731
-0.0001239
-0.000218911
-0.000113743
-0.000174545
-0.000102836
-0.000134893
-9.12588e-05
-0.000100168
-7.9117e-05
-7.05238e-05
-6.65484e-05
-4.60388e-05
-5.37339e-05
-2.66967e-05
-4.09111e-05
-1.23614e-05
-2.83926e-05
-2.74754e-06
-1.65908e-05
2.61532e-06
-6.04921e-06
4.42368e-06
2.51882e-06
3.64529e-06
8.1922e-06
1.57604e-06
9.80463e-06
5.82171e-06
8.50847e-07
-6.77693e-06
9.17351e-07
-9.34644e-06
-1.56258e-06
-4.28724e-06
-7.83468e-06
5.91274e-06
-1.88139e-05
1.97281e-05
-3.51504e-05
3.60001e-05
-5.72733e-05
5.38121e-05
-8.54273e-05
7.24511e-05
-0.000119704
9.13655e-05
-0.000160071
0.000110131
-0.000206395
0.000128422
-0.000258461
0.000145991
-0.000315991
0.000162648
-0.000378659
0.000178254
-0.000446098
0.000192703
-0.000517913
0.000205921
-0.000593688
0.000217855
-0.000672994
0.000228472
-0.000755391
0.000237753
-0.000840433
0.000245691
-0.000927675
0.000252289
-0.00101667
0.000257559
-0.00110698
0.000261517
-0.00119817
0.000264187
-0.00128981
0.000265595
-0.00138149
0.000265773
-0.0014728
0.000264753
-0.00156333
0.000262574
-0.00165272
0.000259272
-0.00174059
0.000254889
-0.00182658
0.000249465
-0.00191035
0.000243044
-0.00199157
0.00023567
-0.00206993
0.000227386
-0.00214514
0.000218238
-0.0022169
0.000208272
-0.00228497
0.000197534
-0.00234907
0.000186071
-0.00240899
0.000173931
-0.00246451
0.000161161
-0.00251542
0.00014781
-0.00256154
0.000133927
-0.00260271
0.000119561
-0.00263878
0.000104763
-0.00266961
8.95821e-05
-0.00269509
7.40702e-05
-0.00271513
5.82788e-05
-0.00272965
4.22602e-05
-0.00273858
2.60674e-05
-0.0027419
9.75424e-06
-0.00273957
-6.6248e-06
-0.0027316
-2.30148e-05
-0.00271799
-3.93599e-05
-0.00269879
-5.56038e-05
-0.00267405
-7.16894e-05
-0.00264385
-8.75589e-05
-0.00260828
-0.000103154
-0.00256747
-0.000118417
-0.00252153
-0.000133287
-0.00247064
-0.000147706
-0.00241496
-0.000161614
-0.00235469
-0.000174952
-0.00229006
-0.00018766
-0.0022213
-0.000199678
-0.00214866
-0.000210949
-0.00207243
-0.000221414
-0.0019929
-0.000231015
-0.00191038
-0.000239698
-0.00182521
-0.000247406
-0.00173774
-0.000254088
-0.00164833
-0.000259692
-0.00155738
-0.000264169
-0.00146528
-0.000267473
-0.00137245
-0.000269561
-0.0012793
-0.000270394
-0.00118628
-0.000269936
-0.00109383
-0.000268157
-0.00100242
-0.00026503
-0.000912484
-0.000260535
-0.000824504
-0.000254658
-0.000738937
-0.000247393
-0.000656244
-0.00023874
-0.000576881
-0.000228711
-0.000501291
-0.000217331
-0.000429904
-0.000204635
-0.000363128
-0.000190676
-0.000301345
-0.000175526
-0.000244901
-0.00015928
-0.000194096
-0.000142064
-0.000149175
-0.000124038
-0.000110313
-0.000105411
-7.75969e-05
-8.64502e-05
-5.10077e-05
-6.75002e-05
-3.03973e-05
-4.9003e-05
-1.54611e-05
-3.1527e-05
-5.70809e-06
-1.58022e-05
-4.25899e-07
-2.76338e-06
1.35831e-06
6.40797e-06
9.28967e-07
1.02341e-05
6.75067e-06
-4.24187e-08
-6.73441e-06
-2.19163e-06
-7.19718e-06
-7.99476e-06
1.5158e-06
-1.85964e-05
1.65141e-05
-3.48534e-05
3.59854e-05
-5.73827e-05
5.85292e-05
-8.65927e-05
8.3022e-05
-0.000122714
0.000108573
-0.000165827
0.000134478
-0.000215883
0.000160187
-0.00027273
0.000185268
-0.000336125
0.000209386
-0.000405758
0.000232281
-0.000481262
0.000253757
-0.000562224
0.000273664
-0.000648197
0.000291894
-0.000738709
0.000308367
-0.00083327
0.000323032
-0.000931374
0.000335857
-0.00103251
0.000346828
-0.00113617
0.000355945
-0.00124183
0.000363218
-0.00134898
0.00036867
-0.00145712
0.000372327
-0.00156575
0.000374226
-0.00167438
0.000374407
-0.00178255
0.000372915
-0.00188977
0.000369801
-0.00199562
0.000365115
-0.00209964
0.000358912
-0.00220143
0.000351251
-0.00230057
0.000342191
-0.00239669
0.00033179
-0.00248942
0.000320113
-0.0025784
0.000307221
-0.00266331
0.000293179
-0.00274383
0.000278052
-0.00281966
0.000261905
-0.00289053
0.000244805
-0.00295619
0.00022682
-0.0030164
0.000208017
-0.00307094
0.000188466
-0.00311961
0.000168236
-0.00316225
0.000147398
-0.00319869
0.000126023
-0.0032288
0.000104183
-0.00325247
8.19504e-05
-0.00326961
5.93996e-05
-0.00328015
3.66052e-05
-0.00328404
1.36429e-05
-0.00328126
-9.41048e-06
-0.00327179
-3.24774e-05
-0.00325567
-5.54795e-05
-0.00323294
-7.83372e-05
-0.00320366
-0.00010097
-0.00316792
-0.000123298
-0.00312584
-0.000145237
-0.00307755
-0.000166707
-0.00302321
-0.000187623
-0.00296301
-0.000207904
-0.00289716
-0.000227465
-0.00282589
-0.000246222
-0.00274946
-0.000264094
-0.00266814
-0.000280996
-0.00258224
-0.000296847
-0.00249209
-0.000311566
-0.00239803
-0.000325073
-0.00230044
-0.000337291
-0.0021997
-0.000348143
-0.00209623
-0.000357556
-0.00199047
-0.000365459
-0.00188285
-0.000371785
-0.00177385
-0.000376472
-0.00166395
-0.00037946
-0.00155365
-0.000380695
-0.00144346
-0.00038013
-0.00133389
-0.000377724
-0.00122548
-0.000373442
-0.00111876
-0.000367259
-0.00101426
-0.000359157
-0.00091252
-0.000349131
-0.000814072
-0.000337187
-0.000719438
-0.000323346
-0.000629126
-0.000307643
-0.000543627
-0.000290134
-0.000463405
-0.000270898
-0.000388892
-0.000250039
-0.000320477
-0.000227695
-0.000258499
-0.000204041
-0.000203233
-0.000179304
-0.000154873
-0.00015377
-0.000113524
-0.000127799
-7.91769e-05
-0.000101848
-5.16894e-05
-7.64906e-05
-3.07657e-05
-5.24507e-05
-1.59298e-05
-3.06381e-05
-6.49873e-06
-1.21945e-05
-1.55236e-06
1.46158e-06
1.02944e-07
8.57879e-06
6.85358e-06
-1.0235e-06
-5.71096e-06
-5.65759e-06
-2.56302e-06
-1.51791e-05
1.10372e-05
-3.05767e-05
3.19119e-05
-5.26047e-05
5.80133e-05
-8.18086e-05
8.77332e-05
-0.000118548
0.000119762
-0.000163017
0.000153042
-0.000215266
0.000186728
-0.000275221
0.000220142
-0.000342699
0.000252747
-0.000417431
0.000284118
-0.000499072
0.000313922
-0.000587216
0.000341901
-0.00068141
0.000367858
-0.000781159
0.000391643
-0.000885941
0.000413149
-0.000995211
0.000432302
-0.00110841
0.000449056
-0.00122497
0.000463385
-0.00134431
0.000475284
-0.00146585
0.000484763
-0.00158903
0.000491846
-0.00171327
0.000496567
-0.00183801
0.000498969
-0.00196271
0.000499103
-0.00208682
0.000497027
-0.00220982
0.000492803
-0.0023312
0.000486498
-0.00245047
0.000478184
-0.00256716
0.000467936
-0.0026808
0.00045583
-0.00279095
0.000441946
-0.00289721
0.000426366
-0.00299916
0.000409172
-0.00309643
0.000390449
-0.00318866
0.000370284
-0.00327552
0.000348763
-0.00335669
0.000325975
-0.00343188
0.00030201
-0.00350082
0.000276958
-0.00356326
0.00025091
-0.00361899
0.000223961
-0.00366779
0.000196202
-0.0037095
0.000167731
-0.00374396
0.000138641
-0.00377104
0.000109031
-0.00379064
7.89991e-05
-0.00380268
4.86447e-05
-0.0038071
1.80688e-05
-0.00380389
-1.26265e-05
-0.00379303
-4.33378e-05
-0.00377454
-7.39607e-05
-0.00374849
-0.000104389
-0.00371495
-0.000134517
-0.00367401
-0.000164236
-0.00362581
-0.000193437
-0.0035705
-0.000222011
-0.00350828
-0.000249848
-0.00343934
-0.000276838
-0.00336394
-0.000302869
-0.00328233
-0.000327832
-0.00319481
-0.000351616
-0.00310169
-0.000374112
-0.00300333
-0.000395211
-0.00290009
-0.000414807
-0.00279237
-0.000432794
-0.00268059
-0.000449071
-0.00256519
-0.000463537
-0.00244665
-0.000476096
-0.00232546
-0.000486655
-0.00220211
-0.000495128
-0.00207715
-0.000501432
-0.00195112
-0.000505491
-0.00182458
-0.000507236
-0.0016981
-0.000506606
-0.00157228
-0.000503548
-0.0014477
-0.00049802
-0.00132497
-0.00048999
-0.00120469
-0.000479441
-0.00108745
-0.000466368
-0.000973856
-0.000450783
-0.000864484
-0.000432718
-0.000759902
-0.000412224
-0.000660655
-0.000389382
-0.000567256
-0.000364296
-0.000480184
-0.000337111
-0.000399869
-0.00030801
-0.000326684
-0.000277226
-0.000260935
-0.000245053
-0.000202845
-0.00021186
-0.00015254
-0.000178104
-0.000110034
-0.000144354
-7.52109e-05
-0.000111314
-4.7806e-05
-7.98555e-05
-2.73877e-05
-5.10564e-05
-1.33374e-05
-2.62448e-05
-4.83059e-06
-7.04528e-06
-8.17294e-07
4.56543e-06
6.03629e-06
-2.04054e-06
-3.67032e-06
-9.30436e-06
4.70066e-06
-2.2784e-05
2.45171e-05
-4.32814e-05
5.24092e-05
-7.14163e-05
8.61483e-05
-0.000107637
0.000123954
-0.00015223
0.000164354
-0.000205333
0.000206145
-0.00026695
0.000248345
-0.000336969
0.000290161
-0.000415172
0.00033095
-0.000501255
0.0003702
-0.000594836
0.000407503
-0.000695471
0.000442537
-0.000802666
0.000475053
-0.000915885
0.000504862
-0.00103456
0.000531823
-0.00115809
0.000555837
-0.00128588
0.00057684
-0.00141729
0.000594795
-0.00155169
0.00060969
-0.00168847
0.000621534
-0.00182697
0.000630351
-0.00196658
0.000636179
-0.00210668
0.000639072
-0.00224667
0.000639089
-0.00238594
0.000636301
-0.00252393
0.000630785
-0.00266005
0.000622625
-0.00279378
0.000611909
-0.00292457
0.00059873
-0.00305193
0.000583186
-0.00317536
0.000565377
-0.0032944
0.000545405
-0.0034086
0.000523375
-0.00351755
0.000499396
-0.00362084
0.000473575
-0.0037181
0.000446026
-0.00380899
0.000416859
-0.00389317
0.00038619
-0.00397035
0.000354134
-0.00404024
0.000320808
-0.00410261
0.00028633
-0.00415723
0.000250821
-0.0042039
0.000214402
-0.00424246
0.000177195
-0.00427275
0.000139325
-0.00429467
0.000100918
-0.00430813
6.21013e-05
-0.00431306
2.30035e-05
-0.00430944
-1.62446e-05
-0.00429727
-5.55109e-05
-0.00427657
-9.4662e-05
-0.0042474
-0.000133563
-0.00420984
-0.000172077
-0.004164
-0.000210067
-0.00411005
-0.000247394
-0.00404814
-0.000283919
-0.00397849
-0.000319501
-0.00390133
-0.000354
-0.00381692
-0.000387275
-0.00372557
-0.000419185
-0.00362759
-0.000449592
-0.00352335
-0.000478354
-0.00341322
-0.000505337
-0.00329763
-0.000530403
-0.003177
-0.00055342
-0.00305181
-0.000574259
-0.00292256
-0.000592793
-0.00278975
-0.000608901
-0.00265394
-0.000622468
-0.00251568
-0.000633383
-0.00237557
-0.000641544
-0.00223421
-0.000646856
-0.00209221
-0.000649233
-0.00195021
-0.000648601
-0.00180887
-0.000644894
-0.00166882
-0.000638063
-0.00153074
-0.000628071
-0.00139529
-0.000614899
-0.00126311
-0.000598545
-0.00113486
-0.000579028
-0.00101119
-0.000556394
-0.000892698
-0.000530714
-0.000779989
-0.00050209
-0.000673623
-0.000470663
-0.000574119
-0.000436615
-0.000481947
-0.000400181
-0.000397519
-0.000361655
-0.000321172
-0.0003214
-0.000253162
-0.00027987
-0.000193649
-0.000237617
-0.000142682
-0.000195321
-0.000100186
-0.00015381
-6.59471e-05
-0.000114094
-3.96011e-05
-7.74024e-05
-2.06204e-05
-4.52255e-05
-8.30524e-06
-1.93604e-05
-1.77979e-06
-1.96006e-06
4.25654e-06
-3.06239e-06
-6.07916e-07
-1.30194e-05
1.46576e-05
-3.05864e-05
4.20841e-05
-5.63638e-05
7.81866e-05
-9.08198e-05
0.000120604
-0.000134285
0.000167419
-0.000186954
0.000217024
-0.000248894
0.000268084
-0.00032005
0.000319501
-0.000400258
0.000370369
-0.000489257
0.00041995
-0.000586702
0.000467645
-0.00069217
0.000512972
-0.00080518
0.000555547
-0.000925195
0.000595068
-0.00105164
0.000631304
-0.00118389
0.000664079
-0.00132133
0.000693269
-0.00146327
0.000718789
-0.00160907
0.000740589
-0.00175803
0.00075865
-0.00190947
0.000772975
-0.00206271
0.000783592
-0.00221707
0.000790543
-0.00237189
0.000793889
-0.0025265
0.0007937
-0.00268026
0.000790059
-0.00283254
0.00078306
-0.00298271
0.000772803
-0.0031302
0.000759395
-0.00327442
0.000742948
-0.00341481
0.000723582
-0.00355085
0.000701418
-0.00368203
0.000676582
-0.00380786
0.000649203
-0.00392788
0.000619415
-0.00404166
0.000587351
-0.00414878
0.000553148
-0.00424886
0.000516946
-0.00434156
0.000478885
-0.00442653
0.000439108
-0.00450349
0.000397761
-0.00457214
0.00035499
-0.00463227
0.000310943
-0.00468364
0.000265772
-0.00472607
0.000219627
-0.00475941
0.000172663
-0.00478353
0.000125036
-0.00479833
7.69044e-05
-0.00480375
2.8427e-05
-0.00479976
-2.02343e-05
-0.00478636
-6.89159e-05
-0.00476357
-0.000117452
-0.00473145
-0.000165677
-0.00469011
-0.000213421
-0.00463966
-0.000260513
-0.00458027
-0.000306784
-0.00451213
-0.00035206
-0.00443546
-0.000396169
-0.00435053
-0.000438936
-0.00425761
-0.000480189
-0.00415704
-0.000519753
-0.00404918
-0.000557458
-0.0039344
-0.000593131
-0.00381314
-0.000626603
-0.00368583
-0.000657709
-0.00355296
-0.000686285
-0.00341505
-0.000712173
-0.00327263
-0.000735217
-0.00312626
-0.000755271
-0.00297653
-0.000772192
-0.00282407
-0.000785847
-0.0026695
-0.00079611
-0.00251349
-0.000802868
-0.00235671
-0.000806017
-0.00219984
-0.000805468
-0.00204359
-0.000801144
-0.00188867
-0.000792985
-0.00173579
-0.000780953
-0.00158566
-0.000765024
-0.001439
-0.000745203
-0.00129651
-0.000721518
-0.00115888
-0.000694026
-0.00102677
-0.000662822
-0.00090083
-0.000628033
-0.000781656
-0.000589836
-0.000669815
-0.000548457
-0.000565816
-0.00050418
-0.00047011
-0.000457361
-0.000383073
-0.000408437
-0.000305
-0.000357942
-0.000236092
-0.000306525
-0.000176445
-0.000254968
-0.000126038
-0.000204217
-8.47254e-05
-0.000155407
-5.22275e-05
-0.0001099
-2.81263e-05
-6.93267e-05
-1.18644e-05
-3.56223e-05
-2.75336e-06
-1.10711e-05
1.50319e-06
-4.0721e-06
3.46409e-06
-1.67329e-05
2.73185e-05
-3.84379e-05
6.37891e-05
-6.9585e-05
0.000109334
-0.000110481
0.000161501
-0.000161329
0.000218266
-0.000222217
0.000277912
-0.000293128
0.000338995
-0.000373936
0.000400309
-0.000464418
0.000460851
-0.000564261
0.000519793
-0.000673071
0.000576455
-0.000790383
0.000630284
-0.000915672
0.000680835
-0.00104836
0.000727756
-0.00118783
0.00077077
-0.00133341
0.000809668
-0.00148444
0.000844298
-0.00164021
0.000874555
-0.0018
0.000900376
-0.00196308
0.00092173
-0.00212872
0.00093862
-0.0022962
0.000951072
-0.00246479
0.000959133
-0.00263377
0.000962871
-0.00280244
0.000962368
-0.0029701
0.00095772
-0.00313608
0.000949037
-0.00329971
0.000936435
-0.00346036
0.000920043
-0.0036174
0.000899993
-0.00377025
0.000876426
-0.00391832
0.000849488
-0.00406107
0.000819331
-0.00419797
0.000786108
-0.00432854
0.000749979
-0.00445229
0.000711105
-0.00456879
0.000669651
-0.00467763
0.000625784
-0.00477842
0.000579675
-0.00487081
0.000531496
-0.00495447
0.000481421
-0.00502911
0.000429629
-0.00509446
0.000376298
-0.0051503
0.00032161
-0.00519642
0.000265748
-0.00523266
0.0002089
-0.00525888
0.000151252
-0.00527497
9.2997e-05
-0.00528087
3.43267e-05
-0.00527654
-2.45632e-05
-0.00526198
-8.34753e-05
-0.00523722
-0.00014221
-0.00520233
-0.000200566
-0.00515741
-0.000258339
-0.0051026
-0.000315325
-0.00503807
-0.000371316
-0.00496403
-0.000426105
-0.00488071
-0.000479484
-0.00478841
-0.000531243
-0.00468742
-0.000581173
-0.00457811
-0.000629067
-0.00446085
-0.000674716
-0.00433606
-0.000717916
-0.0042042
-0.000758464
-0.00406575
-0.00079616
-0.00392123
-0.000830808
-0.00377118
-0.000862219
-0.00361619
-0.000890207
-0.00345687
-0.000914597
-0.00329384
-0.000935219
-0.00312777
-0.000951914
-0.00295935
-0.000964534
-0.00278927
-0.000972944
-0.00261827
-0.000977022
-0.00244707
-0.000976662
-0.00227644
-0.000971776
-0.00210713
-0.000962297
-0.0019399
-0.000948179
-0.00177553
-0.0009294
-0.00161476
-0.000905969
-0.00145836
-0.000877922
-0.00130705
-0.000845334
-0.00116155
-0.000808319
-0.00102255
-0.000767035
-0.000890692
-0.000721694
-0.000766584
-0.000672564
-0.00065078
-0.000619985
-0.000543769
-0.000564372
-0.000445973
-0.000506233
-0.000357732
-0.000446183
-0.000279296
-0.00038496
-0.000210819
-0.000323445
-0.000152345
-0.000262691
-0.000103809
-0.000203943
-6.50284e-05
-0.000148681
-3.57061e-05
-9.8649e-05
-1.54363e-05
-5.58922e-05
-3.71966e-06
-2.27877e-05
-2.2165e-06
-5.0595e-06
8.52377e-06
-2.04018e-05
4.26607e-05
-4.62429e-05
8.96303e-05
-8.27848e-05
0.000145876
-0.000130171
0.000208887
-0.000188467
0.000276562
-0.000257651
0.000347096
-0.000337609
0.000418953
-0.000428138
0.000490837
-0.000528944
0.000561658
-0.000639656
0.000630505
-0.000759827
0.000696625
-0.000888942
0.000759399
-0.00102643
0.000818323
-0.00117167
0.000872994
-0.00132399
0.000923096
-0.00148271
0.000968384
-0.00164709
0.00100868
-0.00181639
0.00104385
-0.00198984
0.00107383
-0.00216669
0.00109857
-0.00234614
0.00111808
-0.00252744
0.00113237
-0.00270981
0.0011415
-0.0028925
0.00114555
-0.00307474
0.00114461
-0.0032558
0.00113879
-0.00343497
0.00112821
-0.00361155
0.00111301
-0.00378484
0.00109334
-0.0039542
0.00106935
-0.00411898
0.00104121
-0.00427858
0.00100909
-0.00443241
0.000973161
-0.00457991
0.000933612
-0.00472056
0.000890628
-0.00485385
0.000844398
-0.00497932
0.000795117
-0.00509652
0.000742983
-0.00520504
0.000688197
-0.00530451
0.000630962
-0.00539457
0.000571486
-0.00547492
0.000509978
-0.00554527
0.00044665
-0.00560538
0.000381717
-0.00565503
0.000315397
-0.00569404
0.000247911
-0.00572227
0.000179482
-0.00573961
0.000110334
-0.00574598
4.06978e-05
-0.00574134
-2.91965e-05
-0.0057257
-9.9115e-05
-0.00569909
-0.000168821
-0.00566158
-0.000238077
-0.00561328
-0.000306642
-0.00555433
-0.000374273
-0.00548492
-0.000440726
-0.00540527
-0.000505756
-0.00531564
-0.000569115
-0.00521632
-0.000630558
-0.00510766
-0.000689839
-0.00499001
-0.00074671
-0.0048638
-0.000800928
-0.00472947
-0.000852251
-0.00458749
-0.00090044
-0.00443839
-0.000945261
-0.00428271
-0.000986482
-0.00412105
-0.00102388
-0.00395402
-0.00105724
-0.00378226
-0.00108636
-0.00360645
-0.00111103
-0.00342729
-0.00113107
-0.00324552
-0.00114631
-0.00306187
-0.00115659
-0.00287712
-0.00116177
-0.00269206
-0.00116173
-0.00250747
-0.00115636
-0.00232418
-0.00114559
-0.00214298
-0.00112938
-0.00196469
-0.00110769
-0.00179012
-0.00108054
-0.00162006
-0.00104798
-0.0014553
-0.0010101
-0.00129659
-0.000967026
-0.00114467
-0.000918959
-0.00100022
-0.00086614
-0.000863904
-0.000808884
-0.000736309
-0.00074758
-0.000617975
-0.000682706
-0.000509372
-0.000614837
-0.000410891
-0.000544664
-0.000322841
-0.00047301
-0.000245439
-0.000400847
-0.000178807
-0.000329323
-0.000122966
-0.000259784
-7.78414e-05
-0.000193806
-4.32622e-05
-0.000133228
-1.89762e-05
-8.01782e-05
-4.66813e-06
-3.70957e-05
-6.88462e-06
-6.0201e-06
1.45438e-05
-2.40011e-05
6.06418e-05
-5.39421e-05
0.000119571
-9.58586e-05
0.000187792
-0.000149733
0.000262761
-0.000215493
0.000342322
-0.000292999
0.000424602
-0.000382036
0.000507991
-0.000482314
0.000591115
-0.000593465
0.000672809
-0.000715052
0.000752091
-0.000846567
0.00082814
-0.000987443
0.000900275
-0.00113706
0.00096794
-0.00129475
0.00103068
-0.0014598
0.00108815
-0.00163148
0.00114006
-0.001809
0.00118621
-0.0019916
0.00122645
-0.00217845
0.00126069
-0.00236876
0.00128888
-0.00256171
0.00131102
-0.00275648
0.00132714
-0.00295226
0.00133728
-0.00314824
0.00134154
-0.00334365
0.00134002
-0.0035377
0.00133284
-0.00372963
0.00132014
-0.00391871
0.00130208
-0.0041042
0.00127883
-0.00428543
0.00125057
-0.00446171
0.00121749
-0.0046324
0.00117978
-0.00479689
0.00113765
-0.00495458
0.0010913
-0.00510491
0.00104096
-0.00524736
0.000986849
-0.00538143
0.000929186
-0.00550665
0.000868204
-0.00562259
0.000804135
-0.00572885
0.000737218
-0.00582506
0.000667693
-0.00591088
0.000595804
-0.00598603
0.000521798
-0.00605024
0.000445925
-0.00610328
0.000368438
-0.00614496
0.000289596
-0.00617514
0.000209656
-0.00619369
0.000128883
-0.00620053
4.7542e-05
-0.00619563
-3.40972e-05
-0.00617898
-0.000115763
-0.00615062
-0.00019718
-0.00611063
-0.000278071
-0.00605911
-0.000358156
-0.00599623
-0.000437153
-0.00592218
-0.000514778
-0.00583719
-0.000590746
-0.00574154
-0.00066477
-0.00563553
-0.000736563
-0.00551953
-0.000805841
-0.00539392
-0.000872316
-0.00525914
-0.000935707
-0.00511566
-0.000995732
-0.00496399
-0.00105211
-0.00480467
-0.00110458
-0.00463828
-0.00115287
-0.00446545
-0.00119672
-0.00428682
-0.00123587
-0.00410307
-0.0012701
-0.00391493
-0.00129918
-0.00372312
-0.00132288
-0.00352842
-0.00134101
-0.00333162
-0.00135339
-0.00313353
-0.00135986
-0.00293497
-0.00136028
-0.00273679
-0.00135454
-0.00253984
-0.00134255
-0.00234497
-0.00132425
-0.00215304
-0.00129962
-0.00196491
-0.00126867
-0.00178141
-0.00123148
-0.00160336
-0.00118814
-0.00143158
-0.0011388
-0.00126684
-0.0010837
-0.00110988
-0.0010231
-0.000961389
-0.000957375
-0.000822016
-0.000886953
-0.000692347
-0.000812374
-0.000572906
-0.000734278
-0.000464142
-0.000653428
-0.000366428
-0.000570725
-0.000280051
-0.000487223
-0.000205217
-0.000404157
-0.000142042
-0.000322959