/*--------------------------------*- C++ -*----------------------------------*\
  =========                 |
  \\      /  F ield         | OpenFOAM: The Open Source CFD Toolbox
   \\    /   O peration     | Website:  https://openfoam.org
    \\  /    A nd           | Version:  11
     \\/     M anipulation  |
\*---------------------------------------------------------------------------*/
FoamFile
{
    format      ascii;
    class       volVectorField;
    location    "7.1";
    object      U;
}
// * * * * * * * * * * * * * * * * * * * * * * * * * * * * * * * * * * * * * //

dimensions      [0 1 -1 0 0 0 0];

internalField   nonuniform List<vector> 
10100
(
(3.03933e-06 -2.90864e-06 0)
(1.45316e-05 -7.15008e-06 0)
(3.23248e-05 -8.01433e-06 0)
(4.86656e-05 -6.80475e-06 0)
(5.90157e-05 -4.45728e-06 0)
(6.11635e-05 -1.52354e-06 0)
(5.38898e-05 1.67102e-06 0)
(3.66153e-05 4.93059e-06 0)
(9.19283e-06 8.14333e-06 0)
(-2.82217e-05 1.12392e-05 0)
(-7.5309e-05 1.41859e-05 0)
(-0.00013161 1.69471e-05 0)
(-0.000196585 1.95141e-05 0)
(-0.000269638 2.18746e-05 0)
(-0.000350141 2.40244e-05 0)
(-0.000437433 2.59712e-05 0)
(-0.00053085 2.77108e-05 0)
(-0.000629725 2.92413e-05 0)
(-0.000733377 3.05693e-05 0)
(-0.000841148 3.16957e-05 0)
(-0.000952387 3.26245e-05 0)
(-0.00106644 3.33647e-05 0)
(-0.00118269 3.3922e-05 0)
(-0.00130052 3.42995e-05 0)
(-0.00141932 3.4503e-05 0)
(-0.00153853 3.45407e-05 0)
(-0.00165759 3.44165e-05 0)
(-0.00177594 3.41344e-05 0)
(-0.00189307 3.37028e-05 0)
(-0.00200848 3.31305e-05 0)
(-0.00212168 3.24234e-05 0)
(-0.00223223 3.15872e-05 0)
(-0.00233967 3.06287e-05 0)
(-0.00244361 2.95533e-05 0)
(-0.00254363 2.83663e-05 0)
(-0.00263937 2.70732e-05 0)
(-0.00273046 2.56803e-05 0)
(-0.00281659 2.41944e-05 0)
(-0.00289742 2.26214e-05 0)
(-0.00297267 2.09675e-05 0)
(-0.00304208 1.92378e-05 0)
(-0.00310538 1.74385e-05 0)
(-0.00316235 1.55781e-05 0)
(-0.00321279 1.3663e-05 0)
(-0.00325652 1.16984e-05 0)
(-0.00329338 9.69053e-06 0)
(-0.00332323 7.64494e-06 0)
(-0.00334595 5.56766e-06 0)
(-0.00336145 3.46677e-06 0)
(-0.00336966 1.34897e-06 0)
(-0.00337054 -7.78914e-07 0)
(-0.00336406 -2.90849e-06 0)
(-0.00335024 -5.03344e-06 0)
(-0.00332909 -7.14868e-06 0)
(-0.00330068 -9.24652e-06 0)
(-0.00326508 -1.13184e-05 0)
(-0.00322239 -1.33568e-05 0)
(-0.00317275 -1.53538e-05 0)
(-0.00311632 -1.73011e-05 0)
(-0.00305329 -1.91923e-05 0)
(-0.00298386 -2.1021e-05 0)
(-0.00290826 -2.2778e-05 0)
(-0.00282677 -2.44544e-05 0)
(-0.00273968 -2.60427e-05 0)
(-0.00264731 -2.75348e-05 0)
(-0.00255001 -2.8922e-05 0)
(-0.00244815 -3.01969e-05 0)
(-0.00234214 -3.1353e-05 0)
(-0.00223239 -3.23828e-05 0)
(-0.00211936 -3.32779e-05 0)
(-0.00200354 -3.403e-05 0)
(-0.00188541 -3.46297e-05 0)
(-0.00176552 -3.5068e-05 0)
(-0.00164442 -3.53386e-05 0)
(-0.00152268 -3.54377e-05 0)
(-0.0014009 -3.53607e-05 0)
(-0.00127969 -3.51013e-05 0)
(-0.00115966 -3.46532e-05 0)
(-0.00104146 -3.40114e-05 0)
(-0.000925754 -3.31708e-05 0)
(-0.000813204 -3.21262e-05 0)
(-0.000704489 -3.08738e-05 0)
(-0.000600292 -2.94129e-05 0)
(-0.000501297 -2.77431e-05 0)
(-0.000408182 -2.58636e-05 0)
(-0.000321615 -2.37747e-05 0)
(-0.000242252 -2.1479e-05 0)
(-0.000170723 -1.89818e-05 0)
(-0.000107629 -1.62902e-05 0)
(-5.3524e-05 -1.34136e-05 0)
(-8.89762e-06 -1.03675e-05 0)
(2.58504e-05 -7.17867e-06 0)
(5.04538e-05 -3.89004e-06 0)
(6.48428e-05 -5.72443e-07 0)
(6.92449e-05 2.65385e-06 0)
(6.43395e-05 5.5825e-06 0)
(5.14757e-05 7.85633e-06 0)
(3.31336e-05 8.84366e-06 0)
(1.42628e-05 7.4752e-06 0)
(2.77147e-06 2.77595e-06 0)
(8.0145e-06 -1.47702e-05 0)
(3.12392e-05 -2.99824e-05 0)
(6.157e-05 -3.106e-05 0)
(8.50106e-05 -2.30606e-05 0)
(9.27287e-05 -9.42139e-06 0)
(7.96754e-05 7.56331e-06 0)
(4.26407e-05 2.63675e-05 0)
(-2.01552e-05 4.59218e-05 0)
(-0.000109425 6.55464e-05 0)
(-0.000225114 8.47654e-05 0)
(-0.000366609 0.000103258 0)
(-0.000532911 0.000120819 0)
(-0.000722739 0.000137288 0)
(-0.000934618 0.000152567 0)
(-0.00116692 0.000166598 0)
(-0.00141795 0.000179337 0)
(-0.00168593 0.000190765 0)
(-0.00196904 0.000200879 0)
(-0.00226549 0.00020968 0)
(-0.00257343 0.000217178 0)
(-0.00289107 0.000223397 0)
(-0.00321662 0.000228361 0)
(-0.00354833 0.000232095 0)
(-0.00388448 0.000234634 0)
(-0.00422339 0.000236011 0)
(-0.00456344 0.000236259 0)
(-0.00490303 0.000235415 0)
(-0.00524064 0.000233516 0)
(-0.00557478 0.000230602 0)
(-0.00590403 0.000226716 0)
(-0.00622703 0.000221898 0)
(-0.00654246 0.000216192 0)
(-0.00684906 0.000209639 0)
(-0.00714565 0.000202281 0)
(-0.00743109 0.000194156 0)
(-0.0077043 0.000185305 0)
(-0.00796426 0.000175768 0)
(-0.00821002 0.000165588 0)
(-0.00844068 0.000154808 0)
(-0.0086554 0.000143468 0)
(-0.00885341 0.000131613 0)
(-0.009034 0.000119285 0)
(-0.00919652 0.00010653 0)
(-0.00934037 9.33914e-05 0)
(-0.00946505 7.99141e-05 0)
(-0.00957008 6.61407e-05 0)
(-0.00965509 5.21158e-05 0)
(-0.00971973 3.78835e-05 0)
(-0.00976376 2.34895e-05 0)
(-0.00978697 8.98344e-06 0)
(-0.00978924 -5.58463e-06 0)
(-0.00977052 -2.01672e-05 0)
(-0.00973082 -3.47167e-05 0)
(-0.00967024 -4.91845e-05 0)
(-0.00958893 -6.35209e-05 0)
(-0.00948713 -7.7674e-05 0)
(-0.00936513 -9.15898e-05 0)
(-0.00922334 -0.000105215 0)
(-0.00906219 -0.0001185 0)
(-0.00888223 -0.000131392 0)
(-0.00868407 -0.000143838 0)
(-0.0084684 -0.000155783 0)
(-0.00823597 -0.000167174 0)
(-0.00798764 -0.000177954 0)
(-0.00772432 -0.00018807 0)
(-0.00744701 -0.000197467 0)
(-0.00715678 -0.000206095 0)
(-0.00685477 -0.000213903 0)
(-0.00654221 -0.000220841 0)
(-0.00622039 -0.000226856 0)
(-0.00589066 -0.000231897 0)
(-0.00555446 -0.000235911 0)
(-0.00521328 -0.000238851 0)
(-0.00486868 -0.000240675 0)
(-0.00452228 -0.000241345 0)
(-0.00417574 -0.000240827 0)
(-0.00383078 -0.000239087 0)
(-0.00348916 -0.000236093 0)
(-0.00315267 -0.000231816 0)
(-0.00282314 -0.000226231 0)
(-0.00250242 -0.000219319 0)
(-0.00219238 -0.000211067 0)
(-0.00189488 -0.000201471 0)
(-0.00161179 -0.000190538 0)
(-0.00134494 -0.000178283 0)
(-0.00109612 -0.000164734 0)
(-0.000867077 -0.000149929 0)
(-0.000659442 -0.000133929 0)
(-0.000474741 -0.000116816 0)
(-0.000314331 -9.8705e-05 0)
(-0.000179341 -7.97617e-05 0)
(-7.05966e-05 -6.02193e-05 0)
(1.14946e-05 -4.04133e-05 0)
(6.71034e-05 -2.08335e-05 0)
(9.7205e-05 -2.20847e-06 0)
(0.000103887 1.4367e-05 0)
(9.06974e-05 2.72459e-05 0)
(6.32104e-05 3.39434e-05 0)
(3.08166e-05 3.08536e-05 0)
(7.4436e-06 1.42477e-05 0)
(9.45273e-06 -3.40697e-05 0)
(3.42496e-05 -6.12489e-05 0)
(6.19608e-05 -5.7814e-05 0)
(7.55237e-05 -3.43736e-05 0)
(6.40908e-05 2.38598e-06 0)
(2.10425e-05 4.76841e-05 0)
(-5.80774e-05 9.79205e-05 0)
(-0.000175933 0.000150573 0)
(-0.000333722 0.000203785 0)
(-0.000531564 0.000256263 0)
(-0.000768729 0.000307088 0)
(-0.00104388 0.000355587 0)
(-0.00135524 0.000401294 0)
(-0.00170064 0.000443882 0)
(-0.0020777 0.000483114 0)
(-0.00248388 0.000518846 0)
(-0.00291646 0.000550988 0)
(-0.00337272 0.000579489 0)
(-0.00384983 0.000604339 0)
(-0.00434499 0.000625559 0)
(-0.00485536 0.000643178 0)
(-0.00537817 0.000657253 0)
(-0.00591065 0.000667856 0)
(-0.00645011 0.00067506 0)
(-0.00699388 0.000678952 0)
(-0.00753938 0.000679631 0)
(-0.0080841 0.000677191 0)
(-0.0086256 0.000671735 0)
(-0.00916153 0.000663375 0)
(-0.00968959 0.000652222 0)
(-0.0102076 0.000638388 0)
(-0.0107135 0.000621992 0)
(-0.0112053 0.000603152 0)
(-0.0116809 0.000581985 0)
(-0.0121387 0.000558607 0)
(-0.0125769 0.000533135 0)
(-0.0129938 0.000505688 0)
(-0.0133879 0.000476387 0)
(-0.0137577 0.000445353 0)
(-0.014102 0.000412709 0)
(-0.0144195 0.000378578 0)
(-0.014709 0.000343086 0)
(-0.0149696 0.000306359 0)
(-0.0152001 0.000268525 0)
(-0.0153999 0.000229712 0)
(-0.0155682 0.00019005 0)
(-0.0157043 0.000149666 0)
(-0.0158077 0.000108691 0)
(-0.0158781 6.72617e-05 0)
(-0.015915 2.55136e-05 0)
(-0.0159184 -1.64119e-05 0)
(-0.0158881 -5.83725e-05 0)
(-0.0158242 -0.000100231 0)
(-0.0157268 -0.000141845 0)
(-0.0155962 -0.000183068 0)
(-0.0154327 -0.000223751 0)
(-0.0152368 -0.000263745 0)
(-0.0150093 -0.000302898 0)
(-0.0147508 -0.000341059 0)
(-0.0144621 -0.000378077 0)
(-0.0141443 -0.0004138 0)
(-0.0137985 -0.000448072 0)
(-0.0134259 -0.000480738 0)
(-0.0130279 -0.000511642 0)
(-0.0126059 -0.000540631 0)
(-0.0121615 -0.000567552 0)
(-0.0116966 -0.000592256 0)
(-0.0112128 -0.000614598 0)
(-0.0107121 -0.000634433 0)
(-0.0101967 -0.000651616 0)
(-0.0096686 -0.000666007 0)
(-0.00913021 -0.000677469 0)
(-0.00858386 -0.000685873 0)
(-0.00803202 -0.000691101 0)
(-0.00747724 -0.000693044 0)
(-0.00692218 -0.000691604 0)
(-0.00636955 -0.00068669 0)
(-0.00582211 -0.000678218 0)
(-0.0052827 -0.000666119 0)
(-0.0047542 -0.000650335 0)
(-0.00423949 -0.000630827 0)
(-0.00374148 -0.000607574 0)
(-0.00326307 -0.000580582 0)
(-0.00280714 -0.000549882 0)
(-0.0023765 -0.000515539 0)
(-0.0019739 -0.000477655 0)
(-0.00160195 -0.000436376 0)
(-0.0012631 -0.000391909 0)
(-0.000959596 -0.000344534 0)
(-0.000693374 -0.000294636 0)
(-0.000465994 -0.000242739 0)
(-0.00027851 -0.000189557 0)
(-0.000131315 -0.000136072 0)
(-2.39321e-05 -8.36454e-05 0)
(4.52612e-05 -3.41756e-05 0)
(7.93756e-05 9.6749e-06 0)
(8.33444e-05 4.41928e-05 0)
(6.43995e-05 6.42863e-05 0)
(3.39464e-05 6.32385e-05 0)
(8.80457e-06 3.30698e-05 0)
(8.29622e-06 -5.26381e-05 0)
(2.69374e-05 -8.7102e-05 0)
(4.05351e-05 -7.21554e-05 0)
(3.15265e-05 -2.46423e-05 0)
(-1.15941e-05 4.52359e-05 0)
(-9.62487e-05 0.000129868 0)
(-0.000227535 0.000223469 0)
(-0.000408578 0.000321662 0)
(-0.000640927 0.000421228 0)
(-0.000924779 0.000519775 0)
(-0.00125936 0.000615539 0)
(-0.0016431 0.000707225 0)
(-0.0020738 0.000793894 0)
(-0.00254884 0.000874855 0)
(-0.00306521 0.00094962 0)
(-0.00361965 0.00101786 0)
(-0.00420874 0.00107934 0)
(-0.00482891 0.00113394 0)
(-0.00547651 0.00118162 0)
(-0.00614787 0.00122236 0)
(-0.00683929 0.00125622 0)
(-0.00754709 0.00128328 0)
(-0.00826762 0.00130365 0)
(-0.0089973 0.00131747 0)
(-0.00973259 0.00132489 0)
(-0.0104701 0.00132609 0)
(-0.0112063 0.00132124 0)
(-0.0119381 0.00131054 0)
(-0.0126624 0.0012942 0)
(-0.0133759 0.00127243 0)
(-0.0140758 0.00124544 0)
(-0.0147593 0.00121345 0)
(-0.0154236 0.00117669 0)
(-0.0160662 0.00113538 0)
(-0.0166846 0.00108976 0)
(-0.0172765 0.00104005 0)
(-0.0178397 0.00098648 0)
(-0.018372 0.000929292 0)
(-0.0188715 0.000868719 0)
(-0.0193365 0.000805004 0)
(-0.0197653 0.000738387 0)
(-0.0201562 0.000669111 0)
(-0.0205079 0.000597424 0)
(-0.0208192 0.000523575 0)
(-0.0210888 0.000447813 0)
(-0.0213159 0.000370395 0)
(-0.0214994 0.000291575 0)
(-0.0216389 0.000211611 0)
(-0.0217336 0.000130766 0)
(-0.0217832 4.9311e-05 0)
(-0.0217875 -3.24844e-05 0)
(-0.0217463 -0.000114345 0)
(-0.0216596 -0.000195994 0)
(-0.0215278 -0.000277151 0)
(-0.021351 -0.000357533 0)
(-0.02113 -0.00043685 0)
(-0.0208653 -0.00051481 0)
(-0.0205578 -0.00059112 0)
(-0.0202084 -0.000665484 0)
(-0.0198185 -0.000737604 0)
(-0.0193892 -0.000807183 0)
(-0.0189222 -0.000873921 0)
(-0.0184191 -0.000937518 0)
(-0.0178817 -0.000997674 0)
(-0.0173119 -0.00105409 0)
(-0.0167121 -0.00110647 0)
(-0.0160844 -0.00115453 0)
(-0.0154314 -0.00119799 0)
(-0.0147556 -0.00123656 0)
(-0.0140599 -0.00126997 0)
(-0.0133472 -0.00129795 0)
(-0.0126205 -0.00132026 0)
(-0.0118831 -0.00133665 0)
(-0.0111381 -0.00134689 0)
(-0.0103891 -0.00135078 0)
(-0.00963947 -0.00134812 0)
(-0.00889296 -0.00133876 0)
(-0.00815321 -0.00132255 0)
(-0.00742396 -0.00129935 0)
(-0.00670902 -0.00126909 0)
(-0.0060122 -0.00123169 0)
(-0.00533733 -0.00118716 0)
(-0.0046882 -0.00113551 0)
(-0.00406857 -0.00107683 0)
(-0.00348209 -0.00101127 0)
(-0.00293229 -0.000939073 0)
(-0.00242253 -0.000860548 0)
(-0.00195591 -0.000776141 0)
(-0.00153524 -0.000686445 0)
(-0.0011629 -0.000592253 0)
(-0.000840764 -0.000494617 0)
(-0.000570036 -0.000394934 0)
(-0.000351083 -0.000295068 0)
(-0.00018321 -0.000197511 0)
(-6.43838e-05 -0.00010561 0)
(9.09221e-06 -2.38556e-05 0)
(4.28741e-05 4.17554e-05 0)
(4.49893e-05 8.33621e-05 0)
(2.75234e-05 9.0913e-05 0)
(7.86358e-06 5.1432e-05 0)
(5.82581e-06 -6.53231e-05 0)
(1.33801e-05 -9.80155e-05 0)
(4.61845e-06 -6.27969e-05 0)
(-3.63367e-05 1.7796e-05 0)
(-0.000120667 0.000130049 0)
(-0.00025593 0.000263659 0)
(-0.000447399 0.000410532 0)
(-0.000698383 0.00056446 0)
(-0.00101046 0.000720695 0)
(-0.0013839 0.000875633 0)
(-0.00181779 0.00102653 0)
(-0.00231035 0.00117135 0)
(-0.00285909 0.00130852 0)
(-0.00346094 0.00143692 0)
(-0.00411242 0.00155572 0)
(-0.0048097 0.0016643 0)
(-0.0055487 0.00176229 0)
(-0.00632519 0.00184941 0)
(-0.0071348 0.00192555 0)
(-0.0079731 0.00199065 0)
(-0.00883563 0.00204477 0)
(-0.00971792 0.00208802 0)
(-0.0106155 0.00212053 0)
(-0.0115241 0.00214252 0)
(-0.0124393 0.00215422 0)
(-0.0133569 0.00215587 0)
(-0.0142729 0.00214778 0)
(-0.015183 0.00213023 0)
(-0.0160836 0.00210355 0)
(-0.0169708 0.00206807 0)
(-0.0178409 0.00202414 0)
(-0.0186906 0.0019721 0)
(-0.0195163 0.00191231 0)
(-0.020315 0.00184513 0)
(-0.0210836 0.00177094 0)
(-0.0218191 0.00169011 0)
(-0.0225189 0.00160301 0)
(-0.0231804 0.00151003 0)
(-0.0238011 0.00141154 0)
(-0.0243788 0.00130795 0)
(-0.0249114 0.00119964 0)
(-0.025397 0.00108701 0)
(-0.0258338 0.00097046 0)
(-0.0262203 0.000850397 0)
(-0.0265551 0.000727231 0)
(-0.026837 0.000601374 0)
(-0.0270648 0.000473245 0)
(-0.0272377 0.000343267 0)
(-0.0273551 0.000211869 0)
(-0.0274165 7.94887e-05 0)
(-0.0274214 -5.34313e-05 0)
(-0.0273699 -0.000186446 0)
(-0.0272619 -0.000319106 0)
(-0.0270978 -0.00045095 0)
(-0.0268779 -0.000581516 0)
(-0.026603 -0.000710338 0)
(-0.0262739 -0.00083694 0)
(-0.0258917 -0.000960845 0)
(-0.0254575 -0.00108158 0)
(-0.024973 -0.00119865 0)
(-0.0244396 -0.00131158 0)
(-0.0238594 -0.00141988 0)
(-0.0232344 -0.00152307 0)
(-0.0225668 -0.00162067 0)
(-0.0218591 -0.0017122 0)
(-0.0211141 -0.00179717 0)
(-0.0203345 -0.00187513 0)
(-0.0195234 -0.00194562 0)
(-0.0186841 -0.0020082 0)
(-0.01782 -0.00206242 0)
(-0.0169347 -0.00210786 0)
(-0.016032 -0.00214413 0)
(-0.0151157 -0.00217084 0)
(-0.01419 -0.00218765 0)
(-0.013259 -0.00219421 0)
(-0.012327 -0.00219025 0)
(-0.0113986 -0.00217549 0)
(-0.0104781 -0.00214972 0)
(-0.00957023 -0.00211277 0)
(-0.00867952 -0.0020645 0)
(-0.00781064 -0.00200485 0)
(-0.0069682 -0.00193382 0)
(-0.00615681 -0.00185149 0)
(-0.00538095 -0.00175803 0)
(-0.00464503 -0.00165372 0)
(-0.00395323 -0.00153898 0)
(-0.00330953 -0.00141436 0)
(-0.00271759 -0.00128064 0)
(-0.00218066 -0.00113881 0)
(-0.00170151 -0.00099018 0)
(-0.00128227 -0.000836466 0)
(-0.000924284 -0.000679886 0)
(-0.000627956 -0.000523327 0)
(-0.000392511 -0.00037055 0)
(-0.000215752 -0.000226454 0)
(-9.37728e-05 -9.74134e-05 0)
(-2.06957e-05 8.30413e-06 0)
(1.17033e-05 8.01372e-05 0)
(1.51669e-05 0.000104769 0)
(5.69365e-06 6.45268e-05 0)
(2.7576e-06 -6.96834e-05 0)
(-3.70004e-06 -8.84414e-05 0)
(-4.02839e-05 -2.25741e-05 0)
(-0.000119862 0.000100782 0)
(-0.000252339 0.000264788 0)
(-0.000445006 0.000456588 0)
(-0.000702926 0.000665915 0)
(-0.0010292 0.000884739 0)
(-0.00142534 0.00110677 0)
(-0.00189145 0.00132712 0)
(-0.00242645 0.00154203 0)
(-0.00302835 0.00174858 0)
(-0.00369435 0.00194454 0)
(-0.00442101 0.00212824 0)
(-0.0052044 0.00229843 0)
(-0.00604022 0.00245419 0)
(-0.00692385 0.00259489 0)
(-0.00785045 0.00272011 0)
(-0.00881504 0.00282959 0)
(-0.00981252 0.00292325 0)
(-0.0108378 0.0030011 0)
(-0.0118856 0.00306325 0)
(-0.012951 0.0031099 0)
(-0.0140287 0.0031413 0)
(-0.0151137 0.00315778 0)
(-0.0162013 0.00315967 0)
(-0.0172864 0.00314739 0)
(-0.0183645 0.00312134 0)
(-0.0194309 0.00308199 0)
(-0.0204813 0.0030298 0)
(-0.0215114 0.00296526 0)
(-0.0225171 0.00288888 0)
(-0.0234943 0.00280118 0)
(-0.0244395 0.00270267 0)
(-0.0253489 0.0025939 0)
(-0.0262191 0.00247541 0)
(-0.027047 0.00234775 0)
(-0.0278295 0.00221148 0)
(-0.0285637 0.00206715 0)
(-0.0292469 0.00191534 0)
(-0.0298768 0.00175663 0)
(-0.0304511 0.00159159 0)
(-0.0309676 0.00142082 0)
(-0.0314246 0.0012449 0)
(-0.0318203 0.00106445 0)
(-0.0321534 0.000880064 0)
(-0.0324226 0.000692359 0)
(-0.0326268 0.000501958 0)
(-0.0327654 0.000309494 0)
(-0.0328376 0.000115604 0)
(-0.0328431 -7.90627e-05 0)
(-0.0327819 -0.000273852 0)
(-0.0326539 -0.000468101 0)
(-0.0324595 -0.000661141 0)
(-0.0321992 -0.000852291 0)
(-0.0318739 -0.00104087 0)
(-0.0314844 -0.00122618 0)
(-0.0310322 -0.00140752 0)
(-0.0305186 -0.0015842 0)
(-0.0299455 -0.00175552 0)
(-0.0293147 -0.00192075 0)
(-0.0286285 -0.00207921 0)
(-0.0278893 -0.00223018 0)
(-0.0270998 -0.00237296 0)
(-0.0262629 -0.00250685 0)
(-0.0253818 -0.00263117 0)
(-0.0244599 -0.00274524 0)
(-0.0235007 -0.0028484 0)
(-0.022508 -0.00294 0)
(-0.021486 -0.00301942 0)
(-0.0204387 -0.00308605 0)
(-0.0193706 -0.00313932 0)
(-0.0182864 -0.00317869 0)
(-0.0171907 -0.00320365 0)
(-0.0160884 -0.00321375 0)
(-0.0149847 -0.00320856 0)
(-0.0138845 -0.00318773 0)
(-0.0127933 -0.00315096 0)
(-0.0117163 -0.00309802 0)
(-0.0106589 -0.00302874 0)
(-0.00962637 -0.00294308 0)
(-0.00862412 -0.00284105 0)
(-0.00765743 -0.00272281 0)
(-0.00673145 -0.00258867 0)
(-0.00585121 -0.00243906 0)
(-0.00502149 -0.00227463 0)
(-0.00424679 -0.00209624 0)
(-0.00353124 -0.00190506 0)
(-0.00287851 -0.00170257 0)
(-0.0022917 -0.00149069 0)
(-0.00177319 -0.00127188 0)
(-0.00132453 -0.00104927 0)
(-0.000946225 -0.000826855 0)
(-0.000637585 -0.000609716 0)
(-0.000396477 -0.000404323 0)
(-0.000219105 -0.000218901 0)
(-9.97607e-05 -6.38788e-05 0)
(-3.04924e-05 4.76718e-05 0)
(-6.84148e-07 9.94775e-05 0)
(2.91889e-06 7.00041e-05 0)
(-5.44162e-07 -6.45174e-05 0)
(-2.26035e-05 -5.50223e-05 0)
(-9.04834e-05 5.32843e-05 0)
(-0.000213111 0.000229836 0)
(-0.000398656 0.000455206 0)
(-0.000653685 0.000714234 0)
(-0.000982718 0.000994722 0)
(-0.00138847 0.00128687 0)
(-0.0018721 0.00158292 0)
(-0.00243344 0.00187671 0)
(-0.00307118 0.0021634 0)
(-0.003783 0.00243918 0)
(-0.0045658 0.00270111 0)
(-0.0054158 0.0029469 0)
(-0.00632867 0.00317484 0)
(-0.00729965 0.00338365 0)
(-0.00832364 0.00357241 0)
(-0.00939528 0.00374048 0)
(-0.010509 0.00388749 0)
(-0.0116592 0.00401325 0)
(-0.0128402 0.00411774 0)
(-0.014046 0.00420105 0)
(-0.015271 0.00426342 0)
(-0.0165095 0.00430516 0)
(-0.0177558 0.00432667 0)
(-0.0190044 0.00432839 0)
(-0.0202497 0.00431085 0)
(-0.0214866 0.0042746 0)
(-0.0227098 0.00422024 0)
(-0.0239143 0.00414839 0)
(-0.0250952 0.00405971 0)
(-0.0262479 0.00395487 0)
(-0.027368 0.00383457 0)
(-0.028451 0.00369953 0)
(-0.029493 0.00355046 0)
(-0.0304901 0.00338811 0)
(-0.0314384 0.00321323 0)
(-0.0323347 0.00302657 0)
(-0.0331756 0.00282891 0)
(-0.0339581 0.00262101 0)
(-0.0346794 0.00240368 0)
(-0.0353369 0.0021777 0)
(-0.0359283 0.00194388 0)
(-0.0364514 0.00170304 0)
(-0.0369043 0.00145599 0)
(-0.0372855 0.00120358 0)
(-0.0375935 0.000946642 0)
(-0.0378271 0.00068603 0)
(-0.0379855 0.00042261 0)
(-0.0380679 0.00015726 0)
(-0.038074 -0.000109137 0)
(-0.0380036 -0.000375683 0)
(-0.0378568 -0.00064147 0)
(-0.037634 -0.00090558 0)
(-0.0373358 -0.00116709 0)
(-0.036963 -0.00142505 0)
(-0.036517 -0.00167853 0)
(-0.0359991 -0.00192657 0)
(-0.0354109 -0.00216822 0)
(-0.0347546 -0.00240251 0)
(-0.0340322 -0.00262848 0)
(-0.0332465 -0.00284518 0)
(-0.0324001 -0.00305163 0)
(-0.031496 -0.00324689 0)
(-0.0305377 -0.00343002 0)
(-0.0295288 -0.00360007 0)
(-0.0284729 -0.00375614 0)
(-0.0273743 -0.00389733 0)
(-0.0262373 -0.00402276 0)
(-0.0250665 -0.0041316 0)
(-0.0238665 -0.00422304 0)
(-0.0226425 -0.00429629 0)
(-0.0213997 -0.00435065 0)
(-0.0201434 -0.00438545 0)
(-0.0188791 -0.00440006 0)
(-0.0176125 -0.00439396 0)
(-0.0163496 -0.00436666 0)
(-0.0150961 -0.0043178 0)
(-0.013858 -0.00424707 0)
(-0.0126415 -0.00415432 0)
(-0.0114524 -0.00403947 0)
(-0.0102967 -0.00390263 0)
(-0.00918047 -0.00374404 0)
(-0.00810932 -0.00356414 0)
(-0.00708885 -0.00336359 0)
(-0.00612439 -0.00314331 0)
(-0.0052209 -0.00290453 0)
(-0.00438296 -0.00264884 0)
(-0.00361461 -0.00237829 0)
(-0.00291928 -0.00209545 0)
(-0.00229964 -0.0018036 0)
(-0.00175748 -0.00150683 0)
(-0.00129355 -0.00121025 0)
(-0.000907367 -0.000920286 0)
(-0.000597084 -0.000644924 0)
(-0.000359275 -0.000394136 0)
(-0.000188714 -0.000180333 0)
(-7.8089e-05 -1.88137e-05 0)
(-1.84597e-05 7.16484e-05 0)
(-1.17966e-07 6.66089e-05 0)
(-3.88715e-06 -4.92668e-05 0)
(-4.23375e-05 4.20697e-06 0)
(-0.000143467 0.000167839 0)
(-0.000311976 0.000408729 0)
(-0.000553851 0.000705339 0)
(-0.000874694 0.00104067 0)
(-0.00127824 0.00140071 0)
(-0.00176655 0.00177413 0)
(-0.0023403 0.00215176 0)
(-0.0029989 0.00252622 0)
(-0.00374066 0.00289161 0)
(-0.00456295 0.00324323 0)
(-0.0054623 0.00357737 0)
(-0.00643456 0.00389114 0)
(-0.007475 0.00418231 0)
(-0.00857845 0.00444919 0)
(-0.00973936 0.00469055 0)
(-0.0109519 0.00490553 0)
(-0.01221 0.00509357 0)
(-0.0135076 0.00525439 0)
(-0.0148382 0.00538788 0)
(-0.0161957 0.00549415 0)
(-0.0175736 0.00557344 0)
(-0.0189658 0.00562612 0)
(-0.0203659 0.00565265 0)
(-0.0217678 0.00565361 0)
(-0.0231656 0.00562962 0)
(-0.0245533 0.00558138 0)
(-0.0259252 0.00550966 0)
(-0.0272758 0.00541524 0)
(-0.0285997 0.00529895 0)
(-0.0298917 0.00516167 0)
(-0.0311468 0.00500429 0)
(-0.0323603 0.00482773 0)
(-0.0335276 0.00463292 0)
(-0.0346444 0.00442082 0)
(-0.0357065 0.0041924 0)
(-0.0367102 0.00394864 0)
(-0.0376518 0.00369055 0)
(-0.0385279 0.00341914 0)
(-0.0393354 0.00313544 0)
(-0.0400714 0.00284048 0)
(-0.0407334 0.00253531 0)
(-0.0413188 0.00222099 0)
(-0.0418257 0.0018986 0)
(-0.0422522 0.00156923 0)
(-0.0425968 0.00123397 0)
(-0.0428581 0.000893951 0)
(-0.0430352 0.000550287 0)
(-0.0431273 0.000204124 0)
(-0.0431339 -0.00014338 0)
(-0.0430549 -0.000491057 0)
(-0.0428904 -0.000837723 0)
(-0.0426409 -0.00118218 0)
(-0.0423069 -0.00152322 0)
(-0.0418897 -0.00185963 0)
(-0.0413903 -0.00219017 0)
(-0.0408105 -0.00251361 0)
(-0.0401522 -0.0028287 0)
(-0.0394175 -0.00313419 0)
(-0.0386089 -0.00342884 0)
(-0.0377294 -0.0037114 0)
(-0.0367819 -0.00398062 0)
(-0.0357699 -0.00423527 0)
(-0.034697 -0.00447413 0)
(-0.0335673 -0.00469599 0)
(-0.0323851 -0.00489966 0)
(-0.0311548 -0.005084 0)
(-0.0298814 -0.00524789 0)
(-0.0285697 -0.00539023 0)
(-0.0272252 -0.00550999 0)
(-0.0258535 -0.00560619 0)
(-0.0244602 -0.00567791 0)
(-0.0230513 -0.00572429 0)
(-0.0216329 -0.00574458 0)
(-0.0202113 -0.00573808 0)
(-0.018793 -0.00570421 0)
(-0.0173844 -0.00564252 0)
(-0.0159921 -0.00555265 0)
(-0.0146228 -0.00543443 0)
(-0.013283 -0.00528782 0)
(-0.0119793 -0.00511297 0)
(-0.0107181 -0.00491027 0)
(-0.00950575 -0.00468031 0)
(-0.00834832 -0.00442401 0)
(-0.0072516 -0.0041426 0)
(-0.00622101 -0.0038377 0)
(-0.00526153 -0.00351138 0)
(-0.00437759 -0.00316627 0)
(-0.00357296 -0.00280568 0)
(-0.00285066 -0.00243369 0)
(-0.00221278 -0.00205538 0)
(-0.00166041 -0.00167698 0)
(-0.00119344 -0.00130618 0)
(-0.000810476 -0.000952415 0)
(-0.000508678 -0.00062726 0)
(-0.000283547 -0.000344874 0)
(-0.000128682 -0.000122451 0)
(-3.71635e-05 1.92379e-05 0)
(-3.22847e-06 5.37084e-05 0)
(-7.17516e-06 -2.37685e-05 0)
(-6.22649e-05 9.02103e-05 0)
(-0.000197637 0.000322855 0)
(-0.000413609 0.000639766 0)
(-0.000713839 0.0010179 0)
(-0.00110275 0.00143865 0)
(-0.0015831 0.00188657 0)
(-0.00215615 0.00234893 0)
(-0.0028219 0.00281528 0)
(-0.00357926 0.0032771 0)
(-0.00442606 0.00372748 0)
(-0.00535924 0.00416085 0)
(-0.00637493 0.00457274 0)
(-0.0074686 0.00495963 0)
(-0.00863511 0.00531877 0)
(-0.00986889 0.00564805 0)
(-0.0111639 0.0059459 0)
(-0.012514 0.0062112 0)
(-0.0139126 0.0064432 0)
(-0.015353 0.00664149 0)
(-0.0168284 0.00680589 0)
(-0.0183322 0.00693649 0)
(-0.0198573 0.00703353 0)
(-0.021397 0.00709743 0)
(-0.0229445 0.00712874 0)
(-0.0244933 0.00712813 0)
(-0.0260367 0.00709636 0)
(-0.0275685 0.00703427 0)
(-0.0290822 0.00694279 0)
(-0.030572 0.0068229 0)
(-0.032032 0.00667562 0)
(-0.0334564 0.00650202 0)
(-0.0348399 0.00630321 0)
(-0.0361772 0.00608033 0)
(-0.0374634 0.00583455 0)
(-0.0386938 0.00556706 0)
(-0.0398638 0.00527908 0)
(-0.0409693 0.00497185 0)
(-0.0420062 0.00464661 0)
(-0.042971 0.00430464 0)
(-0.0438601 0.00394722 0)
(-0.0446705 0.00357566 0)
(-0.0453992 0.00319129 0)
(-0.0460436 0.00279542 0)
(-0.0466016 0.00238943 0)
(-0.047071 0.00197467 0)
(-0.0474502 0.00155253 0)
(-0.0477378 0.00112441 0)
(-0.0479326 0.000691745 0)
(-0.0480339 0.000255956 0)
(-0.0480411 -0.000181498 0)
(-0.0479541 -0.000619144 0)
(-0.047773 -0.0010555 0)
(-0.0474983 -0.00148905 0)
(-0.0471307 -0.00191829 0)
(-0.0466714 -0.00234168 0)
(-0.0461218 -0.00275768 0)
(-0.0454836 -0.00316473 0)
(-0.0447589 -0.00356128 0)
(-0.0439502 -0.00394576 0)
(-0.0430602 -0.00431661 0)
(-0.0420919 -0.00467226 0)
(-0.0410488 -0.00501116 0)
(-0.0399346 -0.00533176 0)
(-0.0387533 -0.00563255 0)
(-0.0375093 -0.00591201 0)
(-0.0362072 -0.00616868 0)
(-0.034852 -0.00640111 0)
(-0.0334489 -0.00660791 0)
(-0.0320035 -0.00678774 0)
(-0.0305216 -0.00693931 0)
(-0.0290091 -0.00706141 0)
(-0.0274723 -0.00715291 0)
(-0.0259177 -0.00721276 0)
(-0.0243521 -0.00724003 0)
(-0.0227821 -0.00723387 0)
(-0.0212147 -0.00719361 0)
(-0.0196571 -0.00711869 0)
(-0.0181163 -0.00700872 0)
(-0.0165995 -0.0068635 0)
(-0.0151138 -0.00668303 0)
(-0.0136663 -0.00646756 0)
(-0.012264 -0.0062176 0)
(-0.0109137 -0.00593395 0)
(-0.00962188 -0.00561778 0)
(-0.00839484 -0.00527066 0)
(-0.00723842 -0.00489463 0)
(-0.00615802 -0.00449229 0)
(-0.00515846 -0.00406688 0)
(-0.0042439 -0.0036224 0)
(-0.00341773 -0.0031638 0)
(-0.00268245 -0.00269709 0)
(-0.00203957 -0.0022296 0)
(-0.0014895 -0.00177021 0)
(-0.00103142 -0.0013297 0)
(-0.000663274 -0.000921045 0)
(-0.000381454 -0.000559928 0)
(-0.000180662 -0.000265091 0)
(-5.6177e-05 -5.88214e-05 0)
(-6.31234e-06 3.10677e-05 0)
(-1.0363e-05 1.19297e-05 0)
(-8.20363e-05 0.000203302 0)
(-0.000251947 0.000519148 0)
(-0.000516094 0.000924251 0)
(-0.000875752 0.00139445 0)
(-0.00133406 0.00190996 0)
(-0.00189264 0.0024541 0)
(-0.00255183 0.00301293 0)
(-0.00331086 0.00357488 0)
(-0.00416799 0.00413039 0)
(-0.0051205 0.00467161 0)
(-0.00616484 0.00519212 0)
(-0.0072967 0.00568675 0)
(-0.00851109 0.00615134 0)
(-0.00980246 0.00658262 0)
(-0.0111648 0.00697804 0)
(-0.0125918 0.0073357 0)
(-0.0140766 0.00765418 0)
(-0.0156123 0.00793257 0)
(-0.0171919 0.00817028 0)
(-0.0188081 0.00836708 0)
(-0.0204535 0.00852299 0)
(-0.022121 0.00863828 0)
(-0.0238031 0.00871341 0)
(-0.0254927 0.008749 0)
(-0.0271827 0.00874583 0)
(-0.0288661 0.0087048 0)
(-0.0305359 0.0086269 0)
(-0.0321856 0.00851323 0)
(-0.0338086 0.00836496 0)
(-0.0353986 0.00818331 0)
(-0.0369495 0.00796959 0)
(-0.0384554 0.00772511 0)
(-0.0399109 0.00745128 0)
(-0.0413104 0.00714949 0)
(-0.042649 0.00682121 0)
(-0.0439217 0.00646791 0)
(-0.045124 0.00609109 0)
(-0.0462518 0.00569228 0)
(-0.0473008 0.00527304 0)
(-0.0482676 0.00483493 0)
(-0.0491486 0.00437954 0)
(-0.0499408 0.0039085 0)
(-0.0506413 0.00342344 0)
(-0.0512478 0.002926 0)
(-0.0517581 0.00241787 0)
(-0.0521703 0.00190074 0)
(-0.0524828 0.00137632 0)
(-0.0526946 0.000846351 0)
(-0.0528047 0.000312594 0)
(-0.0528126 -0.000223174 0)
(-0.0527181 -0.000759155 0)
(-0.0525214 -0.00129353 0)
(-0.0522229 -0.00182446 0)
(-0.0518236 -0.0023501 0)
(-0.0513246 -0.00286856 0)
(-0.0507274 -0.00337798 0)
(-0.0500339 -0.00387644 0)
(-0.0492465 -0.00436206 0)
(-0.0483677 -0.00483293 0)
(-0.0474004 -0.00528713 0)
(-0.046348 -0.00572277 0)
(-0.0452141 -0.00613795 0)
(-0.0440028 -0.0065308 0)
(-0.0427184 -0.00689946 0)
(-0.0413656 -0.00724212 0)
(-0.0399494 -0.00755697 0)
(-0.0384751 -0.00784229 0)
(-0.0369485 -0.00809638 0)
(-0.0353753 -0.00831763 0)
(-0.033762 -0.00850447 0)
(-0.0321148 -0.00865546 0)
(-0.0304406 -0.00876924 0)
(-0.0287463 -0.00884455 0)
(-0.0270391 -0.00888027 0)
(-0.0253263 -0.00887543 0)
(-0.0236152 -0.00882921 0)
(-0.0219136 -0.00874098 0)
(-0.020229 -0.00861029 0)
(-0.0185691 -0.00843695 0)
(-0.0169415 -0.008221 0)
(-0.0153538 -0.00796277 0)
(-0.0138134 -0.00766292 0)
(-0.0123276 -0.00732248 0)
(-0.0109035 -0.0069429 0)
(-0.00954762 -0.00652609 0)
(-0.00826634 -0.00607454 0)
(-0.00706548 -0.00559136 0)
(-0.00595025 -0.00508041 0)
(-0.00492526 -0.00454643 0)
(-0.00399434 -0.00399515 0)
(-0.00316045 -0.00343354 0)
(-0.00242563 -0.00286992 0)
(-0.00179089 -0.00231431 0)
(-0.00125615 -0.00177866 0)
(-0.000820208 -0.0012772 0)
(-0.000480516 -0.000826878 0)
(-0.000232975 -0.000447661 0)
(-7.51235e-05 -0.000162941 0)
(-9.31805e-06 -1.30939e-06 0)
(-1.34231e-05 5.76293e-05 0)
(-0.000101442 0.000343386 0)
(-0.000305741 0.000756924 0)
(-0.000618179 0.00126269 0)
(-0.00103765 0.0018358 0)
(-0.00156594 0.00245558 0)
(-0.0022035 0.00310433 0)
(-0.00294962 0.00376714 0)
(-0.00380268 0.00443144 0)
(-0.00476019 0.00508675 0)
(-0.00581881 0.00572435 0)
(-0.00697443 0.00633705 0)
(-0.00822221 0.00691899 0)
(-0.00955672 0.00746541 0)
(-0.010972 0.00797253 0)
(-0.0124615 0.00843737 0)
(-0.0140185 0.00885768 0)
(-0.0156358 0.00923179 0)
(-0.0173061 0.00955854 0)
(-0.0190217 0.00983723 0)
(-0.0207752 0.0100675 0)
(-0.0225586 0.0102494 0)
(-0.0243643 0.0103831 0)
(-0.0261846 0.0104692 0)
(-0.0280117 0.0105084 0)
(-0.0298382 0.0105015 0)
(-0.0316566 0.0104496 0)
(-0.0334595 0.0103538 0)
(-0.0352399 0.0102154 0)
(-0.036991 0.0100359 0)
(-0.0387058 0.00981651 0)
(-0.0403781 0.00955891 0)
(-0.0420015 0.00926463 0)
(-0.04357 0.00893532 0)
(-0.0450781 0.00857265 0)
(-0.0465201 0.00817835 0)
(-0.047891 0.00775417 0)
(-0.049186 0.00730191 0)
(-0.0504003 0.00682338 0)
(-0.0515299 0.00632045 0)
(-0.0525708 0.00579498 0)
(-0.0535193 0.00524887 0)
(-0.0543721 0.00468407 0)
(-0.0551262 0.00410252 0)
(-0.0557791 0.00350619 0)
(-0.0563284 0.00289709 0)
(-0.0567721 0.00227726 0)
(-0.0571086 0.00164873 0)
(-0.0573367 0.0010136 0)
(-0.0574554 0.000373953 0)
(-0.0574641 -0.000268075 0)
(-0.0573627 -0.000910333 0)
(-0.0571513 -0.00155065 0)
(-0.0568305 -0.00218683 0)
(-0.0564011 -0.00281666 0)
(-0.0558644 -0.0034379 0)
(-0.0552221 -0.00404831 0)
(-0.0544762 -0.00464562 0)
(-0.0536291 -0.00522757 0)
(-0.0526836 -0.00579189 0)
(-0.0516428 -0.00633629 0)
(-0.0505103 -0.00685852 0)
(-0.0492899 -0.00735633 0)
(-0.047986 -0.00782748 0)
(-0.0466032 -0.00826977 0)
(-0.0451465 -0.00868103 0)
(-0.0436212 -0.00905914 0)
(-0.042033 -0.00940203 0)
(-0.040388 -0.00970772 0)
(-0.0386923 -0.00997427 0)
(-0.0369528 -0.0101999 0)
(-0.0351762 -0.0103828 0)
(-0.0333697 -0.0105214 0)