/*--------------------------------*- C++ -*----------------------------------*\
  =========                 |
  \\      /  F ield         | OpenFOAM: The Open Source CFD Toolbox
   \\    /   O peration     | Website:  https://openfoam.org
    \\  /    A nd           | Version:  11
     \\/     M anipulation  |
\*---------------------------------------------------------------------------*/
FoamFile
{
    format      ascii;
    class       volScalarField;
    location    "2.2";
    object      p;
}
// * * * * * * * * * * * * * * * * * * * * * * * * * * * * * * * * * * * * * //

dimensions      [0 2 -2 0 0 0 0];

internalField   nonuniform List<scalar> 
10100
(
-3.15228e-07
-2.40319e-05
-0.000411763
-0.0012808
-0.0024792
-0.00386553
-0.00535558
-0.00689586
-0.00843708
-0.00994358
-0.0113839
-0.0127282
-0.0139565
-0.0150553
-0.0160097
-0.0168109
-0.0174575
-0.0179421
-0.0182614
-0.0184171
-0.0184073
-0.0182317
-0.0178941
-0.0173987
-0.016747
-0.0159386
-0.0149739
-0.013856
-0.0125894
-0.0111793
-0.00963206
-0.00795444
-0.0061521
-0.00422866
-0.00218969
-4.41721e-05
0.00219969
0.00453662
0.00696337
0.00947619
0.0120688
0.0147348
0.0174684
0.0202631
0.0231112
0.0260052
0.0289387
0.0319062
0.0349016
0.0379164
0.0409409
0.0439665
0.0469854
0.0499893
0.0529686
0.0559129
0.058813
0.0616624
0.0644564
0.0671883
0.0698478
0.0724235
0.0749065
0.0772905
0.0795706
0.0817414
0.0837966
0.0857284
0.087529
0.0891927
0.0907161
0.0920965
0.0933303
0.0944145
0.0953481
0.0961319
0.0967669
0.0972535
0.0975927
0.097788
0.097844
0.0977656
0.0975564
0.0972194
0.0967566
0.0961706
0.0954659
0.0946515
0.0937427
0.0927588
0.0917209
0.0906506
0.0895725
0.0885171
0.0875233
0.0866382
0.0859138
0.0854072
0.0851788
0.0852332
-6.82722e-05
-0.000370923
-0.000885814
-0.00171453
-0.00277151
-0.00395917
-0.00522828
-0.0065382
-0.00785752
-0.00915548
-0.0104009
-0.0115693
-0.0126406
-0.0135963
-0.0144249
-0.0151202
-0.0156733
-0.0160805
-0.0163391
-0.0164459
-0.0164005
-0.0162019
-0.0158514
-0.0153522
-0.0147058
-0.0139137
-0.0129773
-0.0118981
-0.0106771
-0.00931676
-0.00782338
-0.00620529
-0.0044685
-0.00261658
-0.00065406
0.00141136
0.00357223
0.00582444
0.00816436
0.0105869
0.013087
0.0156595
0.0182977
0.0209938
0.0237401
0.0265296
0.0293575
0.0322193
0.0351079
0.0380129
0.0409258
0.0438399
0.0467479
0.0496407
0.0525085
0.0553414
0.0581313
0.0608737
0.0635644
0.0661956
0.0687555
0.0712333
0.0736224
0.0759181
0.0781149
0.0802066
0.0821869
0.084049
0.0857866
0.0873945
0.0888696
0.0902093
0.0914105
0.0924705
0.0933888
0.0941666
0.0948047
0.0953029
0.0956616
0.0958842
0.0959764
0.0959442
0.0957919
0.0955221
0.0951362
0.094637
0.0940301
0.0933261
0.0925404
0.0916908
0.0907961
0.0898754
0.0889509
0.08805
0.0872071
0.0864616
0.0858531
0.0854228
0.0852229
0.0852769
2.04014e-05
-0.000459148
-0.00105339
-0.00186559
-0.00283794
-0.00390572
-0.00503223
-0.00618961
-0.00735551
-0.0084988
-0.00959893
-0.010635
-0.0115822
-0.0124272
-0.0131585
-0.0137665
-0.0142457
-0.0145904
-0.0147968
-0.0148635
-0.0147885
-0.0145705
-0.0142106
-0.0137092
-0.0130664
-0.0122854
-0.0113696
-0.010319
-0.009133
-0.00781312
-0.00636443
-0.00479443
-0.00310901
-0.00131294
0.000588211
0.0025886
0.00468268
0.0068663
0.00913565
0.0114849
0.0139091
0.0164046
0.0189651
0.0215805
0.0242423
0.026946
0.0296881
0.0324641
0.0352659
0.0380828
0.0409058
0.0437296
0.0465484
0.0493525
0.0521302
0.0548723
0.0575734
0.0602302
0.0628378
0.0653871
0.0678665
0.070266
0.0725801
0.0748052
0.0769359
0.0789655
0.0808868
0.0826938
0.0843815
0.085946
0.0873838
0.0886915
0.0898663
0.0909065
0.0918126
0.0925859
0.0932269
0.0937344
0.0941086
0.0943526
0.0944731
0.0944769
0.0943682
0.0941487
0.0938198
0.093385
0.0928519
0.092232
0.0915393
0.0907893
0.0899975
0.0891809
0.0883595
0.0875591
0.0868106
0.0861474
0.0856013
0.0852047
0.0850043
0.0850298
0.000163611
-0.000421721
-0.00106883
-0.00185918
-0.00277342
-0.00375917
-0.00478804
-0.00584263
-0.00689636
-0.00792843
-0.00891986
-0.00984848
-0.0106985
-0.0114544
-0.0121059
-0.0126433
-0.0130609
-0.0133534
-0.0135163
-0.0135477
-0.0134457
-0.0132106
-0.0128425
-0.0123399
-0.0117022
-0.0109319
-0.0100312
-0.00900061
-0.00784061
-0.00655378
-0.00514369
-0.00361536
-0.00197351
-0.000223258
0.00162773
0.00357344
0.00561134
0.00773794
0.00994766
0.0122349
0.0145954
0.0170253
0.0195184
0.0220646
0.0246552
0.0272861
0.0299558
0.0326596
0.0353876
0.0381292
0.0408774
0.0436269
0.0463707
0.0490986
0.0518003
0.0544676
0.0570955
0.0596806
0.0622181
0.0646989
0.0671111
0.0694457
0.0716983
0.0738657
0.0759423
0.0779205
0.0797933
0.0815557
0.0832038
0.0847335
0.0861409
0.0874224
0.0885756
0.0896
0.090497
0.0912677
0.0919116
0.0924268
0.0928132
0.0930746
0.093218
0.0932502
0.0931745
0.0929923
0.0927054
0.0923193
0.091843
0.0912876
0.0906649
0.0899869
0.0892668
0.0885197
0.0877649
0.0870262
0.0863312
0.0857089
0.0851855
0.0847876
0.0845517
0.0845016
0.000398277
-0.000267838
-0.000955586
-0.00173789
-0.00261058
-0.00353422
-0.00449046
-0.00546171
-0.00643016
-0.0073751
-0.0082763
-0.00911829
-0.00988635
-0.0105667
-0.0111488
-0.0116253
-0.0119889
-0.0122348
-0.0123596
-0.0123597
-0.0122336
-0.0119818
-0.0116035
-0.0110976
-0.0104649
-0.00970573
-0.00881963
-0.00780633
-0.00666805
-0.00540924
-0.00403306
-0.00254198
-0.000940119
0.000767049
0.00257254
0.0044701
0.00645705
0.00853098
0.010686
0.012916
0.015218
0.0175881
0.0200178
0.0224975
0.0250217
0.0275873
0.0301911
0.032827
0.0354862
0.0381595
0.0408397
0.0435211
0.0461959
0.048854
0.0514859
0.0540852
0.0566476
0.0591687
0.0616424
0.0640596
0.0664104
0.0686872
0.0708855
0.0730015
0.0750288
0.07696
0.0787892
0.0805126
0.0821261
0.0836252
0.085005
0.0862623
0.0873958
0.0884065
0.0892961
0.090065
0.090711
0.091232
0.0916282
0.0919046
0.0920681
0.0921243
0.092076
0.0919245
0.0916731
0.0913289
0.0909011
0.0903991
0.0898319
0.0892091
0.0885422
0.0878456
0.0871374
0.086439
0.0857745
0.0851684
0.0846427
0.0842192
0.0839188
0.0837538
0.000756243
1.96506e-05
-0.000711321
-0.00149841
-0.00235
-0.00323715
-0.00414166
-0.00505111
-0.00595361
-0.00682992
-0.00766158
-0.00843604
-0.00913847
-0.00975712
-0.010282
-0.0107072
-0.0110259
-0.011232
-0.0113232
-0.011297
-0.0111518
-0.0108858
-0.0104976
-0.00998785
-0.00935797
-0.00860698
-0.00773297
-0.00673623
-0.00561887
-0.00438433
-0.00303614
-0.00157707
-1.09202e-05
0.00165668
0.00342043
0.0052759
0.00721841
0.00924375
0.0113483
0.0135277
0.0157772
0.0180916
0.0204625
0.0228818
0.025345
0.0278505
0.0303944
0.0329692
0.0355658
0.0381764
0.040795
0.0434151
0.0460272
0.0486215
0.0511904
0.0537292
0.0562336
0.0586974
0.0611133
0.0634729
0.0657685
0.067994
0.0701444
0.0722145
0.0741973
0.0760862
0.0778768
0.0795662
0.0811503
0.0826226
0.0839775
0.0852126
0.0863287
0.0873279
0.0882114
0.0889781
0.0896249
0.0901498
0.0905543
0.0908436
0.091024
0.0911003
0.0910746
0.090949
0.090728
0.090419
0.0900302
0.0895692
0.0890428
0.088459
0.0878289
0.0871664
0.0864883
0.085813
0.0851599
0.0845486
0.0839985
0.0835282
0.0831419
0.0828376
0.00122897
0.000416132
-0.00036189
-0.00116428
-0.00201419
-0.00288326
-0.00375741
-0.00462728
-0.00548217
-0.00630641
-0.00708558
-0.00780721
-0.00845882
-0.00902802
-0.00950781
-0.00989111
-0.0101722
-0.010346
-0.010409
-0.0103602
-0.0101984
-0.00992042
-0.00952514
-0.00901334
-0.00838501
-0.00763872
-0.00677337
-0.00579055
-0.00469253
-0.00347993
-0.00215515
-0.000723553
0.000810589
0.0024439
0.00417157
0.00598889
0.0078917
0.00987533
0.0119356
0.0140692
0.0162717
0.0185361
0.0208536
0.0232182
0.0256276
0.0280798
0.0305694
0.0330886
0.0356292
0.0381845
0.0407481
0.0433121
0.0458673
0.0484049
0.0509187
0.0534046
0.0558573
0.0582697
0.0606337
0.0629424
0.0651897
0.06737
0.0694778
0.0715065
0.0734494
0.0753011
0.0770588
0.0787195
0.080278
0.0817266
0.0830594
0.0842754
0.0853771
0.0863668
0.0872445
0.0880078
0.0886538
0.0891814
0.0895927
0.0898929
0.0900874
0.0901804
0.0901738
0.0900698
0.0898735
0.0895917
0.0892317
0.0887992
0.0882999
0.0877406
0.0871321
0.0864888
0.0858261
0.085159
0.0845015
0.0838678
0.0832747
0.0827402
0.0822527
0.0817961
0.00179073
0.000896813
6.3286e-05
-0.000768826
-0.00162742
-0.00249259
-0.00335395
-0.0042016
-0.00502491
-0.00581283
-0.00655362
-0.00723497
-0.00784688
-0.00837827
-0.00882154
-0.00917125
-0.00942187
-0.00956923
-0.00961
-0.00954285
-0.00936568
-0.00907648
-0.00867585
-0.00816329
-0.00753574
-0.00679236
-0.00593441
-0.00496293
-0.00387965
-0.00268585
-0.00138274
2.50417e-05
0.00153181
0.00313483
0.00483135
0.00661604
0.00848342
0.01043
0.0124528
0.0145473
0.0167074
0.0189256
0.0211954
0.0235127
0.0258752
0.0282797
0.0307203
0.0331897
0.0356811
0.0381877
0.0407019
0.0432151
0.0457188
0.0482065
0.0506728
0.0531128
0.0555198
0.0578857
0.0602033
0.0624674
0.0646731
0.0668142
0.0688837
0.0708746
0.0727818
0.0746017
0.0763318
0.0779684
0.0795044
0.0809317
0.0822452
0.0834454
0.0845353
0.0855167
0.0863884
0.0871474
0.0877913
0.0883202
0.0887368
0.0890459
0.0892523
0.0893592
0.0893682
0.0892814
0.0891032
0.0888403
0.088499
0.0880844
0.0876009
0.087055
0.0864567
0.0858199
0.0851588
0.0844856
0.0838098
0.0831405
0.082492
0.0818815
0.0812841
0.0806698
0.00241889
0.00143411
0.00053613
-0.000330859
-0.00121228
-0.0020868
-0.00294695
-0.00378443
-0.00459035
-0.00535629
-0.00607038
-0.0067224
-0.00730404
-0.0078071
-0.00822208
-0.00854483
-0.0087709
-0.00889692
-0.00892036
-0.00883809
-0.00864793
-0.00834994
-0.00794417
-0.00742896
-0.00680145
-0.00606072
-0.00520886
-0.00424706
-0.00317529
-0.00199542
-0.000711107
0.00067394
0.00215695
0.00373547
0.00540527
0.00716073
0.0089975
0.0109131
0.0129042
0.0149647
0.0170868
0.0192641
0.0214924
0.023769
0.0260908
0.0284533
0.0308505
0.0332763
0.0357246
0.0381885
0.0406588
0.0431264
0.0455846
0.0480292
0.0504551
0.0528555
0.0552221
0.0575466
0.0598237
0.0620497
0.0642199
0.0663268
0.0683618
0.0703188
0.0721949
0.073988
0.0756953
0.077311
0.0788272
0.0802357
0.0815329
0.0827198
0.0837997
0.0847737
0.0856395
0.0863937
0.0870346
0.0875635
0.0879839
0.0882999
0.0885156
0.0886332
0.0886538
0.0885791
0.0884131
0.0881616
0.0878306
0.0874244
0.0869475
0.0864058
0.0858089
0.0851688
0.0844975
0.0838051
0.0830982
0.0823829
0.081671
0.0809786
0.0802678
0.0794961
0.00308421
0.00200421
0.00104189
0.000130079
-0.000784581
-0.00167934
-0.00254838
-0.00338684
-0.00418801
-0.00494256
-0.00564031
-0.00627293
-0.00683335
-0.00731471
-0.00770932
-0.00801163
-0.00821877
-0.00832792
-0.00833687
-0.00824199
-0.00804168
-0.00773733
-0.00732705
-0.00680716
-0.00617772
-0.00543995
-0.0045934
-0.00363782
-0.00257482
-0.0014074
-0.000139071
0.00122716
0.00268981
0.00424705
0.00589407
0.00762502
0.0094365
0.0113266
0.0132909
0.0153215
0.0174104
0.0195528
0.0217464
0.0239887
0.0262755
0.0286013
0.030961
0.0333498
0.0357616
0.0381883
0.0406197
0.0430475
0.0454671
0.0478757
0.0502675
0.0526336
0.0549647
0.0572538
0.0594969
0.0616913
0.0638314
0.0659081
0.0679128
0.0698406
0.0716906
0.0734615
0.0751495
0.0767472
0.0782458
0.0796381
0.0809213
0.0820972
0.0831688
0.0841364
0.0849965
0.0857459
0.0863836
0.0869121
0.087335
0.087656
0.0878775
0.0880011
0.0880279
0.0879602
0.0878014
0.0875565
0.0872301
0.0868257
0.0863472
0.0858013
0.0851971
0.0845448
0.083854
0.0831322
0.0823847
0.0816156
0.0808352
0.0800582
0.0792339
0.078308
0.00376431
0.00258906
0.00155797
0.000595875
-0.000356739
-0.00128095
-0.00217007
-0.00301994
-0.00382446
-0.00457658
-0.00526787
-0.00588997
-0.0064374
-0.00690352
-0.00728324
-0.0075713
-0.00776557
-0.00786221
-0.0078582
-0.00775322
-0.00754651
-0.0072361
-0.00681999
-0.00629652
-0.00566567
-0.00492842
-0.00408449
-0.00313348
-0.00207762
-0.00092085
0.000333823
0.00168471
0.00313083
0.00467007
0.0062977
0.00800868
0.00980039
0.0116702
0.0136118
0.0156164
0.0176772
0.0197914
0.0219573
0.0241714
0.0264281
0.0287226
0.0310515
0.0334104
0.0357919
0.0381864
0.040584
0.0429783
0.0453668
0.0477464
0.0501095
0.0524457
0.0547465
0.0570064
0.0592225
0.0613913
0.0635059
0.0655566
0.0675351
0.0694387
0.0712677
0.0730208
0.0746926
0.0762745
0.0777575
0.0791357
0.0804075
0.0815749
0.0826401
0.0836022
0.0844573
0.0852024
0.0858377
0.086366
0.0867908
0.0871142
0.0873376
0.0874622
0.08749
0.0874243
0.0872689
0.0870273
0.0867021
0.0862952
0.0858095
0.0852517
0.0846314
0.0839583
0.0832401
0.0824822
0.0816878
0.0808601
0.0800081
0.0791456
0.0782092
0.077134
0.00444653
0.00317152
0.00206592
0.00105393
5.6695e-05
-0.000905311
-0.00182228
-0.00269139
-0.0035074
-0.00426474
-0.00495687
-0.00557679
-0.00611806
-0.00657578
-0.00694617
-0.00722576
-0.00741091
-0.00749831
-0.0074856
-0.00737337
-0.00716105
-0.00684477
-0.00642281
-0.00589622
-0.00526467
-0.00452661
-0.00368214
-0.00273349
-0.00168406
-0.000536773
0.000706956
0.00204615
0.00347923
0.00500357
0.00661538
0.0083112
0.0100884
0.0119423
0.0138649
0.0158477
0.0178863
0.019979
0.0221234
0.0243143
0.0265461
0.0288155
0.0311208
0.0334564
0.035813
0.0381802
0.0405498
0.0429175
0.0452817
0.0476382
0.0499773
0.0522882
0.0545639
0.0568009
0.0589963
0.061145
0.0632386
0.0652672
0.0672241
0.0691086
0.0709218
0.0726613
0.0743195
0.0758872
0.0773565
0.0787232
0.0799864
0.081148
0.0822087
0.0831667
0.0840181
0.0847605
0.0853947
0.0859232
0.0863485
0.0866714
0.0868927
0.0870144
0.0870398
0.0869733
0.0868184
0.0865774
0.0862504
0.0858373
0.0853397
0.084764
0.0841205
0.0834196
0.0826681
0.0818692
0.081024
0.0801342
0.079209
0.0782611
0.0772151
0.0759961
0.00511597
0.00373754
0.00255715
0.00148881
0.000442903
-0.000561639
-0.0015136
-0.00240885
-0.00324387
-0.00401379
-0.00471321
-0.00533678
-0.00587831
-0.00633438
-0.00670137
-0.00697688
-0.00715618
-0.00723711
-0.00722004
-0.00710395
-0.00688555
-0.00656287
-0.00613689
-0.00560806
-0.00497412
-0.0042332
-0.00338714
-0.00244024
-0.00139603
-0.000255805
0.0009802
0.00231062
0.00373322
0.00524601
0.00684675
0.00853248
0.0102991
0.0121402
0.0140474
0.016014
0.018037
0.0201142
0.0222417
0.0244141
0.0266267
0.0288782
0.0311666
0.0334846
0.0358209
0.0381661
0.0405141
0.0428621
0.0452082
0.0475462
0.0498654
0.0521557
0.0544123
0.0566327
0.058813
0.060946
0.0630225
0.0650335
0.0669743
0.0688453
0.0706477
0.072377
0.0740241
0.0755795
0.0770375
0.0783956
0.0796535
0.0808116
0.0818695
0.082825
0.0836748
0.084417
0.0850518
0.0855807
0.0860044
0.0863233
0.0865391
0.0866555
0.0866776
0.0866096
0.0864539
0.0862105
0.0858777
0.0854537
0.0849396
0.0843414
0.0836701
0.0829368
0.0821482
0.081305
0.0804059
0.0794517
0.0784523
0.0774197
0.076267
0.0749103
0.00575807
0.00427806
0.00301803
0.00188942
0.000791005
-0.000260207
-0.00125174
-0.00217961
-0.00304032
-0.00382955
-0.00454271
-0.00517479
-0.00572278
-0.00618325
-0.00655206
-0.00682598
-0.00700317
-0.00708258
-0.00706346
-0.0069435
-0.00672003
-0.00639337
-0.00596476
-0.00543241
-0.00479351
-0.00404855
-0.00320139
-0.0022561
-0.00121488
-7.83388e-05
0.00115281
0.0024766
0.00389137
0.00539681
0.00699159
0.00867157
0.0104306
0.0122618
0.0141581
0.0161146
0.0181281
0.0201945
0.0223092
0.0244678
0.0266679
0.0289087
0.0311863
0.0334911
0.0358117
0.0381406
0.040474
0.0428092
0.0451425
0.047466
0.0497692
0.0520443
0.0542883
0.0564985
0.0586685
0.0607897
0.0628531
0.0648517
0.0667826
0.0686462
0.0704422
0.0721643
0.0738026
0.0753488
0.0767991
0.0781524
0.0794077
0.0805641
0.0816205
0.0825752
0.0834257
0.08417
0.0848072
0.0853364
0.0857571
0.0860697
0.0862778
0.0863879
0.0864063
0.0863366
0.0861787
0.0859298
0.0855863
0.0851463
0.0846114
0.083988
0.0832867
0.0825186
0.0816894
0.0807986
0.0798428
0.0788225
0.0777485
0.0766325
0.0753766
0.0738887
0.0063638
0.00478135
0.00343863
0.00224559
0.00109092
-1.04442e-05
-0.00104616
-0.00201169
-0.00290312
-0.00371693
-0.0044495
-0.00509673
-0.00565651
-0.00612513
-0.00649943
-0.00677614
-0.00695535
-0.00703637
-0.0070162
-0.00689267
-0.0066663
-0.00633824
-0.00590689
-0.00536892
-0.00472381
-0.00397515
-0.00312717
-0.00218211
-0.00114104
-5.30216e-06
0.00122317
0.00254264
0.00395321
0.00545603
0.00704925
0.00872661
0.0104808
0.0123059
0.0141968
0.016149
0.0181577
0.0202171
0.0223232
0.0244742
0.0266691
0.0289054
0.0311769
0.0334727
0.0357827
0.0381022
0.0404284
0.0427569
0.0450816
0.0473946
0.049687
0.0519533
0.0541915
0.056397
0.058561
0.0606741
0.0627293
0.064722
0.0666497
0.0685115
0.0703047
0.0720223
0.073655
0.0751961
0.0766434
0.0779959
0.0792515
0.080408
0.0814644
0.0824198
0.0832729
0.084021
0.0846611
0.0851905
0.0856078
0.0859142
0.0861152
0.086219
0.0862331
0.0861601
0.0859971
0.0857385
0.0853797
0.0849192
0.0843604
0.0837107
0.0829792
0.0821746
0.0813013
0.0803585
0.0793429
0.0782552
0.0771068
0.0759093
0.0745535
0.0729406
0.00692303
0.00523529
0.00381032
0.00255006
0.00133516
0.000179179
-0.000904861
-0.0019116
-0.0028382
-0.00368169
-0.0044385
-0.00510659
-0.00568237
-0.00616267
-0.0065454
-0.00682977
-0.00701505
-0.00709871
-0.00707821
-0.00695387
-0.00672745
-0.006398
-0.00596193
-0.00541753
-0.00476742
-0.00401602
-0.00316598
-0.00221827
-0.00117472
-3.8161e-05
0.00118942
0.00250796
0.00391917
0.00542394
0.00701862
0.00869562
0.0104484
0.0122729
0.0141644
0.0161169
0.0181237
0.0201798
0.0222831
0.0244339
0.0266302
0.0288669
0.031136
0.0334273
0.0357335
0.0380513
0.040377
0.0427036
0.0450238
0.0473312
0.0496195
0.0518844
0.0541228
0.0563281
0.05849
0.0605997
0.0626528
0.0646462
0.066577
0.0684415
0.0702355
0.071952
0.0735833
0.0751245
0.0765736
0.0779289
0.0791871
0.0803456
0.081404
0.0823627
0.0832203
0.0839729
0.0846159
0.0851453
0.0855598
0.0858619
0.0860582
0.0861573
0.0861663
0.0860864
0.0859135
0.0856407
0.085263
0.0847798
0.0841959
0.083519
0.0827562
0.0819128
0.0809914
0.0799923
0.0789142
0.0777582
0.0765361
0.0752584
0.0738058
0.0720728
0.00742242
0.00563327
0.00412457
0.00279435
0.00151597
0.000303012
-0.000832649
-0.00188538
-0.00285132
-0.00372859
-0.00451482
-0.00520747
-0.00580234
-0.00629807
-0.00669386
-0.00698946
-0.0071821
-0.00726919
-0.00725127
-0.00713003
-0.00690457
-0.00657157
-0.00612943
-0.00558014
-0.00492704
-0.00417239
-0.00331742
-0.0023643
-0.0013169
-0.000178422
0.00105097
0.00237328
0.00379003
0.00530007
0.00689827
0.00857778
0.0103341
0.0121637
0.0140607
0.0160166
0.018025
0.0200828
0.0221905
0.024348
0.0265508
0.0287914
0.0310622
0.0333551
0.0356649
0.0379883
0.0403189
0.0426477
0.0449682
0.0472764
0.049568
0.0518384
0.0540823
0.0562912
0.058455
0.0605669
0.0626245
0.0646249
0.0665633
0.0684343
0.0702327
0.0719526
0.073588
0.0751349
0.0765906
0.077952
0.0792149
0.0803772
0.0814397
0.0824041
0.0832682
0.0840266
0.0846728
0.0852027
0.0856157
0.0859158
0.0861102
0.0862064
0.0862093
0.0861188
0.0859307
0.0856394
0.0852408
0.0847348
0.0841258
0.0834201
0.082623
0.0817367
0.0807631
0.0797046
0.0785624
0.077338
0.0760426
0.0746854
0.0731376
0.0712878
0.00785972
0.00596645
0.00437315
0.00297192
0.00162706
0.000354043
-0.000835517
-0.0019377
-0.00294766
-0.00386288
-0.00468199
-0.00540139
-0.00601934
-0.00653503
-0.00694781
-0.00725585
-0.00745652
-0.00754999
-0.00753847
-0.00742155
-0.00719533
-0.00685774
-0.00641132
-0.00585944
-0.00520312
-0.00444252
-0.00358004
-0.00262052
-0.00156866
-0.000425865
0.000809822
0.00214054
0.00356598
0.00508334
0.0066879
0.0083746
0.0101399
0.0119794
0.0138848
0.0158472
0.0178619
0.0199281
0.0220471
0.0242166
0.0264294
0.0286775
0.0309551
0.0332567
0.0355774
0.037912
0.0402518
0.0425872
0.0449138
0.0472301
0.0495322
0.0518137
0.0540671
0.0562835
0.0584543
0.0605749
0.0626434
0.064656
0.0666058
0.0684861
0.0702927
0.0720213
0.0736668
0.0752249
0.0766918
0.0780625
0.0793327
0.0805011
0.0815701
0.0825421
0.0834142
0.0841794
0.08483
0.085362
0.0857758
0.0860763
0.0862703
0.0863639
0.0863595
0.0862558
0.0860494
0.0857368
0.085316
0.0847872
0.0841523
0.0834151
0.0825788
0.0816451
0.0806165
0.0794973
0.0782907
0.0769978
0.0756288
0.0741918
0.0725494
0.070585
0.00823057
0.00622974
0.00455059
0.00307645
0.00166287
0.000326052
-0.000920103
-0.00207415
-0.00313188
-0.00408873
-0.00494271
-0.00569224
-0.00633756
-0.00687663
-0.00730759
-0.00762882
-0.00784066
-0.00794458
-0.00794054
-0.00782567
-0.00759733
-0.00725733
-0.00680966
-0.00625518
-0.00559262
-0.00482343
-0.00395299
-0.00298717
-0.0019289
-0.000777452
0.000469205
0.00181138
0.00324716
0.00477404
0.00638916
0.00808856
0.0098676
0.0117197
0.0136358
0.0156086
0.0176358
0.0197176
0.0218534
0.0240383
0.0262639
0.0285237
0.0308145
0.0331319
0.0354693
0.0378193
0.0401721
0.0425194
0.044859
0.0471907
0.0495094
0.0518065
0.0540734
0.0563021
0.0584859
0.0606217
0.0627072
0.0647366
0.0667011
0.0685945
0.0704139
0.0721566
0.0738178
0.075392
0.0768737
0.0782573
0.0795383
0.0807163
0.0817949
0.0827763
0.0836573
0.0844298
0.0850859
0.085622
0.0860393
0.0863422
0.0865364
0.0866262
0.086613
0.086495
0.0862695
0.085935
0.0854912
0.0849377
0.0842741
0.0835011
0.082621
0.0816366
0.080552
0.0793723
0.0781011
0.076739
0.0752953
0.0737777
0.0720407
0.0699634
0.00852769
0.0064185
0.00465042
0.00310152
0.0016177
0.000214213
-0.00109282
-0.00230157
-0.00340855
-0.00440927
-0.00530147
-0.00608579
-0.00676086
-0.00732402
-0.0077737
-0.00811092
-0.00833772
-0.00845325
-0.00845455
-0.00834006
-0.00811147
-0.0077722
-0.0073235
-0.00676348
-0.00609199
-0.00531389
-0.00443607
-0.00346267
-0.0023941
-0.00122942
3.12697e-05
0.00138637
0.00283422
0.00437425
0.00600497
0.00772151
0.00951696
0.0113836
0.0133136
0.0153023
0.0173488
0.0194518
0.0216078
0.0238105
0.0260523
0.0283293
0.03064
0.0329791
0.0353376
0.0377065
0.0400767
0.0424421
0.044802
0.0471557
0.0494962
0.0518133
0.0540986
0.0563457
0.0585496
0.0607071
0.0628148
0.0648651
0.0668486
0.0687598
0.0705977
0.0723605
0.0740427
0.075637
0.0771368
0.0785365
0.0798323
0.0810246
0.0821168
0.0831103
0.0840012
0.0847812
0.0854432
0.0859848
0.0864075
0.0867145
0.0869092
0.0869944
0.0869711
0.0868383
0.0865942
0.086238
0.0857696
0.0851881
0.0844913
0.0836783
0.0827514
0.081715
0.0805743
0.0793342
0.0779979
0.0765651
0.0750451
0.0734456
0.0716145
0.0694259
0.00874571
0.00652527
0.00466574
0.00304024
0.00148379
1.08997e-05
-0.00136023
-0.00262555
-0.00378311
-0.00483032
-0.00576494
-0.00658607
-0.00729109
-0.00787893
-0.00834999
-0.00870648
-0.00894858
-0.00907319
-0.00907841
-0.00896635
-0.00874058
-0.00840219
-0.00794938
-0.00738109
-0.00670068
-0.00591483
-0.00502872
-0.00404396
-0.00296069
-0.00178006
-0.000504243
0.000865292
0.00232873
0.00388681
0.00553732
0.00727328
0.0090865
0.0109703
0.0129194
0.0149305
0.0170019
0.0191295
0.0213078
0.0235311
0.0257941
0.0280947
0.0304314
0.0327966
0.0351796
0.0375712
0.0399644
0.0423549
0.044742
0.0471234
0.0494902
0.0518321
0.0541419
0.0564149
0.0586466
0.0608326
0.0629676
0.0650431
0.0670502
0.068985
0.0708476
0.0726363
0.0743443
0.0759625
0.0774839
0.0789035
0.0802186
0.08143
0.0825402
0.0835491
0.0844516
0.0852399
0.0859085
0.0864562
0.0868851
0.087197
0.0873926
0.0874732
0.0874397
0.0872924
0.0870301
0.0866514
0.0861557
0.0855418
0.0848076
0.0839521
0.0829777
0.0818894
0.0806925
0.0793913
0.0779881
0.0764827
0.0748847
0.0732025
0.0712779
0.0689791
0.00887688
0.00654344
0.00458971
0.002883
0.00125166
-0.000291615
-0.00172793
-0.00305216
-0.00426347
-0.00535965
-0.0063381
-0.00719548
-0.00793114
-0.00854613
-0.00904147
-0.00941747
-0.00967225
-0.00980422
-0.00981515
-0.00970873
-0.00948613
-0.00914544
-0.00868567
-0.00810935
-0.00742171
-0.00662763
-0.00572961
-0.00472905
-0.00362844
-0.00243108
-0.00113898
0.000248304
0.00173222
0.00331263
0.00498516
0.00674157
0.00857468
0.0104803
0.0124548
0.0144943
0.0165942
0.0187483
0.0209513
0.0231995
0.0254897
0.0278201
0.0301873
0.0325819
0.0349928
0.0374123
0.0398352
0.0422577
0.0446779
0.0470916
0.0494892
0.0518613
0.0542027
0.0565098
0.0587768
0.0609975
0.063165
0.0652709
0.0673075
0.0692721
0.0711654
0.0729849
0.0747225
0.0763685
0.0779158
0.0793602
0.0807
0.0819355
0.0830677
0.084095
0.0850114
0.0858097
0.086486
0.0870409
0.0874765
0.0877935
0.0879908
0.0880677
0.0880248
0.087863
0.0875817
0.087179
0.0866534
0.0860037
0.0852295
0.0843305
0.0833089
0.0821689
0.0809151
0.0795511
0.0780793
0.0764997
0.0748225
0.0730571
0.0710388
0.0686302
0.00891089
0.00646437
0.00441395
0.00262194
0.000913737
-0.000700249
-0.00220298
-0.00358949
-0.00485714
-0.00600289
-0.00702415
-0.00791866
-0.0086874
-0.00933153
-0.009851
-0.0102443
-0.0105106
-0.0106519
-0.0106714
-0.0105707
-0.0103483
-0.0100027
-0.00953637
-0.00895388
-0.00825877
-0.00745305
-0.00653882
-0.00551996
-0.00440133
-0.00318615
-0.00187449
-0.000464586
0.00104411
0.00264908
0.00434456
0.00612329
0.00798065
0.00991438
0.0119202
0.0139919
0.0161224
0.0183051
0.0205366
0.0228156
0.0251393
0.0275044
0.0299053
0.0323323
0.0347755
0.037229
0.0396884
0.0421489
0.0446069
0.047057
0.0494902
0.0518989
0.0542794
0.0566277
0.0589363
0.0611971
0.0634025
0.0655449
0.0676179
0.0696192
0.0715489
0.0734033
0.0751736
0.0768508
0.0784288
0.0799043
0.081275
0.0825397
0.0836977
0.084746
0.0856787
0.0864895
0.087176
0.0877399
0.0881834
0.0885063
0.088706
0.0887803
0.0887288
0.0885523
0.0882505
0.0878219
0.0872646
0.086578
0.0857631
0.0848205
0.0837513
0.0825585
0.0812462
0.0798184
0.0782772
0.0766227
0.0748654
0.0730159
0.0709028
0.0683834
0.00883792
0.00627754
0.00413028
0.00225189
0.000463516
-0.00122356
-0.00279456
-0.00424471
-0.00556903
-0.00676431
-0.00782882
-0.00876302
-0.00956685
-0.0102397
-0.0107812
-0.011191
-0.0114712
-0.0116246
-0.0116529
-0.0115552
-0.0113304
-0.0109804
-0.0105096
-0.00992083
-0.00921481
-0.00839319
-0.00746046
-0.00642288
-0.0052852
-0.00404875
-0.00271243
-0.00127546
0.000260284
0.0018907
0.00361092
0.00541632
0.00730427
0.00927218
0.0113135
0.0134195
0.0155827
0.0177978
0.0200637
0.0223795
0.0247417
0.0271448
0.0295826
0.032046
0.0345271
0.0370212
0.0395229
0.0420259
0.0445252
0.0470158
0.0494903
0.0519425
0.0543691
0.0567646
0.0591198
0.0614253
0.0636741
0.0658598
0.0679765
0.0700215
0.0719931
0.0738865
0.0756932
0.0774056
0.0790195
0.0805321
0.08194
0.0832393
0.0844269
0.0854991
0.0864509
0.0872776
0.087978
0.0885542
0.0890079
0.0893378
0.0895405
0.0896126
0.0895528
0.0893613
0.0890382
0.0885826
0.0879934
0.0872703
0.0864148
0.0854277
0.0843092
0.0830615
0.0816893
0.0801972
0.0785868
0.076857
0.0750186
0.073083
0.070873
0.0682414
0.00865185
0.00597517
0.00373113
0.00176588
-0.00010607
-0.00186955
-0.00350991
-0.00502291
-0.00640391
-0.00765002
-0.00876042
-0.00973566
-0.0105743
-0.011275
-0.0118384
-0.0122669
-0.0125636
-0.0127296
-0.0127643
-0.0126674
-0.0124409
-0.0120886
-0.0116132
-0.0110148
-0.0102936
-0.00945377
-0.00850231
-0.0074452
-0.00628509
-0.00502204
-0.00365631
-0.00218982
-0.000626089
0.00103161
0.00278099
0.00461956
0.00654456
0.00855118
0.0106305
0.0127731
0.0149727
0.0172261
0.0195326
0.0218908
0.024295
0.026739
0.0292173
0.0317226
0.0342482
0.036789
0.039338
0.041887
0.0444312
0.0469669
0.0494886
0.051991
0.0544697
0.0569173
0.0593232
0.0616783
0.0639767
0.0662128
0.0683804
0.0704754
0.0724944
0.0744318
0.0762799
0.0780329
0.0796885
0.081244
0.0826942
0.0840327
0.0852542
0.0863544
0.0873293
0.0881763
0.0888951
0.0894878
0.0899549
0.0902935
0.0904992
0.0905687
0.0905006
0.0902946
0.0899507
0.089469
0.0888488
0.0880897
0.0871927
0.0861587
0.0849881
0.0836839
0.0822513
0.0806949
0.0790147
0.0772082
0.0752864
0.0732622
0.070953
0.0682073
0.00834989
0.00555232
0.00320876
0.00115537
-0.000801406
-0.0026431
-0.00435326
-0.00592936
-0.00736874
-0.00866807
-0.00982627
-0.0108422
-0.0117149
-0.0124442
-0.0130322
-0.0134821
-0.0137956
-0.0139721
-0.0140115
-0.0139163
-0.01369
-0.0133353
-0.0128522
-0.01224
-0.0115014
-0.0106433
-0.00967234
-0.00859238
-0.00740455
-0.00611017
-0.0047125
-0.00321542
-0.00162169
6.78921e-05
0.00185313
0.00373156
0.00569843
0.00774667
0.00986653
0.0120498
0.0142918
0.0165901
0.0189433
0.0213478
0.0237972
0.0262859
0.02881
0.0313638
0.0339405
0.0365334
0.0391337
0.0417328
0.0443268
0.0469136
0.0494889
0.052047
0.054582
0.0570853
0.0595462
0.0619566
0.0643116
0.0666056
0.0688309
0.0709814
0.0730528
0.0750396
0.0769355
0.0787362
0.0804399
0.0820434
0.0835399
0.0849213
0.0861808
0.0873141
0.0883179
0.0891908
0.0899333
0.0905466
0.0910298
0.0913787
0.091588
0.091655
0.0915792
0.0913604
0.090998
0.090492
0.0898415
0.0890457
0.088105
0.087021
0.0857964
0.084435
0.082942
0.0813202
0.079568
0.0776818
0.0756733
0.0735578
0.0711471
0.0682851
0.00792865
0.00500442
0.00255667
0.000413821
-0.00162737
-0.00354811
-0.00532987
-0.00697152
-0.00847147
-0.00982591
-0.0110322
-0.0120889
-0.0129966
-0.0137569
-0.0143721
-0.014844
-0.0151727
-0.0153584
-0.0154035
-0.0153117
-0.0150856
-0.0147252
-0.0142303
-0.0136023
-0.0128465
-0.0119694
-0.0109756
-0.00986747
-0.00864725
-0.00731915
-0.00588855
-0.00435883
-0.00273035
-0.00100199
0.000826025
0.00274941
0.00476134
0.00685402
0.00901873
0.0112488
0.0135403
0.0158899
0.0182944
0.0207491
0.0232479
0.0257869
0.0283638
0.0309731
0.0336068
0.0362564
0.0389124
0.0415669
0.0442173
0.0468624
0.0494976
0.0521161
0.0547107
0.0572727
0.0597928
0.0622644
0.0646831
0.0670419
0.069331
0.0715425
0.0736714
0.0757134
0.0776637
0.079519
0.0812771
0.0829332
0.0844793
0.0859065
0.087208
0.0883799
0.0894194
0.0903248
0.0910961
0.0917336
0.0922351
0.0925955
0.0928097
0.0928757
0.0927944
0.0925656
0.0921877
0.0916589
0.0909777
0.090143
0.089156
0.0880204
0.0867412
0.0853227
0.0837681
0.0820782
0.08025
0.0782801
0.0761817
0.0739727
0.0714587
0.0684773
0.00738158
0.00432675
0.00177077
-0.000463375
-0.00258962
-0.00459085
-0.00644768
-0.00815809
-0.00971989
-0.0111299
-0.0123847
-0.013484
-0.0144294
-0.0152226
-0.0158654
-0.0163581
-0.0167012
-0.016897
-0.0169492
-0.0168607
-0.0166317
-0.0162618
-0.0157529
-0.0151091
-0.0143355
-0.0134363
-0.0124145
-0.0112735
-0.0100185
-0.00865584
-0.00719039
-0.00562332
-0.00395318
-0.00217902
-0.000302969
0.00166878
0.00372881
0.0058703
0.00808618
0.0103704
0.0127182
0.0151243
0.0175843
0.0200937
0.0226477
0.0252443
0.0278817
0.0305533
0.0332495
0.0359607
0.0386778
0.0413944
0.0441088
0.0468194
0.0495203
0.0522032
0.0548608
0.0574854
0.0600695
0.062608
0.0650962
0.0675253
0.0698836
0.0721614
0.0743536
0.0764569
0.0784681
0.0803842
0.0822018
0.0839147
0.0855135
0.0869896
0.0883373
0.0895535
0.090635
0.0915789
0.0923836
0.0930479
0.0935694
0.0939429
0.0941641
0.0942322
0.0941488
0.0939133
0.0935221
0.0929708
0.0922572
0.0913815
0.090347