/*--------------------------------*- C++ -*----------------------------------*\
  =========                 |
  \\      /  F ield         | OpenFOAM: The Open Source CFD Toolbox
   \\    /   O peration     | Website:  https://openfoam.org
    \\  /    A nd           | Version:  11
     \\/     M anipulation  |
\*---------------------------------------------------------------------------*/
FoamFile
{
    format      ascii;
    class       surfaceScalarField;
    location    "2.2";
    object      phi;
}
// * * * * * * * * * * * * * * * * * * * * * * * * * * * * * * * * * * * * * //

dimensions      [0 3 -1 0 0 0 0];

internalField   nonuniform List<scalar> 
19980
(
6.18691e-07
-6.17447e-07
2.68205e-06
-2.06326e-06
5.51696e-06
-2.83496e-06
7.91855e-06
-2.40166e-06
9.31577e-06
-1.39719e-06
9.55561e-06
-2.39961e-07
8.6464e-06
9.09206e-07
6.64275e-06
2.00389e-06
3.63181e-06
3.01079e-06
-3.09099e-07
3.9411e-06
-5.08965e-06
4.78046e-06
-1.06219e-05
5.5322e-06
-1.6827e-05
6.20516e-06
-2.36218e-05
6.7948e-06
-3.09298e-05
7.3079e-06
-3.86765e-05
7.74669e-06
-4.67928e-05
8.1163e-06
-5.52168e-05
8.42393e-06
-6.38898e-05
8.67305e-06
-7.27534e-05
8.86354e-06
-8.17551e-05
9.00172e-06
-9.08458e-05
9.09078e-06
-9.99781e-05
9.13226e-06
-0.00010911
9.13205e-06
-0.000118204
9.09422e-06
-0.000127221
9.01703e-06
-0.000136122
8.90084e-06
-0.000144871
8.74918e-06
-0.000153435
8.56429e-06
-0.000161783
8.34813e-06
-0.000169885
8.10168e-06
-0.000177713
7.82821e-06
-0.000185245
7.53187e-06
-0.000192459
7.2139e-06
-0.000199336
6.8768e-06
-0.00020586
6.52427e-06
-0.000212019
6.15852e-06
-0.000217799
5.78055e-06
-0.00022319
5.39053e-06
-0.000228179
4.98898e-06
-0.000232755
4.57649e-06
-0.000236909
4.15329e-06
-0.000240629
3.72013e-06
-0.000243906
3.27671e-06
-0.000246728
2.8226e-06
-0.000249088
2.35942e-06
-0.000250975
1.8875e-06
-0.00025238
1.40505e-06
-0.000253293
9.13399e-07
-0.00025371
4.16801e-07
-0.000253628
-8.26986e-08
-0.000253043
-5.84474e-07
-0.000251957
-1.08665e-06
-0.000250369
-1.58804e-06
-0.00024828
-2.08811e-06
-0.000245697
-2.58286e-06
-0.000242631
-3.06664e-06
-0.000239092
-3.53883e-06
-0.000235088
-4.00348e-06
-0.000230626
-4.46193e-06
-0.000225716
-4.91024e-06
-0.000220372
-5.34392e-06
-0.000214611
-5.76106e-06
-0.00020845
-6.1607e-06
-0.000201909
-6.5416e-06
-0.000195006
-6.90327e-06
-0.00018776
-7.24529e-06
-0.000180196
-7.56466e-06
-0.00017234
-7.85606e-06
-0.000164224
-8.11522e-06
-0.000155884
-8.34054e-06
-0.000147353
-8.53107e-06
-0.000138668
-8.68454e-06
-0.00012987
-8.79843e-06
-0.000120998
-8.87218e-06
-0.000112091
-8.9069e-06
-0.000103188
-8.90292e-06
-9.4329e-05
-8.85875e-06
-8.55561e-05
-8.77286e-06
-7.6911e-05
-8.6451e-06
-6.84353e-05
-8.47561e-06
-6.0172e-05
-8.26327e-06
-5.21661e-05
-8.00593e-06
-4.4465e-05
-7.70103e-06
-3.71194e-05
-7.34555e-06
-3.01835e-05
-6.93592e-06
-2.37152e-05
-6.46826e-06
-1.77753e-05
-5.93981e-06
-1.24247e-05
-5.35055e-06
-7.72216e-06
-4.70254e-06
-3.72332e-06
-3.9988e-06
-4.79707e-07
-3.24365e-06
1.96356e-06
-2.44335e-06
3.57301e-06
-1.60948e-06
4.33751e-06
-7.64505e-07
4.28371e-06
5.38021e-08
3.50093e-06
7.82769e-07
2.18675e-06
1.314e-06
7.49831e-07
1.4365e-06
7.49433e-07
3.82249e-07
-9.99615e-07
2.17969e-06
-3.86093e-06
4.90105e-06
-5.55608e-06
6.94674e-06
-4.44752e-06
7.2598e-06
-1.71001e-06
5.32939e-06
1.6904e-06
9.50224e-07
5.28849e-06
-5.8872e-06
8.84122e-06
-1.51085e-05
1.22322e-05
-2.65718e-05
1.54044e-05
-4.01209e-05
1.83295e-05
-5.55863e-05
2.09977e-05
-7.27817e-05
2.34006e-05
-9.15324e-05
2.55454e-05
-0.000111656
2.74319e-05
-0.000132978
2.9068e-05
-0.000155331
3.04696e-05
-0.000178553
3.16463e-05
-0.000202486
3.26058e-05
-0.000226984
3.33615e-05
-0.000251906
3.39243e-05
-0.000277115
3.42996e-05
-0.000302484
3.45007e-05
-0.000327891
3.45398e-05
-0.000353221
3.4424e-05
-0.000378364
3.41595e-05
-0.000403216
3.37529e-05
-0.000427679
3.32124e-05
-0.00045166
3.25448e-05
-0.000475069
3.17575e-05
-0.000497825
3.08576e-05
-0.000519851
2.98538e-05
-0.000541076
2.8757e-05
-0.000561438
2.75754e-05
-0.000580876
2.63155e-05
-0.000599337
2.49853e-05
-0.000616772
2.35931e-05
-0.000633136
2.21442e-05
-0.000648387
2.06417e-05
-0.000662487
1.90891e-05
-0.000675401
1.74907e-05
-0.000687096
1.58484e-05
-0.000697541
1.41646e-05
-0.000706707
1.24431e-05
-0.00071457
1.06856e-05
-0.000721105
8.8939e-06
-0.000726289
7.07142e-06
-0.000730105
5.22063e-06
-0.000732536
3.34494e-06
-0.000733571
1.45219e-06
-0.000733205
-4.48762e-07
-0.000731436
-2.35344e-06
-0.000728263
-4.25986e-06
-0.000723688
-6.16307e-06
-0.000717722
-8.05434e-06
-0.00071038
-9.92423e-06
-0.000701682
-1.17656e-05
-0.000691646
-1.35748e-05
-0.000680298
-1.53505e-05
-0.00066767
-1.70904e-05
-0.000653791
-1.87886e-05
-0.000638699
-2.04366e-05
-0.000622434
-2.20255e-05
-0.000605046
-2.35486e-05
-0.000586586
-2.50017e-05
-0.000567109
-2.63804e-05
-0.000546676
-2.76782e-05
-0.000525355
-2.88856e-05
-0.00050322
-2.99914e-05
-0.00048035
-3.09855e-05
-0.000456831
-3.18595e-05
-0.000432756
-3.26058e-05
-0.000408224
-3.3217e-05
-0.000383335
-3.36869e-05
-0.000358196
-3.40115e-05
-0.000332915
-3.41875e-05
-0.000307607
-3.42112e-05
-0.000282388
-3.40777e-05
-0.000257378
-3.37824e-05
-0.000232702
-3.33212e-05
-0.000208488
-3.26899e-05
-0.000184868
-3.18833e-05
-0.000161979
-3.0895e-05
-0.000139961
-2.97184e-05
-0.00011896
-2.83463e-05
-9.9125e-05
-2.67714e-05
-8.06054e-05
-2.49878e-05
-6.35525e-05
-2.29927e-05
-4.81142e-05
-2.07888e-05
-3.44324e-05
-1.83843e-05
-2.26384e-05
-1.57929e-05
-1.28453e-05
-1.30368e-05
-5.13795e-06
-1.01507e-05
4.41015e-07
-7.18853e-06
3.91217e-06
-4.23586e-06
5.38968e-06
-1.4238e-06
5.12462e-06
1.04811e-06
3.56346e-06
2.87586e-06
1.43516e-06
3.56579e-06
2.18429e-06
-5.7101e-07
-4.28655e-07
-7.79946e-07
-3.65179e-06
-6.83629e-07
-5.65243e-06
-1.64455e-06
-3.48653e-06
-4.77374e-06
1.41906e-06
-1.07576e-05
7.67412e-06
-1.99452e-05
1.44759e-05
-3.24574e-05
2.13534e-05
-4.82735e-05
2.80483e-05
-6.72767e-05
3.44075e-05
-8.92923e-05
4.03451e-05
-0.000114108
4.58131e-05
-0.000141495
5.07876e-05
-0.000171211
5.52618e-05
-0.000203011
5.92315e-05
-0.000236653
6.27101e-05
-0.00027189
6.57065e-05
-0.000308484
6.82406e-05
-0.000346207
7.03284e-05
-0.00038483
7.19847e-05
-0.000424137
7.32313e-05
-0.000463922
7.40841e-05
-0.000503984
7.45631e-05
-0.000544133
7.46886e-05
-0.000584185
7.44762e-05
-0.000623966
7.39415e-05
-0.000663314
7.31002e-05
-0.00070207
7.19686e-05
-0.000740088
7.05635e-05
-0.00077723
6.88988e-05
-0.000813363
6.6991e-05
-0.000848368
6.48584e-05
-0.000882128
6.25172e-05
-0.000914536
5.99839e-05
-0.000945495
5.72739e-05
-0.000974911
5.44019e-05
-0.0010027
5.13822e-05
-0.00102878
4.82269e-05
-0.00105309
4.49456e-05
-0.00107555
4.1548e-05
-0.0010961
3.80437e-05
-0.00111469
3.44411e-05
-0.00113127
3.07467e-05
-0.0011458
2.69679e-05
-0.00115823
2.31137e-05
-0.00116853
1.91924e-05
-0.00117666
1.52098e-05
-0.00118262
1.11725e-05
-0.00118636
7.09271e-06
-0.0011879
2.98403e-06
-0.0011872
-1.14289e-06
-0.00118428
-5.27817e-06
-0.00117913
-9.41064e-06
-0.00117176
-1.35292e-05
-0.00116219
-1.7622e-05
-0.00115044
-2.16742e-05
-0.00113654
-2.56707e-05
-0.00112051
-2.96015e-05
-0.0011024
-3.346e-05
-0.00108225
-3.72373e-05
-0.00106012
-4.09193e-05
-0.00103607
-4.44906e-05
-0.00101016
-4.79369e-05
-0.000982461
-5.12448e-05
-0.000953062
-5.4401e-05
-0.000922049
-5.73924e-05
-0.000889524
-6.02043e-05
-0.00085559
-6.28194e-05
-0.000820362
-6.52188e-05
-0.000783964
-6.73838e-05
-0.000746527
-6.9297e-05
-0.00070819
-7.09427e-05
-0.000669101
-7.23052e-05
-0.000629418
-7.33702e-05
-0.000589304
-7.4125e-05
-0.000548933
-7.45585e-05
-0.000508485
-7.46596e-05
-0.000468146
-7.44162e-05
-0.000428113
-7.38162e-05
-0.000388585
-7.28484e-05
-0.000349773
-7.15018e-05
-0.000311892
-6.9765e-05
-0.00027516
-6.76265e-05
-0.000239803
-6.50752e-05
-0.000206049
-6.21007e-05
-0.000174126
-5.86947e-05
-0.000144261
-5.48528e-05
-0.000116676
-5.05768e-05
-9.15877e-05
-4.58775e-05
-6.91953e-05
-4.07767e-05
-4.96788e-05
-3.53094e-05
-3.31855e-05
-2.95301e-05
-1.98163e-05
-2.35199e-05
-9.60685e-06
-1.7398e-05
-2.50246e-06
-1.13403e-05
1.67601e-06
-5.60251e-06
3.27653e-06
-5.52968e-07
2.86658e-06
3.28545e-06
1.30742e-06
5.12538e-06
3.49167e-06
-1.13443e-06
7.05718e-07
-3.18634e-06
-1.60008e-06
-6.03197e-06
-2.80675e-06
-1.06914e-05
1.17294e-06
-1.81249e-05
8.85259e-06
-2.89965e-05
1.85458e-05
-4.36975e-05
2.91769e-05
-6.24107e-05
4.00668e-05
-8.51531e-05
5.07906e-05
-0.000111822
6.10764e-05
-0.000142244
7.07673e-05
-0.000176191
7.976e-05
-0.0002134
8.79962e-05
-0.000253584
9.54458e-05
-0.000296453
0.0001021
-0.000341699
0.000107956
-0.000389023
0.000113031
-0.000438125
0.000117342
-0.000488704
0.000120908
-0.000540476
0.000123757
-0.000593157
0.000125912
-0.000646473
0.000127401
-0.000700164
0.000128254
-0.000753976
0.000128501
-0.000807667
0.000128167
-0.000861007
0.000127281
-0.000913778
0.000125871
-0.00096577
0.000123961
-0.00101679
0.000121579
-0.00106664
0.000118753
-0.00111516
0.000115507
-0.00116217
0.000111872
-0.00120752
0.000107873
-0.00125108
0.000103536
-0.00129269
9.88863e-05
-0.00133224
9.39485e-05
-0.0013696
8.87447e-05
-0.00140467
8.32952e-05
-0.00143734
7.76196e-05
-0.00146753
7.17369e-05
-0.00149515
6.56636e-05
-0.00152012
5.94144e-05
-0.00154238
5.30058e-05
-0.00156187
4.64542e-05
-0.00157853
3.97733e-05
-0.00159231
3.29777e-05
-0.00160319
2.6084e-05
-0.00161112
1.91072e-05
-0.00161609
1.2063e-05
-0.00161808
4.97117e-06
-0.00161708
-2.14746e-06
-0.00161308
-9.27552e-06
-0.00160609
-1.63968e-05
-0.00159613
-2.34924e-05
-0.00158321
-3.05405e-05
-0.00156737
-3.7519e-05
-0.00154863
-4.44079e-05
-0.00152704
-5.11891e-05
-0.00150266
-5.78446e-05
-0.00147554
-6.43546e-05
-0.00144576
-7.06976e-05
-0.0014134
-7.68503e-05
-0.00137855
-8.27889e-05
-0.0013413
-8.84895e-05
-0.00130178
-9.39287e-05
-0.00126009
-9.90825e-05
-0.00121637
-0.000103925
-0.00117076
-0.000108429
-0.00112341
-0.000112564
-0.00107449
-0.000116302
-0.00102417
-0.000119615
-0.000972641
-0.000122476
-0.000920089
-0.000124857
-0.000866725
-0.000126734
-0.000812768
-0.000128082
-0.000758446
-0.00012888
-0.000704001
-0.000129105
-0.000649684
-0.000128734
-0.000595754
-0.000127746
-0.000542482
-0.000126121
-0.000490145
-0.000123838
-0.000439031
-0.00012088
-0.000389429
-0.000117228
-0.000341635
-0.000112869
-0.000295945
-0.00010779
-0.000252655
-0.000101985
-0.000212056
-9.54524e-05
-0.000174428
-8.82046e-05
-0.000140039
-8.02666e-05
-0.000109134
-7.16817e-05
-8.19269e-05
-6.25163e-05
-5.85896e-05
-5.28675e-05
-3.92338e-05
-4.28757e-05
-2.38918e-05
-3.274e-05
-1.24905e-05
-2.27413e-05
-4.82041e-06
-1.32724e-05
-4.97563e-07
-4.87585e-06
1.07797e-06
1.70956e-06
7.89961e-07
5.41347e-06
4.28166e-06
-1.52732e-06
2.23307e-06
-5.26614e-06
2.13894e-06
-1.10671e-05
2.99406e-06
-1.96415e-05
9.74741e-06
-3.17383e-05
2.09495e-05
-4.79195e-05
3.4727e-05
-6.85419e-05
4.97995e-05
-9.37824e-05
6.53072e-05
-0.000123659
8.06676e-05
-0.000158085
9.55015e-05
-0.000196878
0.000109561
-0.000239793
0.000122675
-0.000286545
0.000134748
-0.000336816
0.000145717
-0.000390267
0.000155552
-0.000446556
0.000164244
-0.000505325
0.0001718
-0.000566222
0.000178239
-0.000628896
0.000183582
-0.000693003
0.000187863
-0.000758203
0.000191113
-0.000824172
0.000193369
-0.000890589
0.000194671
-0.000957147
0.000195059
-0.00102355
0.000194572
-0.00108952
0.00019325
-0.00115479
0.000191136
-0.00121909
0.000188268
-0.0012822
0.000184684
-0.00134387
0.000180425
-0.0014039
0.000175532
-0.00146207
0.000170043
-0.00151819
0.000163997
-0.00157209
0.000157433
-0.00162359
0.000150387
-0.00167253
0.000142894
-0.00171878
0.000134988
-0.00176218
0.0001267
-0.00180262
0.000118061
-0.00183998
0.000109098
-0.00187416
9.984e-05
-0.00190506
9.03134e-05
-0.0019326
8.05412e-05
-0.00195669
7.05491e-05
-0.00197728
6.03641e-05
-0.00199431
5.00104e-05
-0.00200774
3.95099e-05
-0.00201752
2.88871e-05
-0.00202363
1.81702e-05
-0.00202604
7.38738e-06
-0.00202476
-3.43508e-06
-0.00201976
-1.42711e-05
-0.00201106
-2.50925e-05
-0.00199869
-3.58702e-05
-0.00198265
-4.65748e-05
-0.00196299
-5.71763e-05
-0.00193976
-6.76439e-05
-0.001913
-7.79485e-05
-0.00188278
-8.80614e-05
-0.00184919
-9.79517e-05
-0.0018123
-0.000107586
-0.00177222
-0.000116929
-0.00172906
-0.000125947
-0.00168295
-0.000134604
-0.00163401
-0.000142865
-0.0015824
-0.000150691
-0.00152828
-0.000158042
-0.00147183
-0.00016488
-0.00141323
-0.000171162
-0.00135269
-0.000176847
-0.00129041
-0.000181894
-0.00122663
-0.000186261
-0.00116157
-0.000189908
-0.00109551
-0.000192797
-0.00102871
-0.000194889
-0.000961437
-0.000196149
-0.000893999
-0.000196542
-0.0008267
-0.000196033
-0.000759858
-0.000194588
-0.000693802
-0.000192177
-0.00062887
-0.00018877
-0.000565408
-0.000184342
-0.000503767
-0.000178869
-0.000444303
-0.000172334
-0.000387369
-0.000164724
-0.000333318
-0.000156036
-0.000282491
-0.000146279
-0.000235218
-0.000135477
-0.000191809
-0.000123675
-0.000152546
-0.000110945
-0.000117671
-9.73914e-05
-8.73757e-05
-8.31625e-05
-6.17853e-05
-6.84663e-05
-4.09371e-05
-5.35883e-05
-2.476e-05
-3.89185e-05
-1.30463e-05
-2.4986e-05
-5.42187e-06
-1.25e-05
-1.31576e-06
-2.39678e-06
9.10712e-08
4.00657e-06
4.37272e-06
-1.94973e-06
4.18264e-06
-7.36753e-06
7.55666e-06
-1.61236e-05
1.175e-05
-2.87006e-05
2.23244e-05
-4.56286e-05
3.78775e-05
-6.73323e-05
5.64304e-05
-9.40899e-05
7.6557e-05
-0.000126033
9.72503e-05
-0.000163168
0.000117803
-0.000205387
0.00013772
-0.000252489
0.000156663
-0.000304222
0.000174408
-0.00036027
0.000190796
-0.00042029
0.000205737
-0.000483911
0.000219172
-0.000550747
0.00023108
-0.000620403
0.000241457
-0.00069248
0.000250316
-0.000766582
0.000257684
-0.000842313
0.000263594
-0.000919288
0.000268088
-0.000997131
0.000271213
-0.00107548
0.000273016
-0.00115397
0.000273549
-0.00123226
0.000272867
-0.00131004
0.000271024
-0.00138697
0.000268072
-0.00146277
0.000264068
-0.00153715
0.000259066
-0.00160985
0.000253118
-0.00168059
0.000246281
-0.00174916
0.000238608
-0.00181532
0.000230152
-0.00187884
0.000220962
-0.00193955
0.000211091
-0.00199724
0.000200587
-0.00205175
0.000189496
-0.00210291
0.00017786
-0.00215057
0.000165725
-0.00219461
0.000153132
-0.00223489
0.00014012
-0.0022713
0.000126724
-0.00230374
0.000112984
-0.00233213
9.89377e-05
-0.00235638
8.46196e-05
-0.00237644
7.00649e-05
-0.00239224
5.53097e-05
-0.00240374
4.03895e-05
-0.00241091
2.53407e-05
-0.00241373
1.02017e-05
-0.00241217
-4.98946e-06
-0.00240625
-2.01958e-05
-0.00239596
-3.53792e-05
-0.00238133
-5.04996e-05
-0.00236239
-6.55158e-05
-0.00233918
-8.03867e-05
-0.00231175
-9.50708e-05
-0.00228017
-0.000109527
-0.00224452
-0.000123713
-0.00220489
-0.000137585
-0.00216138
-0.000151094
-0.00211411
-0.000164196
-0.00206322
-0.000176841
-0.00200884
-0.00018898
-0.00195115
-0.000200561
-0.00189031
-0.000211533
-0.00182651
-0.00022184
-0.00175996
-0.000231427
-0.00169088
-0.00024024
-0.00161951
-0.00024822
-0.00154609
-0.000255312
-0.00147089
-0.000261458
-0.0013942
-0.000266603
-0.00131631
-0.000270691
-0.00123752
-0.00027367
-0.00115818
-0.00027549
-0.00107863
-0.0002761
-0.000999208
-0.000275451
-0.000920299
-0.000273497
-0.00084228
-0.000270196
-0.000765542
-0.000265509
-0.000690481
-0.000259402
-0.000617502
-0.000251848
-0.000547009
-0.000242826
-0.000479408
-0.000232325
-0.000415096
-0.000220348
-0.00035446
-0.000206915
-0.00029787
-0.000192068
-0.000245671
-0.000175874
-0.000198177
-0.000158439
-0.000155659
-0.00013991
-0.000118328
-0.000120493
-8.63286e-05
-0.000100466
-5.97145e-05
-8.02024e-05
-3.84338e-05
-6.01993e-05
-2.23074e-05
-4.11125e-05
-1.10065e-05
-2.38008e-05
-4.03304e-06
-9.37041e-06
-6.90197e-07
6.63621e-07
3.68246e-06
-2.44206e-06
6.6247e-06
-9.5631e-06
1.46778e-05
-2.12801e-05
2.34668e-05
-3.78829e-05
3.89272e-05
-5.97012e-05
5.96959e-05
-8.70148e-05
8.37439e-05
-0.000120002
0.000109544
-0.000158729
0.000135978
-0.000203157
0.00016223
-0.000253147
0.00018771
-0.000308482
0.000211999
-0.000368878
0.000234803
-0.000434
0.000255919
-0.000503474
0.00027521
-0.0005769
0.000292599
-0.000653858
0.000308038
-0.000733918
0.000321516
-0.000816641
0.000333039
-0.000901589
0.000342632
-0.000988328
0.000350333
-0.00107643
0.000356189
-0.00116547
0.000360254
-0.00125504
0.00036259
-0.00134475
0.000363259
-0.00143422
0.000362329
-0.00152306
0.000359869
-0.00161094
0.000355948
-0.0016975
0.000350635
-0.00178244
0.000344003
-0.00186544
0.000336122
-0.00194622
0.000327061
-0.0020245
0.000316889
-0.00210003
0.000305675
-0.00217255
0.000293488
-0.00224185
0.00028039
-0.00230771
0.000266445
-0.00236993
0.000251714
-0.00242833
0.000236258
-0.00248274
0.000220132
-0.00253299
0.000203392
-0.00257897
0.000186091
-0.00262052
0.00016828
-0.00265755
0.000150009
-0.00268994
0.000131331
-0.00271761
0.000112292
-0.00274049
9.29424e-05
-0.00275851
7.33282e-05
-0.00277162
5.3498e-05
-0.00277978
3.35016e-05
-0.00278297
1.33889e-05
-0.00278116
-6.79099e-06
-0.00277437
-2.6989e-05
-0.0027626
-4.71536e-05
-0.00274586
-6.72315e-05
-0.00272421
-8.71697e-05
-0.00269768
-0.000106915
-0.00266634
-0.000126412
-0.00263026
-0.000145606
-0.00258954
-0.000164439
-0.00254427
-0.000182852
-0.00249458
-0.000200785
-0.0024406
-0.000218174
-0.00238248
-0.000234957
-0.0023204
-0.000251067
-0.00225452
-0.000266438
-0.00218506
-0.000280998
-0.00211222
-0.000294678
-0.00203624
-0.000307405
-0.00195737
-0.000319108
-0.00187588
-0.000329712
-0.00179205
-0.000339142
-0.00170618
-0.000347325
-0.0016186
-0.000354187
-0.00152963
-0.000359657
-0.00143964
-0.000363664
-0.00134899
-0.000366141
-0.00125806
-0.000367023
-0.00116727
-0.000366245
-0.00107702
-0.000363747
-0.000987737
-0.000359477
-0.000899862
-0.000353384
-0.000813836
-0.000345428
-0.000730107
-0.000335577
-0.000649126
-0.000323807
-0.000571338
-0.000310113
-0.000497183
-0.000294504
-0.000427085
-0.000277013
-0.000361451
-0.000257702
-0.000300658
-0.000236667
-0.00024505
-0.000214047
-0.000194923
-0.000190036
-0.000150518
-0.000164898
-0.000112002
-0.000138981
-7.94594e-05
-0.000112745
-5.28725e-05
-8.67863e-05
-3.21115e-05
-6.18736e-05
-1.69182e-05
-3.89941e-05
-6.89642e-06
-1.93922e-05
-1.50173e-06
-4.73119e-06
2.18073e-06
-2.97942e-06
9.60432e-06
-1.1845e-05
2.35433e-05
-2.65203e-05
3.81421e-05
-4.71259e-05
5.9533e-05
-7.3825e-05
8.63948e-05
-0.000106756
0.000116675
-0.000145984
0.000148772
-0.000191497
0.000181491
-0.000243198
0.000213931
-0.000300906
0.000245418
-0.000364371
0.000275464
-0.000433277
0.00030371
-0.000507265
0.000329906
-0.000585931
0.000353876
-0.000668845
0.000375513
-0.000755558
0.000394751
-0.000845603
0.000411561
-0.000938511
0.000425946
-0.00103381
0.000437927
-0.00113102
0.000447543
-0.00122968
0.00045485
-0.00132933
0.000459907
-0.00142952
0.000462785
-0.00152983
0.000463565
-0.00162983
0.000462324
-0.0017291
0.000459147
-0.00182727
0.000454119
-0.00192397
0.000447328
-0.00201883
0.000438862
-0.00211151
0.000428808
-0.0022017
0.000417253
-0.0022891
0.000404285
-0.00237341
0.000389988
-0.00245437
0.000374445
-0.00253172
0.00035774
-0.00260523
0.000339953
-0.00267467
0.000321158
-0.00273985
0.000301433
-0.00280057
0.00028085
-0.00285665
0.000259481
-0.00290796
0.000237392
-0.00295433
0.00021465
-0.00299564
0.000191322
-0.00303178
0.000167473
-0.00306265
0.000143166
-0.00308817
0.000118461
-0.00310827
9.34223e-05
-0.00312288
6.81117e-05
-0.00313197
4.25918e-05
-0.00313551
1.69256e-05
-0.00313347
-8.82424e-06
-0.00312587
-3.45943e-05
-0.0031127
-6.03187e-05
-0.003094
-8.59304e-05
-0.00306981
-0.000111363
-0.00304018
-0.000136548
-0.00300517
-0.000161416
-0.00296488
-0.000185896
-0.00291941
-0.000209914
-0.00286887
-0.000233395
-0.00281339
-0.000256262
-0.00275313
-0.000278436
-0.00268825
-0.000299836
-0.00261894
-0.000320378
-0.0025454
-0.000339976
-0.00246785
-0.000358543
-0.00238654
-0.000375989
-0.00230172
-0.000392225
-0.00221367
-0.000407158
-0.00212269
-0.000420695
-0.00202909
-0.000432744
-0.0019332
-0.00044321
-0.00183539
-0.000452003
-0.00173601
-0.000459031
-0.00163547
-0.000464207
-0.00153417
-0.000467444
-0.00143253
-0.000468661
-0.001331
-0.000467777
-0.00123002
-0.00046472
-0.00113008
-0.000459423
-0.00103163
-0.000451827
-0.000935176
-0.000441885
-0.000841194
-0.000429559
-0.000750176
-0.000414826
-0.000662604
-0.000397684
-0.000578956
-0.000378152
-0.000499689
-0.000356279
-0.000425244
-0.000332147
-0.00035603
-0.000305881
-0.000292419
-0.000277658
-0.000234739
-0.000247717
-0.000183258
-0.000216379
-0.000138178
-0.000184061
-9.9623e-05
-0.000151301
-6.7625e-05
-0.000118784
-4.21189e-05
-8.73798e-05
-2.29339e-05
-5.81793e-05
-9.79239e-06
-3.25337e-05
-2.3126e-06
-1.22111e-05
-1.31836e-07
-3.55087e-06
1.3155e-05
-1.41689e-05
3.41614e-05
-3.17765e-05
5.57497e-05
-5.63411e-05
8.40974e-05
-8.78768e-05
0.000117931
-0.000126375
0.000155174
-0.0001718
0.000194196
-0.00022405
0.000233742
-0.000282962
0.000272842
-0.000348303
0.00031076
-0.00041978
0.00034694
-0.000497045
0.000380975
-0.000579702
0.000412564
-0.000667324
0.000441498
-0.000759447
0.000467636
-0.000855593
0.000490897
-0.000955264
0.000511233
-0.00105796
0.00052864
-0.00116317
0.000543138
-0.00127039
0.000554766
-0.00137913
0.000563583
-0.00148888
0.00056966
-0.00159917
0.000573078
-0.00170953
0.000573926
-0.00181951
0.000572299
-0.00192866
0.000568299
-0.00203657
0.000562027
-0.00214283
0.000553586
-0.00224705
0.000543084
-0.00234887
0.000530627
-0.00244793
0.000516319
-0.00254391
0.000500265
-0.0026365
0.000482572
-0.00272539
0.00046334
-0.00281032
0.000442668
-0.00289102
0.000420653
-0.00296725
0.000397392
-0.0030388
0.000372979
-0.00310545
0.0003475
-0.00316701
0.000321045
-0.00322332
0.000293698
-0.00327421
0.000265543
-0.00331956
0.000236663
-0.00335922
0.000207138
-0.0033931
0.000177045
-0.0034211
0.000146462
-0.00344315
0.000115468
-0.00345918
8.41406e-05
-0.00346914
5.25562e-05
-0.00347301
2.07927e-05
-0.00347076
-1.10719e-05
-0.00346239
-4.29587e-05
-0.00344793
-7.47866e-05
-0.00342738
-0.000106473
-0.00340081
-0.000137937
-0.00336826
-0.000169093
-0.00332982
-0.000199857
-0.00328558
-0.000230138
-0.00323565
-0.000259847
-0.00318015
-0.000288891
-0.00311924
-0.000317174
-0.00305308
-0.0003446
-0.00298184
-0.000371069
-0.00290574
-0.000396477
-0.002825
-0.000420719
-0.00273986
-0.000443687
-0.00265057
-0.000465272
-0.00255743
-0.000485365
-0.00246074
-0.000503853
-0.00236081
-0.000520621
-0.002258
-0.000535557
-0.00215266
-0.000548546
-0.00204519
-0.000559477
-0.00193598
-0.00056824
-0.00182546
-0.000574726
-0.00171407
-0.000578832
-0.00160228
-0.000580456
-0.00149055
-0.000579504
-0.00137938
-0.000575888
-0.00126928
-0.000569529
-0.00116075
-0.000560359
-0.00105431
-0.000548321
-0.000950493
-0.000533376
-0.000849817
-0.000515502
-0.000752802
-0.000494699
-0.000659955
-0.000470999
-0.000571769
-0.000444465
-0.000488716
-0.000415201
-0.000411236
-0.000383361
-0.000339733
-0.00034916
-0.000274568
-0.000312883
-0.000216044
-0.000274903
-0.000164405
-0.0002357
-0.00011982
-0.000195885
-8.23827e-05
-0.000156221
-5.21036e-05
-0.000117659
-2.89101e-05
-8.13729e-05
-1.26503e-05
-4.87936e-05
-3.10373e-06
-2.17577e-05
-3.23557e-06
-4.11975e-06
1.72749e-05
-1.64925e-05
4.65341e-05
-3.69906e-05
7.62477e-05
-6.54532e-05
0.00011256
-0.000101743
0.000154221
-0.00014573
0.00019916
-0.00019727
0.000245736
-0.000256174
0.000292645
-0.000322203
0.000338871
-0.000395069
0.000383626
-0.000474432
0.000426303
-0.000559902
0.000466445
-0.00065105
0.000503711
-0.000747413
0.000537861
-0.000848499
0.000568722
-0.000953797
0.000596194
-0.00106278
0.00062022
-0.00117492
0.000640781
-0.00128968
0.000657896
-0.00140652
0.000671607
-0.00152491
0.000681974
-0.00164433
0.000689078
-0.00176427
0.000693012
-0.00188422
0.000693877
-0.0020037
0.000691782
-0.00212224
0.000686843
-0.0022394
0.000679182
-0.00235474
0.000668922
-0.00246784
0.000656185
-0.00257831
0.000641097
-0.00268577
0.000623784
-0.00278988
0.000604371
-0.00289029
0.00058298
-0.00298668
0.000559734
-0.00307876
0.000534751
-0.00316626
0.000508147
-0.0032489
0.000480039
-0.00332646
0.000450536
-0.00339871
0.000419746
-0.00346544
0.000387775
-0.00352647
0.000354728
-0.00358163
0.000320704
-0.00363077
0.000285804
-0.00367375
0.000250124
-0.00371047
0.000213759
-0.00374081
0.000176805
-0.0037647
0.000139357
-0.00378207
0.000101507
-0.00379286
6.33484e-05
-0.00379704
2.49758e-05
-0.0037946
-1.35166e-05
-0.00378552
-5.20333e-05
-0.00376983
-9.04766e-05
-0.00374756
-0.000128748
-0.00371874
-0.000166749
-0.00368346
-0.000204378
-0.00364178
-0.000241531
-0.00359382
-0.000278101
-0.00353969
-0.000313978
-0.00347953
-0.000349052
-0.0034135
-0.000383208
-0.00334177
-0.000416328
-0.00326454
-0.000448294
-0.00318204
-0.00047898
-0.0030945
-0.00050826
-0.00300218
-0.000536005
-0.00290537
-0.000562087
-0.00280436
-0.000586371
-0.00269949
-0.000608725
-0.0025911
-0.000629011
-0.00247956
-0.000647095
-0.00236527
-0.00066284
-0.00224863
-0.000676115
-0.00213008
-0.000686788
-0.00201008
-0.000694731
-0.00188909
-0.000699818
-0.00176761
-0.000701933
-0.00164615
-0.000700963
-0.00152524
-0.000696805
-0.0014054
-0.000689368
-0.00128718
-0.000678574
-0.00117114
-0.00066436
-0.00105784
-0.000646681
-0.000947825
-0.000625516
-0.000841651
-0.000600874
-0.000739857
-0.000572793
-0.000642967
-0.000541354
-0.000551484
-0.000506683
-0.000465882
-0.000468963
-0.0003866
-0.000428442
-0.000314032
-0.00038545
-0.000248525
-0.000340409
-0.000190368
-0.000293858
-0.000139785
-0.000246468
-9.69375e-05
-0.000199069
-6.19181e-05
-0.000152678
-3.47569e-05
-0.000108534
-1.54279e-05
-6.81226e-05
-3.86457e-06
-3.3321e-05
-7.10017e-06
-4.68894e-06
2.19637e-05
-1.87862e-05
6.06312e-05
-4.21161e-05
9.95776e-05
-7.43911e-05
0.000144835
-0.000115339
0.000195168
-0.000164717
0.000248537
-0.000222266
0.000303286
-0.000287714
0.000358093
-0.000360751
0.000411908
-0.000441023
0.000463898
-0.000528138
0.000513419
-0.000621663
0.00055997
-0.000721132
0.00060318
-0.000826041
0.000642771
-0.000935874
0.000678555
-0.00105008
0.000710404
-0.00116812
0.000738253
-0.00128941
0.000762076
-0.0014134
0.000781887
-0.00153952
0.000797727
-0.00166721
0.000809666
-0.00179593
0.00081779
-0.00192512
0.000822203
-0.00205426
0.000823017
-0.00218284
0.000820361
-0.00231036
0.000814367
-0.00243635
0.000805171
-0.00256034
0.000792915
-0.0026819
0.000777745
-0.00280061
0.000759805
-0.00291607
0.000739241
-0.0030279
0.000716198
-0.00313574
0.00069082
-0.00323925
0.00066325
-0.00333813
0.000633626
-0.00343207
0.000602086
-0.00352079
0.000568764
-0.00360405
0.000533792
-0.0036816
0.000497295
-0.00375322
0.000459401
-0.00381873
0.000420232
-0.00387793
0.000379907
-0.00393067
0.000338543
-0.0039768
0.000296257
-0.0040162
0.000253162
-0.00404877
0.00020937
-0.0040744
0.000164993
-0.00409304
0.000120144
-0.00410462
7.49302e-05
-0.00410911
2.94647e-05
-0.00410649
-1.61403e-05
-0.00409675
-6.17716e-05
-0.00407991
-0.000107314
-0.00405601
-0.000152653
-0.00402509
-0.00019767
-0.00398722
-0.000242246
-0.00394249
-0.000286257
-0.00389102
-0.000329575
-0.00383292
-0.000372074
-0.00376835
-0.000413622
-0.00369747
-0.000454084
-0.00362048
-0.000493321
-0.00353758
-0.000531191
-0.00344901
-0.000567549
-0.00335503
-0.000602245
-0.00325591
-0.000635129
-0.00315194
-0.000666048
-0.00304347
-0.000694847
-0.00293083
-0.000721368
-0.00281439
-0.000745451
-0.00269454
-0.000766937
-0.00257171
-0.00078567
-0.00244633
-0.000801494
-0.00231887
-0.000814255
-0.00218979
-0.000823803
-0.00205962
-0.000829994
-0.00192886
-0.000832691
-0.00179806
-0.000831764
-0.00166777
-0.000827096
-0.00153855
-0.000818583
-0.00141099
-0.000806136
-0.00128567
-0.000789684
-0.00116317
-0.00076918
-0.00104408
-0.000744604
-0.000928984
-0.000715968
-0.000818454
-0.000683323
-0.000713046
-0.000646763
-0.000613293
-0.000606436
-0.000519704
-0.000562552
-0.000432754
-0.000515392
-0.000352879
-0.000465325
-0.000280468
-0.00041282
-0.000215862
-0.000358464
-0.000159347
-0.000302982
-0.000111157
-0.000247259
-7.14698e-05
-0.000192365
-4.04189e-05
-0.000139585
-1.80996e-05
-9.04419e-05
-4.58845e-06
-4.68322e-05
-1.16886e-05
-5.25063e-06
2.72143e-05
-2.10301e-05
7.64106e-05
-4.71235e-05
0.000125671
-8.31155e-05
0.000180827
-0.000128616
0.000240669
-0.000183262
0.000303183
-0.000246704
0.000366728
-0.000318579
0.000429968
-0.000398499
0.000491828
-0.000486051
0.00055145
-0.000580785
0.000608153
-0.000682222
0.000661407
-0.000789851
0.000710809
-0.000903137
0.000756056
-0.00102152
0.00079694
-0.00114443
0.000833316
-0.00127129
0.000865105
-0.00140149
0.000892277
-0.00153444
0.000914842
-0.00166956
0.000932846
-0.00180625
0.00094636
-0.00194394
0.00095548
-0.00208206
0.000960321
-0.00222006
0.000961013
-0.00235739
0.000957694
-0.00249354
0.000950515
-0.002628
0.000939634
-0.0027603
0.000925209
-0.00288996
0.000907407
-0.00301655
0.000886394
-0.00313964
0.000862337
-0.00325885
0.000835402
-0.00337378
0.000805756
-0.00348409
0.00077356
-0.00358945
0.000738978
-0.00368953
0.000702167
-0.00378405
0.000663282
-0.00387273
0.000622476
-0.00395533
0.000579895
-0.00403162
0.000535688
-0.00410138
0.000489995
-0.00416443
0.000442957
-0.0042206
0.00039471
-0.00426973
0.000345388
-0.00431169
0.000295125
-0.00434637
0.000244052
-0.00437368
0.000192299
-0.00439353
0.000139996
-0.00440587
8.72708e-05
-0.00441066
3.42539e-05
-0.00440788
-1.89235e-05
-0.00439752
-7.21298e-05
-0.0043796
-0.000125232
-0.00435416
-0.000178096
-0.00432124
-0.000230584
-0.00428093
-0.000282557
-0.00423332
-0.000333871
-0.00417852
-0.000384379
-0.00411666
-0.000433932
-0.0040479
-0.000482378
-0.00397243
-0.00052956
-0.00389043
-0.000575316
-0.00380214
-0.000619482
-0.0037078
-0.000661889
-0.00360768
-0.000702365
-0.00350207
-0.000740737
-0.0033913
-0.000776825
-0.00327569
-0.000810452
-0.00315563
-0.000841433
-0.00303149
-0.000869585
-0.0029037
-0.000894727
-0.0027727
-0.000916677
-0.00263894
-0.000935254
-0.00250291
-0.000950284
-0.00236512
-0.000961592
-0.0022261
-0.000969015
-0.0020864
-0.000972394
-0.00194657
-0.000971585
-0.00180722
-0.000966452
-0.00166892
-0.000956879
-0.00153229
-0.000942766
-0.00139794
-0.000924035
-0.00126649
-0.000900635
-0.00113855
-0.000872545
-0.00101473
-0.000839784
-0.000895644
-0.000802409
-0.000781875
-0.000760532
-0.000673992
-0.000714319
-0.000572541
-0.000664003
-0.000478034
-0.000609899
-0.000390951