/*--------------------------------*- C++ -*----------------------------------*\
  =========                 |
  \\      /  F ield         | OpenFOAM: The Open Source CFD Toolbox
   \\    /   O peration     | Website:  https://openfoam.org
    \\  /    A nd           | Version:  11
     \\/     M anipulation  |
\*---------------------------------------------------------------------------*/
FoamFile
{
    format      ascii;
    class       volVectorField;
    location    "2.2";
    object      U;
}
// * * * * * * * * * * * * * * * * * * * * * * * * * * * * * * * * * * * * * //

dimensions      [0 1 -1 0 0 0 0];

internalField   nonuniform List<vector> 
10100
(
(1.34427e-06 -4.49745e-06 0)
(1.44612e-05 -1.42959e-05 0)
(4.0413e-05 -1.8653e-05 0)
(6.84576e-05 -1.62309e-05 0)
(8.84924e-05 -1.15441e-05 0)
(9.69785e-05 -6.38427e-06 0)
(9.35972e-05 -1.58199e-06 0)
(7.8837e-05 2.78712e-06 0)
(5.36604e-05 6.75038e-06 0)
(1.86623e-05 1.02289e-05 0)
(-2.51444e-05 1.32848e-05 0)
(-7.68445e-05 1.60311e-05 0)
(-0.00013573 1.83683e-05 0)
(-0.000200957 2.043e-05 0)
(-0.000271568 2.22172e-05 0)
(-0.000347046 2.36484e-05 0)
(-0.000426557 2.48455e-05 0)
(-0.000509333 2.58341e-05 0)
(-0.000594988 2.66008e-05 0)
(-0.000682827 2.71599e-05 0)
(-0.000772246 2.75496e-05 0)
(-0.00086282 2.77913e-05 0)
(-0.000954058 2.78857e-05 0)
(-0.00104549 2.78643e-05 0)
(-0.00113672 2.77244e-05 0)
(-0.00122736 2.7426e-05 0)
(-0.00131703 2.69698e-05 0)
(-0.00140537 2.63805e-05 0)
(-0.001492 2.57174e-05 0)
(-0.00157664 2.50138e-05 0)
(-0.00165896 2.42358e-05 0)
(-0.00173868 2.33665e-05 0)
(-0.00181555 2.24054e-05 0)
(-0.0018893 2.13733e-05 0)
(-0.00195979 2.03115e-05 0)
(-0.00202685 1.92241e-05 0)
(-0.0020903 1.81193e-05 0)
(-0.00215004 1.70088e-05 0)
(-0.00220591 1.58702e-05 0)
(-0.00225782 1.47073e-05 0)
(-0.00230569 1.35363e-05 0)
(-0.00234936 1.23377e-05 0)
(-0.00238874 1.11093e-05 0)
(-0.00242376 9.85896e-06 0)
(-0.00245428 8.56463e-06 0)
(-0.00248022 7.22458e-06 0)
(-0.00250148 5.86497e-06 0)
(-0.00251796 4.47708e-06 0)
(-0.00252956 3.03471e-06 0)
(-0.00253622 1.54975e-06 0)
(-0.0025379 5.15377e-08 0)
(-0.00253457 -1.45023e-06 0)
(-0.00252621 -2.95693e-06 0)
(-0.00251283 -4.47153e-06 0)
(-0.00249444 -5.99481e-06 0)
(-0.00247108 -7.50658e-06 0)
(-0.00244281 -8.9709e-06 0)
(-0.00240976 -1.03772e-05 0)
(-0.00237201 -1.17528e-05 0)
(-0.00232965 -1.31231e-05 0)
(-0.00228276 -1.4481e-05 0)
(-0.00223147 -1.58001e-05 0)
(-0.00217591 -1.70586e-05 0)
(-0.00211626 -1.82477e-05 0)
(-0.0020527 -1.9373e-05 0)
(-0.00198542 -2.04506e-05 0)
(-0.00191462 -2.1487e-05 0)
(-0.00184051 -2.24602e-05 0)
(-0.00176334 -2.33332e-05 0)
(-0.00168341 -2.40872e-05 0)
(-0.00160105 -2.47272e-05 0)
(-0.0015166 -2.52568e-05 0)
(-0.00143043 -2.56611e-05 0)
(-0.00134293 -2.59249e-05 0)
(-0.00125448 -2.60546e-05 0)
(-0.00116548 -2.60705e-05 0)
(-0.00107633 -2.59817e-05 0)
(-0.000987431 -2.57815e-05 0)
(-0.00089918 -2.54672e-05 0)
(-0.000811989 -2.50478e-05 0)
(-0.000726276 -2.45284e-05 0)
(-0.000642467 -2.38987e-05 0)
(-0.000561002 -2.31426e-05 0)
(-0.000482343 -2.22493e-05 0)
(-0.000406983 -2.12137e-05 0)
(-0.000335452 -2.00285e-05 0)
(-0.00026831 -1.86699e-05 0)
(-0.000206144 -1.71074e-05 0)
(-0.000149556 -1.53265e-05 0)
(-9.91482e-05 -1.33294e-05 0)
(-5.55135e-05 -1.11288e-05 0)
(-1.91993e-05 -8.73924e-06 0)
(9.30119e-06 -6.16113e-06 0)
(2.95809e-05 -3.40834e-06 0)
(4.14088e-05 -5.40992e-07 0)
(4.48224e-05 2.32269e-06 0)
(4.02817e-05 4.93392e-06 0)
(2.91349e-05 6.809e-06 0)
(1.45593e-05 7.03011e-06 0)
(3.69405e-06 3.68491e-06 0)
(-2.3549e-06 -9.92507e-06 0)
(9.78354e-06 -3.34631e-05 0)
(3.51195e-05 -4.63787e-05 0)
(6.18652e-05 -3.94847e-05 0)
(7.58583e-05 -2.19687e-05 0)
(6.8719e-05 -1.03452e-06 0)
(3.7356e-05 2.03053e-05 0)
(-1.87482e-05 4.10741e-05 0)
(-9.93801e-05 6.02942e-05 0)
(-0.000203179 7.81532e-05 0)
(-0.000328564 9.44281e-05 0)
(-0.000474103 0.000108995 0)
(-0.000637853 0.000122083 0)
(-0.000817924 0.000133635 0)
(-0.0010128 0.000143711 0)
(-0.00122044 0.000152338 0)
(-0.00143916 0.000159705 0)
(-0.00166749 0.000165824 0)
(-0.00190361 0.000170751 0)
(-0.00214612 0.000174597 0)
(-0.00239358 0.000177402 0)
(-0.00264454 0.000179216 0)
(-0.00289773 0.000180123 0)
(-0.00315192 0.000180202 0)
(-0.00340589 0.000179513 0)
(-0.00365852 0.000178042 0)
(-0.00390874 0.000175796 0)
(-0.00415556 0.000172845 0)
(-0.00439799 0.000169225 0)
(-0.00463513 0.000164998 0)
(-0.00486616 0.000160197 0)
(-0.00509027 0.000154862 0)
(-0.0053067 0.000149069 0)
(-0.00551476 0.000142836 0)
(-0.00571389 0.000136206 0)
(-0.00590354 0.000129257 0)
(-0.00608315 0.000122018 0)
(-0.00625224 0.000114523 0)
(-0.00641041 0.000106792 0)
(-0.00655726 9.88085e-05 0)
(-0.00669241 9.05979e-05 0)
(-0.00681553 8.21934e-05 0)
(-0.0069263 7.35822e-05 0)
(-0.00702442 6.47552e-05 0)
(-0.00710964 5.57339e-05 0)
(-0.00718171 4.65333e-05 0)
(-0.00724034 3.71496e-05 0)
(-0.00728535 2.75873e-05 0)
(-0.00731662 1.78779e-05 0)
(-0.00733399 8.06612e-06 0)
(-0.00733735 -1.80997e-06 0)
(-0.00732666 -1.17191e-05 0)
(-0.00730195 -2.16335e-05 0)
(-0.00726319 -3.15338e-05 0)
(-0.00721045 -4.13917e-05 0)
(-0.00714389 -5.11429e-05 0)
(-0.00706366 -6.0715e-05 0)
(-0.00696992 -7.00863e-05 0)
(-0.00686289 -7.92849e-05 0)
(-0.00674293 -8.83237e-05 0)
(-0.00661034 -9.71629e-05 0)
(-0.00646541 -0.000105737 0)
(-0.00630851 -0.000113993 0)
(-0.00614011 -0.000121898 0)
(-0.00596074 -0.000129434 0)
(-0.00577091 -0.00013659 0)
(-0.00557119 -0.000143342 0)
(-0.00536225 -0.000149632 0)
(-0.00514479 -0.000155382 0)
(-0.00491957 -0.000160523 0)
(-0.00468739 -0.000165008 0)
(-0.00444918 -0.000168804 0)
(-0.00420591 -0.000171874 0)
(-0.00395856 -0.000174186 0)
(-0.00370816 -0.000175724 0)
(-0.00345577 -0.000176487 0)
(-0.00320253 -0.000176467 0)
(-0.00294961 -0.000175641 0)
(-0.00269819 -0.000173993 0)
(-0.00244945 -0.000171511 0)
(-0.00220467 -0.000168183 0)
(-0.00196514 -0.000163977 0)
(-0.00173224 -0.000158852 0)
(-0.00150735 -0.000152767 0)
(-0.00129191 -0.000145676 0)
(-0.00108738 -0.000137524 0)
(-0.000895256 -0.00012825 0)
(-0.000717044 -0.00011781 0)
(-0.000554231 -0.000106201 0)
(-0.000408286 -9.34623e-05 0)
(-0.000280604 -7.96545e-05 0)
(-0.00017244 -6.4877e-05 0)
(-8.48097e-05 -4.92898e-05 0)
(-1.83785e-05 -3.31498e-05 0)
(2.67084e-05 -1.69053e-05 0)
(5.10421e-05 -1.29639e-06 0)
(5.62379e-05 1.24936e-05 0)
(4.56024e-05 2.25302e-05 0)
(2.53796e-05 2.54005e-05 0)
(7.01004e-06 1.4552e-05 0)
(-6.72574e-06 -8.9733e-06 0)
(-7.86925e-06 -4.2054e-05 0)
(-6.45169e-06 -6.28269e-05 0)
(-7.91641e-06 -4.79219e-05 0)
(-2.57671e-05 -1.10705e-05 0)
(-7.01651e-05 3.54955e-05 0)
(-0.000145338 8.57065e-05 0)
(-0.00025385 0.000135645 0)
(-0.000395685 0.00018391 0)
(-0.000570041 0.000229367 0)
(-0.000775755 0.000271434 0)
(-0.0010104 0.00031 0)
(-0.00127193 0.000344893 0)
(-0.00155811 0.000376103 0)
(-0.00186623 0.000403621 0)
(-0.00219406 0.000427697 0)
(-0.00253908 0.000448268 0)
(-0.00289877 0.000465625 0)
(-0.00327093 0.000479891 0)
(-0.00365323 0.00049111 0)
(-0.00404338 0.000499516 0)
(-0.00443934 0.000505194 0)
(-0.00483908 0.000508283 0)
(-0.00524059 0.000508974 0)
(-0.00564202 0.000507386 0)
(-0.00604163 0.000503624 0)
(-0.0064377 0.00049777 0)
(-0.00682858 0.000489931 0)
(-0.0072128 0.000480219 0)
(-0.00758891 0.000468721 0)
(-0.00795559 0.000455563 0)
(-0.0083116 0.000440885 0)
(-0.0086557 0.00042482 0)
(-0.00898679 0.00040749 0)
(-0.00930386 0.000388971 0)
(-0.00960596 0.000369375 0)
(-0.00989221 0.000348838 0)
(-0.0101618 0.000327414 0)
(-0.0104138 0.000305161 0)
(-0.0106478 0.000282168 0)
(-0.010863 0.000258464 0)
(-0.0110589 0.000234085 0)
(-0.0112349 0.000209114 0)
(-0.0113905 0.000183587 0)
(-0.0115254 0.000157513 0)
(-0.0116391 0.000130951 0)
(-0.0117313 0.000103966 0)
(-0.0118018 7.65874e-05 0)
(-0.0118504 4.88744e-05 0)
(-0.0118768 2.09396e-05 0)
(-0.011881 -7.11921e-06 0)
(-0.0118629 -3.52396e-05 0)
(-0.0118225 -6.33597e-05 0)
(-0.0117599 -9.14036e-05 0)
(-0.0116752 -0.000119278 0)
(-0.0115686 -0.000146864 0)
(-0.0114402 -0.000174049 0)
(-0.0112904 -0.000200769 0)
(-0.0111196 -0.000226998 0)
(-0.0109282 -0.000252687 0)
(-0.0107167 -0.000277741 0)
(-0.0104857 -0.000302048 0)
(-0.0102357 -0.000325502 0)
(-0.00996742 -0.000348001 0)
(-0.00968172 -0.00036946 0)
(-0.00937943 -0.000389802 0)
(-0.00906149 -0.000408939 0)
(-0.00872892 -0.000426747 0)
(-0.00838282 -0.000443072 0)
(-0.00802438 -0.000457767 0)
(-0.00765486 -0.000470713 0)
(-0.00727563 -0.000481806 0)
(-0.00688814 -0.000490942 0)
(-0.00649389 -0.000498025 0)
(-0.00609448 -0.000502978 0)
(-0.00569161 -0.000505736 0)
(-0.00528705 -0.000506232 0)
(-0.00488265 -0.000504395 0)
(-0.00448032 -0.00050015 0)
(-0.00408201 -0.000493429 0)
(-0.00368978 -0.000484162 0)
(-0.00330575 -0.000472269 0)
(-0.00293211 -0.000457664 0)
(-0.00257111 -0.000440262 0)
(-0.002225 -0.000419972 0)
(-0.00189607 -0.000396708 0)
(-0.00158659 -0.0003704 0)
(-0.0012988 -0.000341026 0)
(-0.00103492 -0.000308641 0)
(-0.000797032 -0.000273383 0)
(-0.000587086 -0.000235475 0)
(-0.000406745 -0.000195271 0)
(-0.000257284 -0.000153305 0)
(-0.000139427 -0.000110392 0)
(-5.31281e-05 -6.77801e-05 0)
(2.68505e-06 -2.73442e-05 0)
(3.04303e-05 8.13157e-06 0)
(3.45174e-05 3.45564e-05 0)
(2.24464e-05 4.55606e-05 0)
(6.75986e-06 2.90404e-05 0)
(-7.66889e-06 8.09e-08 0)
(-1.99245e-05 -3.08338e-05 0)
(-4.28034e-05 -4.99019e-05 0)
(-7.8064e-05 -2.12614e-05 0)
(-0.000136399 3.98684e-05 0)
(-0.00022645 0.000118175 0)
(-0.0003537 0.000203747 0)
(-0.000520581 0.00029098 0)
(-0.000727895 0.000376433 0)
(-0.000975404 0.00045792 0)
(-0.00126131 0.00053438 0)
(-0.00158377 0.000605124 0)
(-0.00194025 0.000669574 0)
(-0.00232788 0.000727747 0)
(-0.00274392 0.000779532 0)
(-0.00318521 0.000824937 0)
(-0.00364883 0.000864237 0)
(-0.0041317 0.000897506 0)
(-0.00463082 0.000924953 0)
(-0.00514329 0.000946847 0)
(-0.00566623 0.000963376 0)
(-0.0061969 0.00097473 0)
(-0.00673259 0.000981178 0)
(-0.0072707 0.000982967 0)
(-0.00780879 0.000980283 0)
(-0.00834451 0.000973366 0)
(-0.00887561 0.000962451 0)
(-0.00939993 0.000947731 0)
(-0.00991544 0.000929399 0)
(-0.0104202 0.000907636 0)
(-0.0109125 0.000882655 0)
(-0.0113906 0.000854706 0)
(-0.0118528 0.000824001 0)
(-0.0122976 0.000790754 0)
(-0.0127238 0.000755156 0)
(-0.0131299 0.00071736 0)
(-0.0135147 0.00067757 0)
(-0.0138772 0.000635979 0)
(-0.0142161 0.000592681 0)
(-0.0145307 0.0005478 0)
(-0.0148199 0.000501508 0)
(-0.015083 0.000453906 0)
(-0.0153193 0.00040507 0)
(-0.0155282 0.000355133 0)
(-0.0157091 0.000304222 0)
(-0.0158614 0.000252429 0)
(-0.0159848 0.000199849 0)
(-0.0160789 0.000146599 0)
(-0.0161435 9.28131e-05 0)
(-0.0161783 3.86501e-05 0)
(-0.0161832 -1.5728e-05 0)
(-0.0161582 -7.019e-05 0)
(-0.0161032 -0.000124618 0)
(-0.0160185 -0.000178865 0)
(-0.015904 -0.000232749 0)
(-0.0157601 -0.000286093 0)
(-0.0155871 -0.000338741 0)
(-0.0153854 -0.000390558 0)
(-0.0151553 -0.000441414 0)
(-0.0148976 -0.000491168 0)
(-0.014613 -0.000539658 0)
(-0.0143021 -0.000586697 0)
(-0.0139658 -0.000632094 0)
(-0.0136051 -0.000675668 0)
(-0.0132209 -0.000717246 0)
(-0.0128145 -0.00075665 0)
(-0.0123871 -0.000793681 0)
(-0.0119401 -0.000828113 0)
(-0.011475 -0.000859716 0)
(-0.0109932 -0.000888262 0)
(-0.0104966 -0.000913529 0)
(-0.00998687 -0.000935304 0)
(-0.00946595 -0.000953382 0)
(-0.00893585 -0.000967572 0)
(-0.00839867 -0.000977699 0)
(-0.00785668 -0.0009836 0)
(-0.00731223 -0.000985113 0)
(-0.00676779 -0.00098208 0)
(-0.00622592 -0.000974336 0)
(-0.00568924 -0.000961722 0)
(-0.00516048 -0.000944087 0)
(-0.00464248 -0.000921285 0)
(-0.00413816 -0.000893178 0)
(-0.00365045 -0.000859638 0)
(-0.00318232 -0.000820542 0)
(-0.0027367 -0.0007758 0)
(-0.00231654 -0.000725379 0)
(-0.00192472 -0.000669334 0)
(-0.00156399 -0.000607842 0)
(-0.00123695 -0.000541217 0)
(-0.000945917 -0.000469944 0)
(-0.00069286 -0.000394752 0)
(-0.000479228 -0.000316722 0)
(-0.000305792 -0.000237415 0)
(-0.000172404 -0.000159094 0)
(-7.77335e-05 -8.49864e-05 0)
(-1.90059e-05 -1.96539e-05 0)
(8.60093e-06 3.05587e-05 0)
(1.26605e-05 5.62773e-05 0)
(4.94663e-06 4.01804e-05 0)
(-7.77508e-06 1.37059e-05 0)
(-2.90015e-05 -1.37542e-06 0)
(-7.5435e-05 -6.24933e-06 0)
(-0.00014595 4.46981e-05 0)
(-0.000247359 0.000137205 0)
(-0.000387634 0.000252829 0)
(-0.000570975 0.000379829 0)
(-0.000800087 0.000510415 0)
(-0.00107582 0.000639345 0)
(-0.00139762 0.000763502 0)
(-0.00176427 0.000880886 0)
(-0.00217348 0.000989978 0)
(-0.00262256 0.00109027 0)
(-0.00310848 0.00118109 0)
(-0.00362793 0.00126241 0)
(-0.00417751 0.00133413 0)
(-0.00475367 0.00139634 0)
(-0.00535288 0.0014493 0)
(-0.0059716 0.00149317 0)
(-0.00660634 0.00152826 0)
(-0.00725371 0.00155486 0)
(-0.00791037 0.00157331 0)
(-0.00857307 0.00158395 0)
(-0.0092387 0.00158711 0)
(-0.00990424 0.0015831 0)
(-0.0105668 0.00157226 0)
(-0.0112236 0.00155495 0)
(-0.0118721 0.0015315 0)
(-0.0125097 0.00150223 0)
(-0.0131342 0.00146747 0)
(-0.0137432 0.00142753 0)
(-0.0143347 0.00138276 0)
(-0.0149066 0.00133349 0)
(-0.0154571 0.00127998 0)
(-0.0159846 0.0012226 0)
(-0.0164872 0.00116164 0)
(-0.0169635 0.00109734 0)
(-0.017412 0.00102995 0)
(-0.0178316 0.000959741 0)
(-0.0182209 0.000886945 0)
(-0.0185788 0.000811762 0)
(-0.0189043 0.000734402 0)
(-0.0191967 0.000655057 0)
(-0.0194551 0.00057392 0)
(-0.0196787 0.000491205 0)
(-0.0198669 0.000407117 0)
(-0.0200193 0.000321824 0)
(-0.0201354 0.000235509 0)
(-0.0202149 0.0001484 0)
(-0.0202576 6.07405e-05 0)
(-0.0202632 -2.72491e-05 0)
(-0.0202318 -0.000115357 0)
(-0.0201633 -0.000203357 0)
(-0.0200579 -0.000291019 0)
(-0.0199158 -0.000378101 0)
(-0.0197372 -0.000464336 0)
(-0.0195226 -0.000549464 0)
(-0.0192725 -0.000633259 0)
(-0.0189874 -0.00071551 0)
(-0.0186681 -0.000795968 0)
(-0.0183155 -0.000874346 0)
(-0.0179304 -0.000950354 0)
(-0.0175139 -0.00102371 0)
(-0.0170672 -0.00109415 0)
(-0.0165916 -0.00116135 0)
(-0.0160885 -0.00122503 0)
(-0.0155595 -0.00128485 0)
(-0.0150062 -0.00134048 0)
(-0.0144304 -0.00139158 0)
(-0.0138342 -0.00143779 0)
(-0.0132195 -0.00147879 0)
(-0.0125887 -0.00151424 0)
(-0.0119439 -0.00154379 0)
(-0.0112876 -0.00156713 0)
(-0.0106226 -0.00158397 0)
(-0.00995149 -0.00159401 0)
(-0.00927721 -0.00159698 0)
(-0.00860278 -0.0015926 0)
(-0.00793129 -0.00158059 0)
(-0.00726596 -0.0015607 0)
(-0.00661014 -0.00153268 0)
(-0.00596728 -0.00149632 0)
(-0.00534089 -0.00145141 0)
(-0.0047345 -0.00139779 0)
(-0.00415164 -0.00133533 0)
(-0.00359586 -0.00126395 0)
(-0.00307061 -0.00118372 0)
(-0.00257931 -0.00109479 0)
(-0.00212517 -0.000997521 0)
(-0.00171116 -0.000892459 0)
(-0.00133994 -0.000780445 0)
(-0.0010137 -0.000662694 0)
(-0.00073408 -0.000540934 0)
(-0.000501924 -0.000417578 0)
(-0.000317123 -0.000295975 0)
(-0.000178353 -0.000180746 0)
(-8.28413e-05 -7.81826e-05 0)
(-2.58581e-05 3.2716e-06 0)
(-6.09732e-07 5.15387e-05 0)
(2.46517e-06 4.49401e-05 0)
(-7.94575e-06 3.10379e-05 0)
(-3.83321e-05 4.44566e-05 0)
(-0.000108268 6.64534e-05 0)
(-0.000214094 0.000150547 0)
(-0.00036027 0.000282067 0)
(-0.000552527 0.000441904 0)
(-0.000794272 0.000616358 0)
(-0.00108768 0.000795934 0)
(-0.00143323 0.0009742 0)
(-0.00183036 0.0011467 0)
(-0.00227753 0.00131046 0)
(-0.00277244 0.00146359 0)
(-0.00331215 0.00160475 0)
(-0.00389337 0.00173328 0)
(-0.00451251 0.00184865 0)
(-0.00516579 0.00195079 0)
(-0.00584922 0.00203968 0)
(-0.00655887 0.00211549 0)
(-0.00729076 0.0021785 0)
(-0.00804089 0.00222901 0)
(-0.00880538 0.00226738 0)
(-0.00958039 0.00229405 0)
(-0.0103622 0.00230948 0)
(-0.0111473 0.0023141 0)
(-0.0119321 0.00230838 0)
(-0.0127132 0.00229279 0)
(-0.0134875 0.00226781 0)
(-0.0142519 0.00223387 0)
(-0.0150035 0.00219144 0)
(-0.0157395 0.00214105 0)
(-0.0164574 0.00208314 0)
(-0.0171545 0.00201813 0)
(-0.0178286 0.0019465 0)
(-0.0184776 0.00186871 0)
(-0.0190992 0.00178515 0)
(-0.0196917 0.00169627 0)
(-0.0202531 0.00160246 0)
(-0.0207818 0.00150407 0)
(-0.0212763 0.00140146 0)
(-0.0217351 0.00129502 0)
(-0.022157 0.00118506 0)
(-0.0225407 0.00107186 0)
(-0.0228852 0.000955755 0)
(-0.0231896 0.000837053 0)
(-0.023453 0.00071605 0)
(-0.0236747 0.000593043 0)
(-0.023854 0.000468333 0)
(-0.0239906 0.000342208 0)
(-0.0240841 0.000214969 0)
(-0.0241341 8.69517e-05 0)
(-0.0241404 -4.1508e-05 0)
(-0.0241029 -0.000170103 0)
(-0.0240219 -0.000298524 0)
(-0.0238972 -0.000426428 0)
(-0.0237293 -0.000553457 0)
(-0.0235184 -0.00067925 0)
(-0.0232651 -0.000803461 0)
(-0.0229699 -0.000925746 0)
(-0.0226335 -0.00104575 0)
(-0.0222568 -0.00116311 0)
(-0.0218409 -0.00127742 0)
(-0.0213867 -0.00138827 0)
(-0.0208955 -0.00149526 0)
(-0.0203688 -0.00159797 0)
(-0.019808 -0.00169597 0)
(-0.0192149 -0.00178881 0)
(-0.0185912 -0.00187603 0)
(-0.0179389 -0.00195715 0)
(-0.0172602 -0.00203168 0)
(-0.0165574 -0.00209916 0)
(-0.0158328 -0.0021591 0)
(-0.0150891 -0.00221101 0)
(-0.0143289 -0.00225441 0)
(-0.0135552 -0.00228883 0)
(-0.012771 -0.00231383 0)
(-0.0119795 -0.00232899 0)
(-0.0111841 -0.00233387 0)
(-0.0103884 -0.00232807 0)
(-0.00959583 -0.00231119 0)
(-0.00881023 -0.00228285 0)
(-0.00803543 -0.00224274 0)
(-0.00727542 -0.00219054 0)
(-0.00653422 -0.002126 0)
(-0.00581587 -0.00204893 0)
(-0.00512441 -0.00195919 0)
(-0.00446386 -0.0018568 0)
(-0.00383816 -0.00174188 0)
(-0.00325113 -0.00161477 0)
(-0.00270637 -0.00147602 0)
(-0.00220719 -0.00132649 0)
(-0.00175653 -0.00116745 0)
(-0.00135685 -0.00100065 0)
(-0.00100995 -0.000828501 0)
(-0.000716865 -0.000654328 0)
(-0.000477668 -0.000482576 0)
(-0.00029125 -0.000319204 0)
(-0.00015513 -0.000172093 0)
(-6.50518e-05 -5.15279e-05 0)
(-1.55855e-05 2.81929e-05 0)
(-2.36653e-07 4.20819e-05 0)
(-8.63145e-06 5.28698e-05 0)
(-4.86468e-05 0.000106981 0)
(-0.000141891 0.00016891 0)
(-0.000283421 0.000296355 0)
(-0.000474581 0.000475786 0)
(-0.000719618 0.000686956 0)
(-0.0010208 0.000914981 0)
(-0.00137937 0.00114921 0)
(-0.00179541 0.00138197 0)
(-0.00226791 0.00160781 0)
(-0.00279518 0.00182288 0)
(-0.00337462 0.00202461 0)
(-0.00400308 0.00221116 0)
(-0.00467702 0.00238144 0)
(-0.00539255 0.00253474 0)
(-0.00614553 0.00267075 0)
(-0.00693171 0.00278938 0)
(-0.0077467 0.00289073 0)
(-0.00858614 0.00297509 0)
(-0.00944567 0.00304279 0)
(-0.0103209 0.00309429 0)
(-0.0112077 0.00313009 0)
(-0.0121017 0.00315072 0)
(-0.0129991 0.00315675 0)
(-0.013896 0.00314885 0)
(-0.0147884 0.00312758 0)
(-0.0156728 0.00309355 0)
(-0.0165459 0.00304741 0)
(-0.0174042 0.00298975 0)
(-0.0182446 0.00292119 0)
(-0.0190642 0.0028424 0)
(-0.0198602 0.00275396 0)
(-0.0206298 0.00265644 0)
(-0.0213707 0.00255046 0)
(-0.0220804 0.0024366 0)
(-0.0227567 0.0023154 0)
(-0.0233975 0.00218738 0)
(-0.024001 0.00205307 0)
(-0.0245655 0.00191297 0)
(-0.0250892 0.00176755 0)
(-0.0255706 0.00161727 0)
(-0.0260086 0.00146257 0)
(-0.0264018 0.00130387 0)
(-0.0267491 0.00114163 0)
(-0.0270496 0.000976272 0)
(-0.0273025 0.000808199 0)
(-0.0275072 0.00063781 0)
(-0.0276629 0.000465526 0)
(-0.0277693 0.000291789 0)
(-0.0278261 0.000117036 0)
(-0.0278331 -5.83167e-05 0)
(-0.0277901 -0.000233844 0)
(-0.0276972 -0.000409091 0)
(-0.0275546 -0.00058359 0)
(-0.0273626 -0.000756882 0)
(-0.0271215 -0.0009285 0)
(-0.026832 -0.00109797 0)
(-0.0264947 -0.0012648 0)
(-0.0261104 -0.0014285 0)
(-0.0256802 -0.00158857 0)
(-0.0252051 -0.00174446 0)
(-0.0246864 -0.00189563 0)
(-0.0241255 -0.00204153 0)
(-0.0235241 -0.00218159 0)
(-0.0228838 -0.00231522 0)
(-0.0222066 -0.0024418 0)
(-0.0214945 -0.00256072 0)
(-0.0207498 -0.00267135 0)
(-0.0199749 -0.00277305 0)
(-0.0191724 -0.00286517 0)
(-0.0183451 -0.00294707 0)
(-0.0174959 -0.00301808 0)
(-0.0166278 -0.00307757 0)
(-0.0157442 -0.00312491 0)
(-0.0148484 -0.00315949 0)
(-0.0139443 -0.00318073 0)
(-0.0130354 -0.00318804 0)
(-0.0121258 -0.00318086 0)
(-0.0112196 -0.00315867 0)
(-0.0103208 -0.00312098 0)
(-0.00943395 -0.00306736 0)
(-0.00856332 -0.00299743 0)
(-0.00771343 -0.00291089 0)
(-0.00688877 -0.00280752 0)
(-0.00609383 -0.00268723 0)
(-0.00533302 -0.00255009 0)
(-0.00461071 -0.00239635 0)
(-0.00393107 -0.00222653 0)
(-0.00329804 -0.00204144 0)
(-0.00271525 -0.00184229 0)
(-0.00218592 -0.00163081 0)
(-0.00171274 -0.0014093 0)
(-0.00129781 -0.00118091 0)
(-0.000942415 -0.000949829 0)
(-0.000646949 -0.000721542 0)
(-0.000410713 -0.000503231 0)
(-0.000231738 -0.00030418 0)
(-0.000106484 -0.000136212 0)
(-3.12419e-05 -1.53298e-05 0)
(-2.96749e-06 3.11628e-05 0)
(-9.65242e-06 7.98491e-05 0)
(-5.95269e-05 0.000186915 0)
(-0.000176649 0.000300772 0)
(-0.000353405 0.000482424 0)
(-0.000589355 0.000718412 0)
(-0.000887273 0.000988192 0)
(-0.00124797 0.0012761 0)
(-0.00167184 0.00157047 0)
(-0.00215824 0.00186275 0)
(-0.00270585 0.00214648 0)
(-0.00331242 0.00241716 0)
(-0.00397513 0.0026715 0)
(-0.00469056 0.00290723 0)
(-0.00545484 0.00312275 0)
(-0.00626385 0.00331722 0)
(-0.00711313 0.00348998 0)
(-0.00799808 0.00364089 0)
(-0.00891402 0.00376998 0)
(-0.00985621 0.00387748 0)
(-0.0108199 0.00396378 0)
(-0.0118004 0.00402942 0)
(-0.0127931 0.00407495 0)
(-0.0137935 0.00410101 0)
(-0.0147971 0.00410832 0)
(-0.0157996 0.00409763 0)
(-0.0167969 0.00406971 0)
(-0.0177851 0.00402531 0)
(-0.0187603 0.00396521 0)
(-0.019719 0.00389024 0)
(-0.0206575 0.00380116 0)
(-0.0215727 0.00369873 0)
(-0.0224614 0.00358376 0)
(-0.0233206 0.00345701 0)
(-0.0241476 0.00331922 0)
(-0.0249397 0.00317113 0)
(-0.0256946 0.00301346 0)
(-0.0264099 0.00284686 0)
(-0.0270835 0.00267203 0)
(-0.0277134 0.00248962 0)
(-0.0282978 0.00230026 0)
(-0.0288352 0.00210451 0)
(-0.0293239 0.00190298 0)
(-0.0297626 0.00169626 0)
(-0.0301501 0.00148494 0)
(-0.0304854 0.00126954 0)
(-0.0307676 0.00105061 0)
(-0.0309958 0.000828713 0)
(-0.0311695 0.000604392 0)
(-0.0312881 0.000378205 0)
(-0.0313513 0.000150713 0)
(-0.0313588 -7.75299e-05 0)
(-0.0313106 -0.000305967 0)
(-0.0312067 -0.000534016 0)
(-0.0310473 -0.000761073 0)
(-0.0308327 -0.000986539 0)
(-0.0305634 -0.00120981 0)
(-0.03024 -0.00143029 0)
(-0.0298634 -0.00164733 0)
(-0.0294343 -0.00186029 0)
(-0.0289539 -0.0020685 0)
(-0.0284234 -0.00227125 0)
(-0.0278443 -0.00246785 0)
(-0.0272182 -0.0026576 0)
(-0.0265467 -0.00283976 0)
(-0.025832 -0.00301354 0)
(-0.025076 -0.00317816 0)
(-0.024281 -0.00333282 0)
(-0.0234497 -0.00347674 0)
(-0.0225846 -0.00360909 0)
(-0.0216888 -0.00372903 0)
(-0.020765 -0.00383574 0)
(-0.0198167 -0.00392838 0)
(-0.0188473 -0.00400613 0)
(-0.0178604 -0.00406818 0)
(-0.0168598 -0.00411374 0)
(-0.0158495 -0.00414206 0)
(-0.0148338 -0.00415238 0)
(-0.0138168 -0.004144 0)
(-0.0128031 -0.00411624 0)
(-0.0117974 -0.00406852 0)
(-0.0108042 -0.00400028 0)
(-0.00982848 -0.00391109 0)
(-0.00887507 -0.00380059 0)
(-0.00794887 -0.00366857 0)
(-0.00705472 -0.00351497 0)
(-0.00619744 -0.00333994 0)
(-0.00538173 -0.00314389 0)
(-0.00461211 -0.00292751 0)
(-0.00389285 -0.00269192 0)
(-0.00322788 -0.00243869 0)
(-0.00262068 -0.00217 0)
(-0.00207427 -0.00188878 0)
(-0.00159104 -0.00159885 0)
(-0.00117265 -0.00130523 0)
(-0.000819928 -0.00101435 0)
(-0.000532752 -0.000734442 0)
(-0.00030984 -0.000475961 0)
(-0.000148524 -0.000251961 0)
(-4.69523e-05 -7.96896e-05 0)
(-5.64064e-06 1.20799e-05 0)
(-1.07901e-05 0.000112528 0)
(-7.10769e-05 0.000284247 0)
(-0.000211612 0.000462255 0)
(-0.00042335 0.000708478 0)
(-0.000703731 0.00100968 0)
(-0.0010539 0.00134548 0)
(-0.00147371 0.00169949 0)
(-0.00196239 0.00205949 0)
(-0.00251872 0.00241598 0)
(-0.00314065 0.00276196 0)
(-0.00382553 0.00309218 0)
(-0.00457016 0.00340274 0)
(-0.00537083 0.00369093 0)
(-0.00622333 0.00395477 0)
(-0.00712321 0.00419305 0)
(-0.00806579 0.00440503 0)
(-0.00904611 0.00459032 0)
(-0.0100592 0.00474893 0)
(-0.0111 0.00488101 0)
(-0.0121634 0.00498703 0)
(-0.0132444 0.00506754 0)
(-0.0143381 0.00512315 0)
(-0.0154395 0.00515466 0)
(-0.016544 0.00516293 0)
(-0.0176467 0.0051488 0)
(-0.0187434 0.00511317 0)
(-0.0198298 0.00505702 0)
(-0.0209016 0.00498129 0)
(-0.0219549 0.00488695 0)
(-0.022986 0.00477498 0)
(-0.0239913 0.00464631 0)
(-0.0249673 0.00450189 0)
(-0.0259109 0.0043427 0)
(-0.026819 0.00416967 0)
(-0.0276888 0.00398367 0)
(-0.0285176 0.00378557 0)
(-0.0293028 0.00357627 0)
(-0.0300422 0.00335661 0)
(-0.0307337 0.00312738 0)
(-0.0313752 0.00288935 0)
(-0.031965 0.00264331 0)
(-0.0325014 0.00239 0)
(-0.0329829 0.00213016 0)
(-0.0334082 0.00186451 0)
(-0.0337762 0.00159377 0)
(-0.0340858 0.0013186 0)
(-0.0343362 0.00103972 0)
(-0.0345267 0.000757822 0)
(-0.0346567 0.00047361 0)
(-0.0347259 0.000187784 0)
(-0.0347341 -9.89657e-05 0)
(-0.034681 -0.000385935 0)
(-0.0345668 -0.000672386 0)
(-0.0343917 -0.000957568 0)
(-0.0341559 -0.00124074 0)
(-0.0338602 -0.00152115 0)
(-0.033505 -0.00179804 0)
(-0.0330914 -0.0020706 0)
(-0.0326202 -0.00233802 0)
(-0.0320927 -0.00259944 0)
(-0.0315102 -0.00285401 0)
(-0.0308744 -0.00310087 0)
(-0.030187 -0.00333912 0)
(-0.0294498 -0.00356782 0)
(-0.028665 -0.00378601 0)
(-0.027835 -0.00399272 0)
(-0.0269621 -0.00418696 0)
(-0.0260493 -0.00436775 0)
(-0.0250993 -0.00453406 0)
(-0.0241154 -0.00468486 0)
(-0.0231009 -0.00481912 0)
(-0.0220592 -0.00493581 0)
(-0.0209941 -0.00503391 0)
(-0.0199096 -0.00511242 0)
(-0.0188099 -0.00517038 0)
(-0.0176993 -0.00520682 0)
(-0.0165822 -0.00522084 0)
(-0.0154634 -0.00521156 0)
(-0.0143477 -0.00517817 0)
(-0.01324 -0.00511995 0)
(-0.0121456 -0.00503626 0)
(-0.0110694 -0.00492659 0)
(-0.0100168 -0.00479055 0)
(-0.00899308 -0.00462792 0)
(-0.00800334 -0.00443869 0)
(-0.00705277 -0.00422311 0)
(-0.00614639 -0.00398174 0)
(-0.00528905 -0.00371551 0)
(-0.00448534 -0.0034258 0)
(-0.00373949 -0.00311456 0)
(-0.00305533 -0.00278444 0)
(-0.00243618 -0.00243892 0)
(-0.00188483 -0.00208251 0)
(-0.00140335 -0.00172096 0)
(-0.00099312 -0.00136156 0)
(-0.000654683 -0.00101341 0)
(-0.000387589 -0.000687916 0)
(-0.000190135 -0.000399047 0)
(-6.23414e-05 -0.000164905 0)
(-8.19431e-06 -1.50467e-05 0)
(-1.20351e-05 0.000150796 0)
(-8.25662e-05 0.000399206 0)
(-0.000246449 0.00065302 0)
(-0.000492695 0.000973696 0)
(-0.000816647 0.00134909 0)
(-0.00121829 0.00175813 0)
(-0.00169636 0.00218457 0)
(-0.00224913 0.00261548 0)
(-0.00287446 0.00304094 0)
(-0.00356972 0.0034533 0)
(-0.00433177 0.00384669 0)
(-0.00515696 0.0042168 0)
(-0.00604117 0.00456038 0)
(-0.00697992 0.00487522 0)
(-0.0079684 0.00515968 0)
(-0.00900161 0.0054129 0)
(-0.0100744 0.00563433 0)
(-0.0111813 0.00582388 0)
(-0.0123172 0.00598173 0)
(-0.0134765 0.00610828 0)
(-0.014654 0.00620412 0)
(-0.0158443 0.00627002 0)
(-0.0170423 0.00630685 0)
(-0.018243 0.00631557 0)
(-0.0194413 0.0062972 0)
(-0.0206326 0.00625279 0)
(-0.0218122 0.00618347 0)
(-0.0229757 0.0060904 0)
(-0.0241189 0.00597471 0)
(-0.0252378 0.00583754 0)
(-0.0263283 0.00568006 0)
(-0.0273871 0.00550341 0)
(-0.0284105 0.00530873 0)
(-0.0293952 0.00509712 0)
(-0.0303383 0.00486969 0)
(-0.0312369 0.00462749 0)
(-0.0320882 0.00437158 0)
(-0.0328898 0.00410296 0)
(-0.0336393 0.00382264 0)
(-0.0343347 0.00353156 0)
(-0.034974 0.00323066 0)
(-0.0355553 0.00292087 0)
(-0.0360772 0.00260311 0)
(-0.0365381 0.00227825 0)
(-0.0369369 0.00194714 0)
(-0.0372724 0.00161065 0)
(-0.0375437 0.00126965 0)
(-0.0377502 0.000924987 0)
(-0.037891 0.000577515 0)
(-0.037966 0.000228078 0)
(-0.0379747 -0.000122465 0)
(-0.0379171 -0.000473241 0)
(-0.0377932 -0.000823353 0)
(-0.0376033 -0.0011719 0)
(-0.0373477 -0.00151799 0)
(-0.037027 -0.0018607 0)
(-0.036642 -0.00219908 0)
(-0.0361936 -0.00253216 0)
(-0.0356828 -0.00285892 0)
(-0.035111 -0.00317837 0)
(-0.0344796 -0.00348945 0)
(-0.0337903 -0.00379111 0)
(-0.033045 -0.00408224 0)
(-0.0322458 -0.0043617 0)
(-0.031395 -0.00462835 0)
(-0.030495 -0.004881 0)
(-0.0295486 -0.00511846 0)
(-0.0285587 -0.00533952 0)
(-0.0275285 -0.00554296 0)
(-0.0264613 -0.00572753 0)
(-0.0253607 -0.00589198 0)
(-0.0242306 -0.00603508 0)
(-0.0230748 -0.0061556 0)
(-0.0218977 -0.00625234 0)
(-0.0207038 -0.00632412 0)
(-0.0194977 -0.00636979 0)
(-0.0182841 -0.00638828 0)
(-0.0170682 -0.00637853 0)
(-0.015855 -0.00633959 0)
(-0.0146498 -0.00627063 0)
(-0.0134582 -0.0061709 0)
(-0.0122855 -0.00603982 0)
(-0.0111374 -0.00587697 0)
(-0.0100194 -0.00568211 0)
(-0.00893713 -0.00545531 0)
(-0.00789594 -0.0051969 0)
(-0.00690123 -0.00490761 0)
(-0.00595816 -0.00458859 0)
(-0.00507161 -0.00424154 0)
(-0.00424615 -0.00386876 0)
(-0.00348597 -0.00347334 0)
(-0.00279479 -0.00305926 0)
(-0.00217581 -0.00263165 0)
(-0.00163161 -0.00219693 0)
(-0.00116415 -0.0017631 0)
(-0.000774734 -0.00134003 0)
(-0.000463812 -0.000939832 0)
(-0.000230689 -0.000577139 0)
(-7.7196e-05 -0.000270581 0)
(-1.06013e-05 -4.99461e-05 0)
(-1.33365e-05 0.000194828 0)
(-9.39505e-05 0.000531688 0)
(-0.000280836 0.000872164 0)
(-0.000560737 0.00127766 0)
(-0.000927319 0.00173551 0)
(-0.00137954 0.00222523 0)
(-0.00191484 0.00273029 0)
(-0.00253056 0.00323752 0)
(-0.00322381 0.00373658 0)
(-0.00399131 0.00421931 0)
(-0.00482925 0.00467943 0)
(-0.00573358 0.00511214 0)
(-0.00669977 0.00551387 0)
(-0.00772293 0.00588203 0)
(-0.00879796 0.0062148 0)
(-0.00991954 0.00651101 0)
(-0.0110822 0.00677006 0)
(-0.0122802 0.00699172 0)
(-0.013508 0.0071762 0)
(-0.01476 0.00732387 0)
(-0.0160305 0.00743534 0)
(-0.0173139 0.00751153 0)
(-0.0186047 0.00755339 0)
(-0.0198977 0.00756196 0)
(-0.0211875 0.00753843 0)
(-0.0224693 0.00748408 0)
(-0.023738 0.00740018 0)
(-0.024989 0.00728803 0)
(-0.0262178 0.00714899 0)
(-0.0274202 0.0069844 0)
(-0.028592 0.00679562 0)
(-0.0297294 0.006584 0)
(-0.0308285 0.00635088 0)
(-0.0318861 0.00609756 0)
(-0.0328989 0.00582533 0)
(-0.0338637 0.00553546 0)
(-0.0347776 0.00522921 0)
(-0.0356381 0.00490777 0)
(-0.0364427 0.0045723 0)
(-0.0371891 0.00422397 0)
(-0.0378753 0.0038639 0)
(-0.0384992 0.00349321 0)
(-0.0390593 0.00311298 0)
(-0.039554 0.00272426 0)
(-0.039982 0.00232808 0)
(-0.0403421 0.00192547 0)
(-0.0406332 0.0015175 0)
(-0.0408548 0.00110517 0)
(-0.041006 0.000689484 0)
(-0.0410864 0.000271468 0)
(-0.0410958 -0.000147846 0)
(-0.041034 -0.000567407 0)
(-0.040901 -0.000986155 0)
(-0.0406972 -0.00140302 0)
(-0.0404229 -0.00181694 0)
(-0.0400787 -0.00222682 0)
(-0.0396656 -0.0026315 0)
(-0.0391843 -0.00302982 0)
(-0.0386361 -0.00342059 0)
(-0.0380223 -0.00380261 0)
(-0.0373446 -0.00417464 0)
(-0.0366048 -0.0045354 0)
(-0.0358048 -0.00488358 0)
(-0.0349469 -0.00521784 0)
(-0.0340334 -0.00553679 0)
(-0.0330671 -0.00583905 0)
(-0.0320509 -0.00612321 0)