/*--------------------------------*- C++ -*----------------------------------*\
  =========                 |
  \\      /  F ield         | OpenFOAM: The Open Source CFD Toolbox
   \\    /   O peration     | Website:  https://openfoam.org
    \\  /    A nd           | Version:  11
     \\/     M anipulation  |
\*---------------------------------------------------------------------------*/
FoamFile
{
    format      ascii;
    class       volScalarField;
    location    "3.2";
    object      p;
}
// * * * * * * * * * * * * * * * * * * * * * * * * * * * * * * * * * * * * * //

dimensions      [0 2 -2 0 0 0 0];

internalField   nonuniform List<scalar> 
10100
(
5.14029e-08
9.28698e-05
-0.000189025
-0.00100137
-0.00220026
-0.00363278
-0.0052081
-0.00685789
-0.00853335
-0.0101945
-0.0118097
-0.0133523
-0.0147978
-0.0161317
-0.0173428
-0.018419
-0.0193494
-0.0201285
-0.0207515
-0.0212153
-0.0215181
-0.021655
-0.0216224
-0.0214212
-0.0210546
-0.0205251
-0.019834
-0.0189832
-0.0179753
-0.0168131
-0.0155006
-0.0140426
-0.0124439
-0.0107091
-0.00884285
-0.00685264
-0.00474663
-0.00253086
-0.000210182
0.0022092
0.00471906
0.00731064
0.00997613
0.0127082
0.0154993
0.0183414
0.0212269
0.0241482
0.0270963
0.0300612
0.0330333
0.0360043
0.038967
0.0419131
0.0448335
0.0477182
0.050559
0.0533484
0.0560781
0.0587385
0.0613201
0.0638144
0.066214
0.0685118
0.0707004
0.0727718
0.0747188
0.0765358
0.0782171
0.0797575
0.081152
0.0823963
0.083487
0.0844208
0.0851951
0.0858076
0.0862565
0.0865413
0.0866638
0.0866279
0.0864379
0.0860976
0.0856113
0.0849851
0.0842279
0.0833509
0.0823666
0.0812891
0.0801342
0.0789204
0.0776701
0.0764101
0.0751725
0.0739938
0.0729157
0.0719836
0.0712467
0.0707566
0.0705632
0.0706459
-5.54327e-05
-0.000247308
-0.000675851
-0.00146289
-0.00251708
-0.00374441
-0.00508707
-0.0065017
-0.00794536
-0.00938643
-0.0107988
-0.0121547
-0.0134322
-0.0146161
-0.0156934
-0.016652
-0.0174822
-0.0181739
-0.018721
-0.0191215
-0.0193723
-0.0194705
-0.0194137
-0.0192004
-0.0188316
-0.0183091
-0.0176341
-0.0168087
-0.0158354
-0.0147159
-0.013453
-0.0120517
-0.0105174
-0.00885362
-0.00706482
-0.00515831
-0.00314174
-0.00102035
0.00120144
0.00351711
0.00591862
0.00839823
0.010949
0.0135638
0.0162346
0.0189535
0.0217138
0.0245084
0.0273285
0.0301646
0.0330077
0.0358496
0.0386833
0.0415009
0.044293
0.0470507
0.0497673
0.0524353
0.0550461
0.0575902
0.0600589
0.0624446
0.0647406
0.0669404
0.0690364
0.0710206
0.0728868
0.0746303
0.076246
0.0777284
0.0790728
0.0802756
0.0813341
0.0822454
0.083007
0.0836167
0.0840728
0.0843753
0.0845265
0.0845306
0.0843921
0.0841145
0.0837021
0.0831617
0.0825023
0.0817351
0.0808723
0.0799274
0.0789155
0.0778543
0.0767648
0.0756718
0.0746038
0.0735926
0.0726724
0.0718796
0.0712509
0.0708239
0.0706455
0.0707272
8.82565e-05
-0.000290227
-0.000819636
-0.00160146
-0.00257576
-0.0036777
-0.00487541
-0.006131
-0.0074138
-0.00869796
-0.00995823
-0.0111726
-0.0123225
-0.0133893
-0.0143604
-0.0152256
-0.0159736
-0.0165956
-0.0170841
-0.0174341
-0.0176429
-0.0177088
-0.01763
-0.0174055
-0.0170342
-0.0165162
-0.0158533
-0.0150479
-0.0141015
-0.0130158
-0.0117933
-0.0104383
-0.00895554
-0.00734893
-0.00562315
-0.00378514
-0.00184143
0.000203454
0.00234498
0.00457636
0.00688971
0.00927813
0.0117352
0.0142537
0.0168261
0.0194449
0.022104
0.0247963
0.0275125
0.0302433
0.0329811
0.0357187
0.0384486
0.0411622
0.0438504
0.0465057
0.049122
0.0516923
0.0542072
0.0566575
0.0590353
0.061334
0.0635471
0.0656679
0.0676889
0.0696027
0.0714038
0.0730879
0.0746504
0.0760857
0.0773892
0.0785584
0.079591
0.0804845
0.0812359
0.0818427
0.0823037
0.0826194
0.0827927
0.0828278
0.0827289
0.0824997
0.0821448
0.0816712
0.0810879
0.0804057
0.079636
0.0787912
0.0778858
0.0769365
0.075963
0.0749882
0.0740375
0.0731381
0.072319
0.0716104
0.0710424
0.0706464
0.0704687
0.0705354
0.000295118
-0.000193504
-0.000782083
-0.00155133
-0.0024717
-0.00349331
-0.00459262
-0.00573932
-0.00690859
-0.00807699
-0.00922324
-0.0103309
-0.011379
-0.0123527
-0.0132396
-0.0140272
-0.0147062
-0.0152694
-0.0157091
-0.0160185
-0.0161941
-0.0162333
-0.0161351
-0.0158995
-0.0155251
-0.0150109
-0.014358
-0.0135684
-0.0126436
-0.0115857
-0.0103972
-0.00908114
-0.00764168
-0.00608327
-0.00441093
-0.00263104
-0.000749051
0.0012311
0.00330452
0.00546441
0.00770355
0.0100153
0.012393
0.0148293
0.0173176
0.0198521
0.0224267
0.025033
0.0276613
0.0303033
0.0329526
0.0356026
0.0382451
0.0408715
0.043473
0.0460429
0.0485756
0.0510636
0.0534979
0.0558698
0.0581722
0.0603988
0.0625428
0.0645974
0.0665553
0.06841
0.0701565
0.0717912
0.0733088
0.0747041
0.0759731
0.077114
0.0781251
0.0790034
0.0797454
0.0803488
0.0808128
0.0811384
0.0813289
0.0813885
0.0813211
0.0811303
0.080821
0.0804001
0.0798769
0.0792611
0.078563
0.0777941
0.0769679
0.0761006
0.0752107
0.0743187
0.0734468
0.0726185
0.0718587
0.0711935
0.0706495
0.0702542
0.0700476
0.0700541
0.000600504
3.37444e-05
-0.000598987
-0.00136293
-0.00224505
-0.00321161
-0.00423797
-0.0053027
-0.00638368
-0.0074601
-0.00851605
-0.00953306
-0.0104956
-0.0113903
-0.0122045
-0.0129259
-0.0135446
-0.0140538
-0.0144477
-0.0147201
-0.0148657
-0.0148815
-0.0147667
-0.0145204
-0.0141417
-0.0136308
-0.0129876
-0.0122123
-0.011307
-0.0102743
-0.00911663
-0.00783608
-0.00643642
-0.00492273
-0.00330002
-0.00157342
0.00025218
0.00217249
0.00418244
0.00627591
0.0084468
0.0106883
0.0129926
0.0153529
0.017764
0.020221
0.0227174
0.0252442
0.0277918
0.0303527
0.0329212
0.0354907
0.0380528
0.040599
0.0431214
0.0456136
0.0480701
0.0504829
0.0528429
0.0551429
0.057377
0.0595383
0.0616191
0.0636126
0.0655125
0.0673131
0.06901
0.070599
0.0720752
0.0734334
0.0746706
0.0757855
0.0767764
0.0776398
0.0783721
0.0789712
0.0794369
0.0797707
0.0799758
0.0800564
0.0800163
0.0798589
0.0795892
0.0792141
0.0787423
0.0781826
0.0775443
0.0768379
0.0760762
0.0752749
0.0744508
0.0736218
0.0728068
0.072026
0.0713009
0.0706546
0.0701102
0.0696918
0.0694269
0.0693303
0.00105232
0.00041106
-0.000266918
-0.00104053
-0.00190866
-0.00283872
-0.00381805
-0.00482374
-0.00583815
-0.00684612
-0.00783059
-0.00877564
-0.00966873
-0.010497
-0.0112492
-0.0119148
-0.0124834
-0.0129476
-0.0133009
-0.013539
-0.0136575
-0.0136531
-0.0135239
-0.0132684
-0.0128861
-0.0123776
-0.0117423
-0.0109801
-0.0100929
-0.0090834
-0.00795288
-0.00670395
-0.00534089
-0.00386857
-0.0022912
-0.000612834
0.00116161
0.00302713
0.0049791
0.00701227
0.00912058
0.0112971
0.0135342
0.0158257
0.018167
0.0205535
0.0229783
0.0254319
0.0279054
0.0303929
0.0328887
0.0353851
0.0378736
0.0403467
0.0427977
0.0452199
0.047607
0.0499511
0.0522441
0.0544795
0.0566519
0.0587537
0.0607768
0.0627148
0.064562
0.0663137
0.0679655
0.0695132
0.0709515
0.072276
0.0734841
0.074575
0.0755469
0.0763959
0.0771181
0.0777122
0.0781786
0.0785192
0.0787369
0.0788352
0.0788179
0.0786887
0.0784524
0.0781158
0.0776867
0.0771729
0.0765827
0.0759259
0.0752151
0.0744647
0.0736898
0.0729054
0.0721272
0.0713727
0.0706611
0.0700124
0.0694468
0.0689848
0.0686382
0.0684088
0.00164689
0.000923759
0.000187775
-0.000609704
-0.00148021
-0.00239833
-0.00334856
-0.00431667
-0.00528593
-0.00624314
-0.00717383
-0.00806513
-0.00890407
-0.00967846
-0.0103794
-0.0109981
-0.0115249
-0.0119514
-0.0122714
-0.0124804
-0.012575
-0.0125527
-0.0124106
-0.0121476
-0.011763
-0.0112563
-0.0106273
-0.0098766
-0.00900595
-0.00801688
-0.00691019
-0.00568924
-0.00435924
-0.00292415
-0.00138711
0.000247909
0.00197603
0.00379231
0.00569237
0.00767161
0.00972387
0.0118414
0.0140172
0.0162467
0.0185263
0.0208499
0.0232092
0.0255963
0.0280036
0.0304253
0.0328554
0.0352859
0.0377085
0.0401167
0.0425037
0.0448628
0.0471874
0.0494699
0.0517031
0.0538812
0.0559983
0.0580466
0.0600178
0.0619057
0.0637061
0.0654145
0.0670263
0.0685368
0.0699412
0.0712355
0.0724177
0.0734871
0.0744413
0.0752762
0.0759884
0.0765772
0.0770438
0.0773902
0.0776183
0.0777311
0.0777322
0.0776257
0.0774165
0.0771109
0.0767155
0.0762372
0.0756836
0.0750643
0.0743912
0.0736773
0.0729354
0.0721777
0.0714178
0.0706709
0.0699541
0.0692846
0.06868
0.0681571
0.0677114
0.067331
0.00236442
0.00154425
0.000743145
-9.12634e-05
-0.00098197
-0.00190365
-0.00284477
-0.00379241
-0.00473413
-0.00565732
-0.00654972
-0.0074006
-0.00819876
-0.00893282
-0.00959364
-0.0101738
-0.0106653
-0.01106
-0.0113525
-0.011538
-0.0116128
-0.0115746
-0.0114213
-0.0111519
-0.0107656
-0.0102606
-0.00963713
-0.00889659
-0.00804014
-0.00706849
-0.00598284
-0.00478701
-0.00348647
-0.00208433
-0.00058252
0.00101437
0.00270052
0.00447229
0.00632677
0.00825851
0.0102601
0.0123244
0.014446
0.0166209
0.0188449
0.0211114
0.0234123
0.0257401
0.0280882
0.0304512
0.0328225
0.0351937
0.0375576
0.039908
0.0422382
0.0445409
0.0468092
0.0490367
0.0512169
0.0533443
0.0554124
0.0574126
0.0593369
0.0611805
0.0629397
0.0646101
0.0661864
0.067664
0.0690384
0.0703062
0.0714657
0.0725159
0.0734538
0.0742755
0.0749781
0.0755621
0.076029
0.07638
0.0766164
0.0767404
0.0767558
0.076667
0.0764791
0.0761973
0.0758271
0.0753747
0.0748473
0.0742542
0.0736067
0.0729157
0.0721919
0.0714454
0.0706878
0.0699328
0.0691953
0.0684898
0.0678315
0.0672342
0.0666771
0.0661355
0.00317577
0.00224964
0.001374
0.000491306
-0.000432807
-0.00137281
-0.00231973
-0.00326295
-0.00419146
-0.00509482
-0.00596304
-0.00678534
-0.00755301
-0.0082574
-0.00888875
-0.00943925
-0.00990209
-0.0102709
-0.0105406
-0.0107068
-0.0107656
-0.0107142
-0.0105517
-0.0102769
-0.0098885
-0.00938522
-0.0087671
-0.00803539
-0.00719057
-0.00623325
-0.00516618
-0.00399338
-0.00271843
-0.00134421
0.000126333
0.00168895
0.00333872
0.00507201
0.0068858
0.00877481
0.0107316
0.0127493
0.0148232
0.01695
0.0191248
0.0213401
0.0235885
0.025864
0.0281603
0.0304714
0.03279
0.0351085
0.0374204
0.03972
0.0419998
0.044252
0.0464703
0.0486493
0.0507832
0.052866
0.0548904
0.0568475
0.0587305
0.0605352
0.0622587
0.0638959
0.0654411
0.0668898
0.0682382
0.0694834
0.0706235
0.0716567
0.0725798
0.0733894
0.0740839
0.0746641
0.0751314
0.0754859
0.0757279
0.0758599
0.075886
0.0758108
0.0756387
0.0753739
0.0750212
0.074586
0.0740755
0.0734985
0.072865
0.0721844
0.0714654
0.0707167
0.0699483
0.069172
0.0684008
0.0676469
0.0669231
0.0662413
0.065565
0.0648574
0.00405666
0.00301492
0.00205515
0.00111695
0.000150525
-0.000822236
-0.0017882
-0.00273925
-0.00366694
-0.00456346
-0.00541901
-0.0062238
-0.006971
-0.0076537
-0.00826346
-0.00879231
-0.00923387
-0.00958276
-0.00983421
-0.00998452
-0.0100301
-0.00996842
-0.00979887
-0.00951951
-0.00912891
-0.0086274
-0.00801442
-0.00728949
-0.00645403
-0.00550967
-0.00445865
-0.00330499
-0.00205227
-0.000702552
0.000741136
0.00227398
0.00389179
0.00559196
0.0073709
0.00922222
0.011139
0.0131162
0.0151495
0.0172347
0.0193657
0.0215354
0.023738
0.0259682
0.0282194
0.0304846
0.032757
0.0350296
0.0372964
0.0395514
0.0417866
0.0439942
0.0461689
0.0483061
0.0504
0.0524437
0.0544293
0.0563487
0.0581957
0.0599673
0.0616601
0.0632685
0.0647866
0.0662105
0.0675372
0.0687637
0.0698874
0.0709058
0.0718161
0.0726155
0.0733035
0.0738809
0.0743483
0.0747047
0.0749502
0.0750875
0.0751212
0.0750556
0.0748943
0.0746404
0.0742979
0.0738723
0.0733701
0.0727997
0.0721697
0.0714884
0.0707629
0.0700007
0.0692103
0.0684019
0.0675863
0.0667737
0.0659756
0.0652019
0.0644021
0.0635276
0.00498327
0.00381727
0.00276848
0.00176699
0.000747932
-0.000265188
-0.00126078
-0.00223141
-0.00316978
-0.00406933
-0.00492235
-0.00572042
-0.0064567
-0.00712522
-0.00771968
-0.00823321
-0.00865981
-0.00899442
-0.00923232
-0.00937001
-0.00940519
-0.00933591
-0.00916062
-0.00887769
-0.00848581
-0.0079854
-0.00737635
-0.00665726
-0.00582922
-0.00489571
-0.00385915
-0.00272162
-0.00148651
-0.000157521
0.00126217
0.00276938
0.00436078
0.00603295
0.00778136
0.00959987
0.0114828
0.0134259
0.0154245
0.0174732
0.0195659
0.0216966
0.0238605
0.026052
0.0282642
0.0304898
0.0327225
0.034956
0.0371843
0.0394005
0.0415967
0.0437658
0.0459034
0.0480055
0.0500652
0.052075
0.054027
0.055914
0.0577307
0.0594743
0.061141
0.0627246
0.0642197
0.0656231
0.0669322
0.0681437
0.0692538
0.0702598
0.0711594
0.071951
0.0726341
0.0732092
0.0736759
0.0740328
0.0742799
0.0744203
0.0744588
0.0743993
0.0742441
0.0739955
0.073657
0.0732336
0.0727319
0.0721594
0.0715238
0.0708323
0.0700907
0.0693054
0.0684836
0.0676339
0.0667655
0.0658866
0.0650074
0.0641372
0.0632118
0.0621717
0.00593398
0.00464007
0.00349632
0.00242187
0.00134493
0.00028438
-0.000749573
-0.00174934
-0.00270758
-0.00361867
-0.00447793
-0.00527815
-0.00601209
-0.00667444
-0.00726011
-0.0077641
-0.00818103
-0.00850573
-0.00873405
-0.0088628
-0.00889068
-0.00881606
-0.00863604
-0.00834993
-0.00795816
-0.00745928
-0.00685178
-0.00613654
-0.00531592
-0.00439194
-0.00336618
-0.00224137
-0.0010215
0.0002898
0.00168992
0.00317634
0.00474572
0.00639398
0.00811642
0.00990768
0.011763
0.0136779
0.015647
0.0176643
0.0197246
0.021823
0.0239548
0.0261143
0.0282936
0.0304858
0.0326855
0.0348866
0.0370825
0.0392659
0.0414289
0.0435657
0.045673
0.0477461
0.0497771
0.0517581
0.0536818
0.055542
0.0573339
0.0590543
0.0606989
0.0622617
0.0637379
0.0651251
0.0664205
0.06762
0.0687192
0.0697154
0.0706069
0.0713927
0.0720723
0.0726453
0.0731106
0.0734667
0.0737139
0.0738557
0.0738966
0.0738397
0.0736864
0.0734381
0.0730976
0.07267
0.0721616
0.0715796
0.0709308
0.0702209
0.0694549
0.0686381
0.0677767
0.0668786
0.0659509
0.0649998
0.064035
0.0630653
0.0620137
0.0608108
0.00689244
0.00546659
0.00422131
0.00307095
0.00192794
0.000811655
-0.000266759
-0.0013023
-0.00228842
-0.00321959
-0.00409219
-0.0049009
-0.00563935
-0.00630281
-0.00688675
-0.00738709
-0.00779901
-0.00811737
-0.00833971
-0.00846393
-0.00848709
-0.00840754
-0.00822463
-0.00793744
-0.0075451
-0.00704649
-0.00644063
-0.00572879
-0.00491366
-0.00399682
-0.00297937
-0.00186463
-0.000657228
0.000639657
0.00202436
0.00349453
0.0050461
0.00667452
0.00837567
0.0101452
0.0119787
0.0138709
0.0158154
0.0178067
0.0198408
0.0219135
0.0240199
0.0261533
0.0283059
0.0304714
0.032645
0.0348201
0.0369895
0.0391456
0.0412818
0.0433933
0.0454769
0.0475267
0.0495343
0.0514918
0.0533929
0.0552321
0.0570044
0.058706
0.0603326
0.0618786
0.0633403
0.0647153
0.0660007
0.0671913
0.0682822
0.069271
0.0701567
0.0709384
0.0716154
0.0721865
0.07265
0.0730046
0.073251
0.0733925
0.0734335
0.0733761
0.0732205
0.0729675
0.0726199
0.0721826
0.0716619
0.0710643
0.0703955
0.0696601
0.0688622
0.0680066
0.0670991
0.0661466
0.0651544
0.0641269
0.0630733
0.0620023
0.0608251
0.0594631
0.00783959
0.00627942
0.0049311
0.00369994
0.00248503
0.00130684
0.000177677
-0.000899611
-0.00192068
-0.00287948
-0.00377187
-0.00459468
-0.0053433
-0.00601372
-0.00660195
-0.00710333
-0.00751438
-0.00783134
-0.00805126
-0.00817301
-0.00819411
-0.00811195
-0.00792689
-0.00763903
-0.00724626
-0.00674712
-0.00614227
-0.00543348
-0.00462236
-0.00370995
-0.00269819
-0.00159133
-0.000393788
0.000892291
0.00226577
0.00372374
0.00526129
0.00687403
0.00855897
0.0103125
0.0121294
0.0140034
0.0159281
0.0178992
0.0199136
0.0219671
0.024054
0.0261672
0.0282994
0.0304452
0.0325994
0.0347546
0.0369032
0.0390383
0.0411545
0.0432477
0.0453137
0.047346
0.0493357
0.0512755
0.05316
0.0549838
0.0567416
0.058429
0.0600419
0.0615757
0.0630271
0.0643941
0.0656728
0.0668572
0.0679423
0.0689259
0.0698078
0.0705871
0.0712623
0.0718317
0.0722934
0.0726461
0.0728909
0.0730311
0.0730701
0.0730089
0.072847
0.0725849
0.0722257
0.0717745
0.0712371
0.0706188
0.069924
0.0691565
0.0683201
0.0674197
0.0664609
0.0654491
0.0643884
0.0632811
0.0621363
0.060963
0.0596619
0.0581454
0.00875951
0.00706336
0.00560991
0.00429471
0.0030053
0.00176048
0.000574308
-0.000550418
-0.0016113
-0.00260341
-0.00352215
-0.00436516
-0.00512937
-0.00581138
-0.00640839
-0.00691564
-0.00732943
-0.0076485
-0.00787024
-0.00799165
-0.00801137
-0.00792896
-0.00774387
-0.00745484
-0.00706053
-0.00656098
-0.00595725
-0.00525018
-0.00444068
-0.00353044
-0.00252264
-0.00142161
-0.000230701
0.00104866
0.00241476
0.00386378
0.00539085
0.00699261
0.00866687
0.0104095
0.0122142
0.0140744
0.0159845
0.0179415
0.0199427
0.0219828
0.0240557
0.0261546
0.0282731
0.030406
0.032547
0.0346882
0.0368219
0.0389428
0.0410461
0.0431275
0.0451822
0.0472026
0.0491802
0.0511084
0.0529825
0.0547967
0.056545
0.058223
0.0598268
0.0613531
0.062799
0.0641619
0.065437
0.0666177
0.0676991
0.0686798
0.0695599
0.0703383
0.0710127
0.0715807
0.0720404
0.0723911
0.0726341
0.0727719
0.0728067
0.0727385
0.0725665
0.0722917
0.0719176
0.0714494
0.0708917
0.0702481
0.0695218
0.0687163
0.0678362
0.0668863
0.0658718
0.0647969
0.063664
0.0624742
0.0612367
0.0599612
0.0585385
0.0568721
0.00964023
0.0078074
0.00624474
0.00484364
0.00347714
0.0021624
0.000914441
-0.000262853
-0.00136779
-0.00239773
-0.00334805
-0.00421641
-0.00500172
-0.0057004
-0.00630905
-0.00682572
-0.00724759
-0.00757207
-0.00779693
-0.00792013
-0.00794103
-0.00785961
-0.00767447
-0.007384
-0.00698837
-0.00648874
-0.00588524
-0.00517765
-0.00436754
-0.00345808
-0.00245276
-0.00135479
-0.000166622
0.00110977
0.00247154
0.00391473
0.0054355
0.00703143
0.00870007
0.0104361
0.0122327
0.0140837
0.0159851
0.0179343
0.0199278
0.0219599
0.0240241
0.0261149
0.0282264
0.0303526
0.0324862
0.0346191
0.0367444
0.0388579
0.0409554
0.0430316
0.0450805
0.0470946
0.0490661
0.0509892
0.0528591
0.0546692
0.056413
0.0580863
0.0596864
0.0612104
0.0626556
0.0640182
0.0652924
0.0664716
0.0675515
0.0685316
0.0694121
0.0701911
0.0708655
0.0714326
0.0718908
0.0722398
0.0724805
0.0726146
0.0726427
0.0725645
0.0723794
0.0720893
0.071698
0.07121
0.0706284
0.0699552
0.0691926
0.0683446
0.0674166
0.0664138
0.0653402
0.0641987
0.0629905
0.0617162
0.0603851
0.0590085
0.0574668
0.0556549
0.0104703
0.00849976
0.00682734
0.00533608
0.00388973
0.00250295
0.0011895
-4.5093e-05
-0.00119811
-0.00226902
-0.00325574
-0.00415476
-0.00496435
-0.00568303
-0.00630817
-0.00683809
-0.00727078
-0.00760312
-0.00783314
-0.00796037
-0.00798448
-0.00790425
-0.00771835
-0.0074268
-0.00703072
-0.00653041
-0.00592501
-0.00521483
-0.00440294
-0.00349309
-0.00248778
-0.00138925
-0.00020023
0.00107612
0.00243642
0.00387755
0.00539686
0.00699196
0.00865927
0.0103926
0.0121852
0.0140326
0.0159313
0.0178783
0.0198692
0.021898
0.0239594
0.0260484
0.028159
0.0302841
0.0324157
0.034546
0.0366695
0.0387828
0.0408809
0.0429576
0.0450062
0.0470196
0.0489913
0.0509158
0.0527873
0.0545986
0.0563428
0.0580167
0.0596187
0.061146
0.062595
0.0639606
0.0652367
0.066417
0.0674983
0.0684806
0.0693634
0.0701443
0.0708196
0.0713865
0.0718441
0.0721918
0.0724299
0.0725587
0.0725779
0.0724871
0.0722869
0.0719797
0.0715693
0.0710587
0.0704495
0.0697424
0.0689397
0.0680461
0.0670675
0.0660088
0.0648731
0.0636619
0.062376
0.0610156
0.0595911
0.0581146
0.0564564
0.0545029
0.0112355
0.00913057
0.00734816
0.00576378
0.00423349
0.00277139
0.00139115
9.66189e-05
-0.00110957
-0.0022258
-0.00325144
-0.00418443
-0.00502239
-0.00576439
-0.00640973
-0.00695636
-0.00740167
-0.00774355
-0.00798129
-0.00811462
-0.00814233
-0.00806295
-0.00787668
-0.00758493
-0.00718813
-0.00668524
-0.0060758
-0.0053619
-0.00454739
-0.00363509
-0.00262635
-0.00152359
-0.000330822
0.000947997
0.00231016
0.00375385
0.00527672
0.00687532
0.00854489
0.0102793
0.0120732
0.0139229
0.0158246
0.0177742
0.0197669
0.0217977
0.0238622
0.0259557
0.0280709
0.0301997
0.0323343
0.0344681
0.0365968
0.0387163
0.0408208
0.0429029
0.0449565
0.0469755
0.0489538
0.0508856
0.0527642
0.0545815
0.0563315
0.058012
0.0596219
0.0611579
0.0626148
0.0639867
0.0652676
0.0664526
0.067539
0.0685265
0.0694138
0.0701978
0.0708747
0.0714426
0.0719005
0.0722476
0.0724826
0.0726047
0.0726132
0.0725084
0.0722918
0.0719662
0.0715346
0.0709983
0.0703578
0.0696136
0.0687684
0.0678272
0.0667959
0.0656788
0.0644781
0.0631945
0.0618287
0.0603813
0.0588639
0.0572888
0.0555161
0.0534239
0.011926
0.00968889
0.00779658
0.00611783
0.00450071
0.00296081
0.00151073
0.000153376
-0.00110867
-0.00227409
-0.00334192
-0.0043111
-0.00518071
-0.00594999
-0.0066182
-0.0071834
-0.00764334
-0.00799711
-0.00824451
-0.00838451
-0.00841549
-0.00833737
-0.00815183
-0.00785991
-0.00746062
-0.006953
-0.00633842
-0.00562021
-0.0048014
-0.00388336
-0.00286748
-0.00175762
-0.000558833
0.000725444
0.00209385
0.00354511
0.00507591
0.00668143
0.00835683
0.0100972
0.0118982
0.013756
0.0156656
0.0176221
0.0196215
0.02166
0.0237338
0.0258371
0.0279615
0.0300986
0.0322418
0.0343857
0.036526
0.0386575
0.040773
0.0428655
0.0449298
0.0469607
0.0489519
0.0508966
0.052787
0.0546156
0.0563773
0.0580708
0.0596946
0.061244
0.0627126
0.0640944
0.0653843
0.0665782
0.0676738
0.0686696
0.0695635
0.0703519
0.0710319
0.0716021
0.0720616
0.0724085
0.0726402
0.0727547
0.0727517
0.0726322
0.0723984
0.072053
0.0715978
0.071033
0.0703583
0.0695746
0.0686853
0.0676952
0.0666095
0.0654317
0.0641632
0.0628049
0.0613576
0.0598226
0.0582126
0.0565396
0.0546538
0.0524251
0.0125349
0.0101626
0.00816151
0.00638929
0.00468332
0.00306268
0.00154043
0.000117676
-0.00120298
-0.0024201
-0.00353301
-0.00454141
-0.00544552
-0.00624478
-0.00693764
-0.007523
-0.00799997
-0.00836781
-0.00862548
-0.00877177
-0.00880642
-0.00873085
-0.00854637
-0.00825254
-0.0078485
-0.00733519
-0.00671531
-0.00599144
-0.00516509
-0.00423754
-0.00321174
-0.00209281
-0.000885356
0.000408608
0.00178828
0.00325147
0.00479349
0.00640927
0.00809507
0.00984715
0.0116612
0.0135319
0.0154536
0.0174218
0.0194337
0.0214862
0.0235747
0.0256923
0.0278302
0.0299808
0.0321388
0.0342993
0.0364568
0.0386049
0.0407362
0.0428445
0.0449259
0.046975
0.0489846
0.0509468
0.052854
0.0546995
0.0564794
0.0581921
0.059835
0.0614022
0.0628865
0.0642827
0.0655865
0.0667943
0.067903
0.06891
0.0698125
0.0706073
0.0712923
0.0718668
0.0723291
0.0726762
0.0729044
0.0730113
0.0729968
0.0728625
0.0726109
0.0722441
0.0717629
0.0711671
0.0704563
0.0696318
0.0686973
0.0676571
0.0665152
0.0652745
0.0639361
0.0625011
0.0609709
0.0593479
0.0576451
0.0558744
0.0538761
0.0515121
0.0130541
0.0105455
0.00843311
0.00656709
0.00477269
0.00306882
0.00147186
-1.80508e-05
-0.00139953
-0.00267061
-0.00383127
-0.00488194
-0.00582285
-0.00665347
-0.00737272
-0.00798049
-0.00847645
-0.00885895
-0.00912659
-0.00927958
-0.00931932
-0.00924685
-0.00906185
-0.00876386
-0.00835411
-0.00783519
-0.00720903
-0.00647649
-0.00563886
-0.00469909
-0.00366164
-0.00253128
-0.00131113
-2.52899e-06
0.00139275
0.00287106
0.00442741
0.00605779
0.00775971
0.00952945
0.0113614
0.0132493
0.0151876
0.0171732
0.0192039
0.0212763
0.0233843
0.0255204
0.0276766
0.0298467
0.032026
0.0342087
0.0363883
0.0385575
0.0407096
0.0428399
0.0449445
0.0470174
0.0490503
0.0510348
0.0529641
0.0548327
0.0566369
0.0583744
0.060041
0.0616299
0.0631345
0.0645504
0.0658737
0.0671004
0.0682259
0.0692469
0.0701604
0.0709641
0.0716569
0.0722379
0.0727044
0.0730524
0.0732773
0.0733769
0.0733514
0.0732026
0.0729326
0.0725429
0.0720339
0.0714053
0.0706571
0.069791
0.0688103
0.0677187
0.0665191
0.0652135
0.0638033
0.06229
0.060676
0.0589639
0.0571674
0.0552986
0.0531874
0.0506888
0.0134782
0.0108321
0.00860541
0.00664335
0.00476004
0.0029716
0.00129705
-0.000261883
-0.00170541
-0.00303273
-0.00424394
-0.00533898
-0.00631792
-0.00718125
-0.00792927
-0.00856147
-0.00907675
-0.00947353
-0.00975176
-0.00991299
-0.00995835
-0.00988744
-0.00969981
-0.00939695
-0.00898184
-0.0084565
-0.00782114
-0.00707632
-0.00622493
-0.0052715
-0.00422031
-0.00307469
-0.00183697
-0.000509438
0.000904517
0.00240083
0.00397559
0.00562612
0.00735003
0.00914239
0.0109964
0.0129059
0.0148664
0.0168757
0.0189315
0.0210287
0.0231605
0.0253199
0.0275003
0.0296964
0.0319029
0.0341129
0.0363188
0.038514
0.0406929
0.0428513
0.044985
0.0470866
0.0491473
0.0511591
0.0531164
0.0550144
0.0568487
0.0586157
0.06031
0.0619248
0.0634548
0.064896
0.0662445
0.0674946
0.0686407
0.0696788
0.0706065
0.0714226
0.0721263
0.0727162
0.0731887
0.0735384
0.073761
0.0738542
0.0738185
0.0736556
0.073367
0.0729534
0.0724154
0.071753
0.0709667
0.070058
0.0690302
0.0678859
0.0666272
0.0652553
0.0637716
0.0621787
0.0604795
0.0586771
0.0567858
0.0548174
0.0525923
0.0499585
0.013799
0.0110148
0.00867274
0.00661137
0.00463657
0.00276299
0.00100953
-0.00062083
-0.0021287
-0.00351427
-0.00477735
-0.00591793
-0.00693669
-0.0078349
-0.00861307
-0.00927003
-0.00980442
-0.0102162
-0.0105066
-0.0106766
-0.0107261
-0.0106546
-0.0104638
-0.0101567
-0.0097358
-0.00920127
-0.00855312
-0.00779361
-0.00692731
-0.00595851
-0.00488999
-0.00372435
-0.00246486
-0.00111549
0.000319796
0.00183795
0.00343649
0.0051129
0.00686361
0.00868251
0.0105627
0.0124991
0.0144883
0.0165278
0.0186138
0.0207403
0.0229007
0.0250892
0.0273005
0.0295288
0.0317677
0.0340093
0.0362464
0.0384734
0.0406855
0.0428782
0.0450459
0.0471808
0.0492739
0.0513188
0.0533103
0.0552435
0.0571131
0.0589138
0.06064
0.0622857
0.0638465
0.0653186
0.0666971
0.0679749
0.0691453
0.0702043
0.0711504
0.0719831
0.0727014
0.0733028
0.0737828
0.0741358
0.0743573
0.0744457
0.0744013
0.0742252
0.0739182
0.0734808
0.0729134
0.0722166
0.0713915
0.0704398
0.0693639
0.0681658
0.0668466
0.0654069
0.0638484
0.0621746
0.0603889
0.0584945
0.0565064
0.0544364
0.0520956
0.0493252
0.0140058
0.0110846
0.00862673
0.0064636
0.004395
0.00243539
0.000601909
-0.00110222
-0.00267662
-0.00412161
-0.00543751
-0.00662513
-0.00768579
-0.0086204
-0.00942869
-0.0101101
-0.0106645
-0.0110928
-0.0113958
-0.0115733
-0.011625
-0.0115525
-0.0113591
-0.0110475
-0.0106181
-0.010071
-0.00940775
-0.00863257
-0.00774983
-0.00676227
-0.00567185
-0.00448216
-0.00319819
-0.00182458
-0.000364386
0.00118077
0.00280868
0.00451568
0.00629687
0.00814606
0.0100575
0.0120271
0.0140513
0.0161263
0.018247
0.0204075
0.0226024
0.0248268
0.0270753
0.0293415
0.0316175
0.0338956
0.0361696
0.0384349
0.0406866
0.0429191
0.0451258
0.0472986
0.0494299
0.051514
0.0535461
0.05552
0.0574291
0.0592677
0.0610305
0.0627126
0.0643099
0.065818
0.0672307
0.0685399
0.0697385
0.0708231
0.0717925
0.0726464
0.0733829
0.0739984
0.0744879
0.0748459
0.0750685
0.0751541
0.0751029
0.0749152
0.0745909
0.07413
0.0735333
0.072802
0.0719378
0.0709425
0.0698178
0.0685648
0.0671836
0.0656746
0.0640401
0.0622841
0.0604104
0.0584221
0.0563347
0.0541605
0.0517017
0.0487926
0.0140909
0.0110328
0.00845921
0.00619364
0.00402903
0.0019811
6.61017e-05
-0.00171311
-0.00335526
-0.00486074
-0.00623116
-0.0074677
-0.00857114
-0.00954205
-0.0103806
-0.0110873
-0.011663
-0.0121082
-0.0124224
-0.0126057
-0.0126594
-0.0125866
-0.0123902
-0.0120713
-0.0116302
-0.0110683
-0.0103893
-0.00959708
-0.00869462
-0.0076838
-0.00656759
-0.00535136
-0.00404076
-0.00263957
-0.00114951
0.000428064
0.00208992
0.00383102
0.00564622
0.00753038
0.00947901
0.011488
0.0135526
0.0156675
0.0178276
0.0200279
0.0222639
0.024531
0.0268227
0.0291316
0.0314498
0.0337704
0.0360882
0.0383985
0.0406958
0.0429732
0.0452237
0.04744
0.0496157
0.0517458
0.0538244
0.055844
0.0577972
0.0596783
0.0614831
0.0632071
0.0648462
0.0663947
0.0678454
0.0691895
0.0704207
0.0715359
0.072534
0.0734137
0.0741718
0.0748041
0.0753052
0.0756704
0.0758967
0.0759823
0.0759267
0.0757291
0.0753887
0.0749052
0.0742797
0.0735141
0.0726108
0.0715715
0.070397
0.0690876
0.0676428
0.0660631
0.0643513
0.0625118
0.0605485
0.058464
0.0562744
0.0539932
0.0514136
0.0483632
0.0140502
0.0108529
0.00816302
0.00579457
0.00353169
0.00139293
-0.00060474
-0.0024596
-0.00417091
-0.00573897
-0.00716541
-0.00845145
-0.00959764
-0.0106049
-0.0114747
-0.0122081
-0.0128054
-0.013266
-0.0135899
-0.0137787
-0.0138351
-0.0137617
-0.0135598
-0.0132302
-0.0127751
-0.0121977
-0.0115017
-0.0106894
-0.0097628
-0.0087249
-0.00758056
-0.00633584
-0.00499546
-0.00356185
-0.00203658
-0.000422098
0.00127704
0.00305555
0.00490921
0.00683411
0.00882593
0.0108796
0.0129889
0.0151483
0.0173533
0.0195998
0.0218839
0.0241997
0.0265399
0.0288967
0.031263
0.0336329
0.0360017
0.0383636
0.040712
0.0430394
0.0453394
0.0476056
0.0498327
0.052015
0.0541458
0.0562162
0.0582186
0.0601477
0.0620001
0.0637716
0.065457
0.0670498
0.068542
0.0699253
0.071194
0.0723453
0.0733771
0.0742867
0.0750697
0.0757212
0.0762366
0.0766122
0.0768453
0.076934
0.0768765
0.0766708
0.0763155
0.0758104
0.0751571
0.074358
0.0734157
0.0723318
0.0711063
0.0697385
0.0682283
0.0665765
0.0647861
0.0628617
0.0608068
0.0586235
0.0563288
0.0539375
0.0512341
0.0480395
0.013881
0.0105397
0.00773089
0.00525852
0.00289626
0.000664913
-0.00141697
-0.00334874
-0.00513064
-0.00676297
-0.00824622
-0.00958149
-0.0107706
-0.0118154
-0.0127176
-0.0134778
-0.0140954
-0.0145702
-0.0149036
-0.0150985
-0.015157
-0.0150805
-0.0148698
-0.0145276
-0.0140578
-0.0134637
-0.0127475
-0.0119108
-0.0109564
-0.00988928
-0.008715
-0.00743877
-0.00606388
-0.00459255
-0.00302759
-0.0013729
0.000366695
0.00218685
0.00408453
0.00605606
0.00809625
0.0101987
0.012357
0.0145661
0.0168223
0.0191219
0.0214601
0.02383
0.0262238
0.0286343
0.0310555
0.0334822
0.0359089
0.0383286
0.0407335
0.0431168
0.0454727
0.047796
0.0500812
0.052322
0.0545103
0.0566369
0.0586943
0.0606779
0.0625841
0.0644082
0.0661442
0.0677849
0.0693226
0.07075
0.0720616
0.0732542
0.0743243
0.0752675
0.0760787
0.0767527
0.0772859
0.0776754
0.077919
0.0780139
0.0779569
0.0777448
0.077376
0.0768508
0.0761712
0.07534
0.0743593
0.0732301
0.0719517
0.0705236
0.068946
0.0672206
0.0653503
0.0633393
0.0611905
0.0589056
0.0565027
0.0539983
0.0511682
0.0478258
0.0135781
0.0100881
0.00715623
0.00457837
0.00211625
-0.000209002
-0.00237742
-0.00438832
-0.00624185
-0.00793836
-0.00947864
-0.010864
-0.0120972
-0.0131804
-0.0141149
-0.0149006
-0.0155375
-0.0160266
-0.0163702
-0.0165705
-0.0166287
-0.0165458
-0.0163246
-0.0159691
-0.0154834
-0.0148696
-0.0141289
-0.0132641
-0.01228
-0.0111819
-0.0099748
-0.00866243
-0.0072478
-0.00573436
-0.00412644
-0.00242838
-0.000644157
0.00122306
0.00317052
0.00519376
0.00728643
0.00944175
0.0116538
0.0139186
0.0162326
0.0185914
0.020989
0.023418
0.025871
0.028342
0.0308256
0.0333162
0.035807
0.0382902
0.0407576
0.0432033
0.0456226
0.0480104
0.0503604
0.0526654
0.0549169
0.0571058
0.059225
0.06127
0.0632363
0.0651182
0.066909
0.0686019
0.0701899
0.0716666
0.0730267
0.0742655
0.075378
0.0763585
0.0772013
0.0779019
0.0784572
0.078865
0.0791226
0.0792264
0.0791719
0.0789553
0.078575
0.0780319
0.0773284
0.0764667
0.075448