/*--------------------------------*- C++ -*----------------------------------*\
  =========                 |
  \\      /  F ield         | OpenFOAM: The Open Source CFD Toolbox
   \\    /   O peration     | Website:  https://openfoam.org
    \\  /    A nd           | Version:  11
     \\/     M anipulation  |
\*---------------------------------------------------------------------------*/
FoamFile
{
    format      ascii;
    class       volScalarField;
    location    "7.8";
    object      p;
}
// * * * * * * * * * * * * * * * * * * * * * * * * * * * * * * * * * * * * * //

dimensions      [0 2 -2 0 0 0 0];

internalField   nonuniform List<scalar> 
10100
(
2.34501e-07
9.13975e-05
-0.000122592
-0.000678184
-0.00153153
-0.00263272
-0.00392815
-0.00536555
-0.00689747
-0.00848144
-0.0100805
-0.0116623
-0.0131982
-0.0146641
-0.0160383
-0.0173026
-0.0184413
-0.0194407
-0.0202891
-0.0209773
-0.0214976
-0.0218437
-0.0220112
-0.0219968
-0.0217985
-0.0214154
-0.0208475
-0.0200961
-0.0191627
-0.0180499
-0.0167608
-0.0152998
-0.0136716
-0.0118817
-0.00993587
-0.00784068
-0.0056029
-0.00322972
-0.000728972
0.00189097
0.00462138
0.00745325
0.0103773
0.0133838
0.016463
0.0196045
0.0227981
0.0260333
0.0292994
0.0325856
0.0358811
0.0391751
0.0424564
0.045714
0.0489366
0.0521132
0.0552329
0.058285
0.0612587
0.0641432
0.0669282
0.0696034
0.0721592
0.074586
0.0768749
0.0790174
0.0810055
0.0828315
0.0844885
0.0859703
0.0872715
0.0883875
0.0893146
0.0900501
0.0905918
0.0909388
0.0910914
0.0910513
0.0908212
0.0904052
0.0898091
0.0890401
0.0881074
0.0870217
0.085796
0.0844454
0.0829872
0.0814413
0.0798309
0.0781822
0.0765251
0.074893
0.0733239
0.0718604
0.0705499
0.069444
0.0685954
0.0680541
0.0678621
0.0679676
-9.10231e-05
1.48777e-05
-0.000183835
-0.000675817
-0.00141345
-0.00236115
-0.00347862
-0.0047243
-0.00605843
-0.00744479
-0.00885055
-0.0102463
-0.0116062
-0.0129071
-0.0141288
-0.0152537
-0.0162666
-0.0171539
-0.0179046
-0.0185091
-0.0189595
-0.0192497
-0.0193749
-0.0193317
-0.0191176
-0.0187312
-0.0181723
-0.0174416
-0.0165405
-0.0154712
-0.0142365
-0.0128401
-0.0112861
-0.00957957
-0.00772603
-0.00573152
-0.00360229
-0.00134511
0.00103267
0.00352319
0.00611823
0.00880931
0.0115877
0.0144441
0.0173693
0.0203535
0.023387
0.0264598
0.0295616
0.0326824
0.0358118
0.0389396
0.0420552
0.0451479
0.0482073
0.051223
0.0541846
0.0570818
0.0599046
0.0626428
0.0652868
0.0678269
0.070254
0.0725591
0.074734
0.0767708
0.0786621
0.0804006
0.0819801
0.0833949
0.0846401
0.0857118
0.0866065
0.0873221
0.0878567
0.08821
0.0883825
0.0883762
0.0881942
0.0878407
0.0873215
0.0866441
0.0858173
0.0848521
0.0837609
0.0825582
0.0812608
0.0798876
0.0784605
0.0770038
0.0755449
0.0741143
0.0727453
0.0714743
0.0703407
0.0693851
0.0686459
0.0681581
0.0679671
0.0680728
0.00013118
0.000239892
4.62797e-05
-0.000412935
-0.00108489
-0.00193912
-0.00294278
-0.00406046
-0.00525853
-0.00650543
-0.00777176
-0.00903131
-0.0102603
-0.011437
-0.0125429
-0.013561
-0.0144766
-0.0152771
-0.0159513
-0.0164899
-0.0168853
-0.0171312
-0.0172228
-0.0171566
-0.01693
-0.0165412
-0.0159897
-0.015276
-0.0144011
-0.0133671
-0.0121765
-0.0108325
-0.00933903
-0.00770058
-0.0059224
-0.00401007
-0.00196949
0.000192945
0.0024702
0.00485484
0.00733916
0.00991506
0.0125742
0.0153078
0.0181069
0.0209624
0.0238649
0.0268047
0.0297722
0.0327578
0.0357515
0.0387435
0.0417237
0.0446819
0.0476082
0.0504928
0.0533256
0.0560968
0.0587968
0.0614162
0.0639457
0.0663761
0.0686988
0.0709054
0.0729881
0.0749394
0.0767523
0.0784202
0.0799371
0.0812978
0.0824979
0.0835338
0.0844025
0.0851019
0.0856307
0.0859887
0.0861768
0.0861972
0.0860529
0.0857483
0.0852892
0.084683
0.0839386
0.0830664
0.0820784
0.0809886
0.0798129
0.0785692
0.0772779
0.0759618
0.0746459
0.0733576
0.0721264
0.0709842
0.0699645
0.0691011
0.0684251
0.067966
0.0677756
0.0678816
0.000718004
0.000769228
0.000545426
8.48498e-05
-0.000563045
-0.00137029
-0.00230769
-0.00334506
-0.00445281
-0.00560309
-0.00677026
-0.00793035
-0.0090615
-0.0101444
-0.0111612
-0.0120963
-0.0129358
-0.0136673
-0.0142806
-0.0147665
-0.0151177
-0.0153278
-0.0153923
-0.0153074
-0.0150706
-0.0146803
-0.0141355
-0.0134365
-0.012584
-0.01158
-0.0104267
-0.00912713
-0.00768493
-0.00610439
-0.00439031
-0.0025479
-0.000582753
0.001499
0.00369063
0.00598508
0.00837503
0.0108528
0.0134102
0.0160391
0.0187308
0.0214765
0.0242673
0.0270938
0.0299469
0.0328174
0.0356958
0.0385724
0.0414375
0.0442815
0.0470949
0.0498682
0.0525919
0.0552564
0.0578527
0.0603717
0.0628045
0.0651424
0.0673771
0.0695008
0.0715058
0.0733853
0.0751325
0.076741
0.0782053
0.0795206
0.0806829
0.0816888
0.0825354
0.083221
0.0837446
0.084106
0.0843063
0.0843478
0.0842336
0.0839679
0.0835567
0.0830071
0.0823277
0.0815286
0.080621
0.0796184
0.0785357
0.0773899
0.0761998
0.0749864
0.0737725
0.0725829
0.071444
0.0703837
0.0694312
0.068616
0.0679652
0.067506
0.0672877
0.0673429
0.00161792
0.00155274
0.00126091
0.000770125
0.000117984
-0.000670535
-0.00156994
-0.00255402
-0.00359717
-0.00467513
-0.00576512
-0.0068458
-0.00789767
-0.00890281
-0.009845
-0.0107097
-0.011484
-0.0121563
-0.0127166
-0.0131565
-0.0134689
-0.0136479
-0.0136887
-0.0135878
-0.0133424
-0.0129511
-0.0124129
-0.0117278
-0.0108965
-0.00992056
-0.00880204
-0.00754382
-0.00614935
-0.00462265
-0.00296818
-0.00119078
0.000704161
0.00271075
0.00482265
0.00703314
0.00933519
0.0117214
0.0141842
0.0167155
0.0193072
0.0219507
0.0246374
0.0273586
0.0301054
0.0328689
0.0356399
0.0384092
0.0411675
0.0439055
0.0466143
0.0492845
0.0519071
0.0544728
0.0569732
0.0593993
0.0617428
0.0639953
0.066149
0.0681961
0.0701297
0.071943
0.0736296
0.0751834
0.0765993
0.0778729
0.0790004
0.0799784
0.0808045
0.0814771
0.0819952
0.0823589
0.0825695
0.0826292
0.0825409
0.082309
0.0819393
0.0814386
0.0808152
0.0800785
0.0792393
0.0783102
0.0773052
0.07624
0.0751322
0.0740007
0.0728663
0.0717511
0.0706786
0.0696734
0.0687609
0.0679665
0.0673141
0.0668284
0.066548
0.0664977
0.00277412
0.00255123
0.00216098
0.00161481
0.000933553
0.000138713
-0.000747316
-0.00170202
-0.00270378
-0.00373125
-0.00476442
-0.00578454
-0.00677418
-0.00771709
-0.00859855
-0.00940522
-0.0101251
-0.0107475
-0.011263
-0.0116638
-0.0119431
-0.0120954
-0.0121162
-0.0120018
-0.0117497
-0.0113583
-0.0108267
-0.0101548
-0.00934331
-0.00839344
-0.00730717
-0.00608724
-0.00473693
-0.00325991
-0.00166037
5.70485e-05
0.00188717
0.00382438
0.00586266
0.00799564
0.0102166
0.0125183
0.0148936
0.0173349
0.0198342
0.0223834
0.0249741
0.0275981
0.0302469
0.0329118
0.0355838
0.0382543
0.0409142
0.0435549
0.0461675
0.0487431
0.0512727
0.0537479
0.0561602
0.0585014
0.0607631
0.0629374
0.0650168
0.0669941
0.0688624
0.0706152
0.0722464
0.0737504
0.0751222
0.0763577
0.0774532
0.0784056
0.0792126
0.0798727
0.0803853
0.0807504
0.0809692
0.0810439
0.0809775
0.0807742
0.0804395
0.07998
0.0794036
0.078719
0.0779364
0.0770675
0.0761254
0.0751246
0.0740811
0.0730121
0.0719362
0.0708734
0.0698442
0.0688701
0.0679732
0.067175
0.066497
0.0659607
0.0655891
0.0653936
0.00413334
0.00372681
0.00321514
0.00259284
0.00186069
0.00103757
0.000143142
-0.00080412
-0.00178543
-0.00278258
-0.00377806
-0.0047554
-0.00569914
-0.0065948
-0.00742905
-0.00818975
-0.008866
-0.00944791
-0.0099269
-0.0102955
-0.0105476
-0.0106778
-0.0106821
-0.0105569
-0.0103
-0.00990949
-0.0093846
-0.00872533
-0.00793219
-0.00700632
-0.00594969
-0.00476487
-0.00345491
-0.00202322
-0.000473749
0.00118894
0.00295991
0.00483387
0.00680504
0.00886729
0.0110142
0.0132389
0.0155346
0.0178938
0.0203088
0.022772
0.0252753
0.0278108
0.0303703
0.0329454
0.0355275
0.038108
0.0406787
0.043231
0.0457563
0.0482459
0.0506914
0.0530845
0.0554172
0.0576814
0.0598692
0.0619729
0.0639854
0.0658996
0.067709
0.0694073
0.0709886
0.0724476
0.0737797
0.0749808
0.0760474
0.0769765
0.0777659
0.0784143
0.0789211
0.0792864
0.0795114
0.0795981
0.0795494
0.0793695
0.0790634
0.0786375
0.0780991
0.0774563
0.0767186
0.075897
0.0750035
0.0740514
0.0730551
0.0720301
0.0709932
0.069962
0.0689548
0.0679901
0.0670868
0.0662633
0.0655385
0.064931
0.064446
0.064079
0.00564649
0.00504086
0.00439203
0.00367687
0.00287638
0.0020067
0.00108511
0.00012704
-0.000851972
-0.00183634
-0.00281093
-0.00376129
-0.00467379
-0.00553569
-0.00633504
-0.00706086
-0.00770331
-0.00825345
-0.00870349
-0.00904657
-0.00927692
-0.00938965
-0.00938089
-0.00924761
-0.00898741
-0.00859873
-0.00808083
-0.00743363
-0.00665756
-0.00575383
-0.00472439
-0.00357164
-0.00229837
-0.000907861
0.000596052
0.00220903
0.00392629
0.0057428
0.00765306
0.00965114
0.0117309
0.0138857
0.0161091
0.0183938
0.0207324
0.0231175
0.0255417
0.027997
0.0304757
0.0329694
0.03547
0.0379694
0.0404595
0.0429319
0.0453783
0.0477904
0.05016
0.0524792
0.0547402
0.0569352
0.0590565
0.0610968
0.0630492
0.0649069
0.0666635
0.0683129
0.0698495
0.0712683
0.0725648
0.073735
0.0747755
0.0756834
0.0764567
0.077094
0.077595
0.0779596
0.0781888
0.0782846
0.0782499
0.0780884
0.077805
0.0774056
0.0768968
0.0762864
0.075583
0.0747969
0.0739389
0.0730212
0.0720567
0.0710594
0.0700441
0.0690267
0.0680229
0.0670489
0.0661207
0.0652536
0.0644645
0.0637695
0.0631549
0.0626004
0.00727009
0.00645764
0.00566094
0.0048406
0.0039581
0.00302693
0.00206279
0.00107827
8.60756e-05
-0.000900651
-0.00186889
-0.00280609
-0.00370044
-0.00454065
-0.00531615
-0.00601719
-0.00663486
-0.00716128
-0.00758932
-0.00791284
-0.00812656
-0.00822601
-0.00820766
-0.00806866
-0.00780683
-0.00742089
-0.00691013
-0.00627443
-0.00551433
-0.00463105
-0.00362646
-0.00250286
-0.00126284
9.0395e-05
0.00155308
0.00312106
0.00478983
0.00655449
0.00840972
0.0103499
0.012369
0.0144608
0.0166189
0.0188364
0.0211061
0.023421
0.0257738
0.028157
0.0305628
0.0329834
0.0354107
0.0378372
0.0402548
0.0426555
0.0450312
0.0473739
0.0496756
0.0519287
0.0541256
0.0562587
0.0583206
0.0603044
0.0622033
0.0640106
0.0657201
0.067326
0.068823
0.0702061
0.0714709
0.0726136
0.0736307
0.0745195
0.075278
0.0759051
0.0764002
0.0767631
0.0769949
0.0770973
0.077073
0.0769255
0.0766592
0.0762797
0.075793
0.0752063
0.0745276
0.0737662
0.072932
0.0720359
0.0710896
0.0701054
0.0690968
0.0680774
0.0670612
0.0660621
0.0650933
0.0641677
0.0633003
0.0625053
0.0617501
0.0609992
0.00896651
0.00794429
0.00699339
0.00605915
0.00508386
0.0040795
0.00306023
0.0020361
0.00101754
1.55074e-05
-0.000958986
-0.0018952
-0.00278286
-0.00361213
-0.00437371
-0.00505905
-0.00566024
-0.00617028
-0.00658281
-0.00689229
-0.00709404
-0.0071841
-0.00715922
-0.00701677
-0.00675492
-0.00637255
-0.00586904
-0.00524432
-0.00449909
-0.00363465
-0.00265268
-0.00155535
-0.000345304
0.000974338
0.00239996
0.00392758
0.00555284
0.007271
0.0090769
0.0109651
0.01293
0.0149654
0.0170651
0.0192224
0.0214305
0.0236826
0.0259717
0.0282904
0.0306312
0.0329864
0.0353485
0.03771
0.0400632
0.0424001
0.0447129
0.0469939
0.0492354
0.0514299
0.05357
0.0556484
0.057658
0.0595919
0.0614435
0.0632065
0.0648745
0.0664422
0.0679043
0.069256
0.0704929
0.0716112
0.0726077
0.0734795
0.0742248
0.0748424
0.0753316
0.0756922
0.075925
0.0760316
0.0760144
0.0758768
0.0756227
0.0752571
0.0747857
0.0742148
0.073552
0.0728056
0.0719847
0.0710988
0.0701585
0.0691748
0.0681595
0.0671247
0.0660826
0.0650448
0.0640226
0.0630262
0.0620696
0.0611652
0.0602626
0.0593113
0.0107034
0.00947167
0.00836334
0.00730891
0.00623299
0.00514628
0.00406175
0.00298721
0.0019312
0.000902795
-8.88523e-05
-0.00103461
-0.00192564
-0.00275344
-0.00350997
-0.00418773
-0.0047799
-0.00528019
-0.00568306
-0.00598363
-0.00617775
-0.00626194
-0.00623323
-0.00608945
-0.00582907
-0.00545098
-0.00495472
-0.00434054
-0.00360918
-0.00276186
-0.00180026
-0.000726531
0.000456677
0.00174631
0.00313893
0.00463064
0.00621719
0.007894
0.0096561
0.0114983
0.013415
0.0154003
0.0174481
0.0195521
0.0217057
0.0239023
0.026135
0.0283966
0.0306799
0.0329776
0.0352822
0.0375865
0.0398829
0.0421637
0.0444213
0.0466482
0.0488369
0.0509801
0.0530706
0.0551012
0.0570651
0.0589555
0.0607661
0.0624905
0.0641226
0.0656571
0.067089
0.0684135
0.0696262
0.0707235
0.0717019
0.0725589
0.0732925
0.0739015
0.074385
0.0747426
0.0749751
0.0750838
0.075071
0.0749395
0.0746931
0.074336
0.0738735
0.0733115
0.0726567
0.0719167
0.0710995
0.0702137
0.0692687
0.0682743
0.0672409
0.0661792
0.0650995
0.0640119
0.0629255
0.0618486
0.0607944
0.0597742
0.05872
0.0575677
0.0124532
0.0110144
0.00974721
0.00856864
0.00738642
0.00621016
0.0050522
0.00391857
0.00281592
0.0017517
0.000733601
-0.000230754
-0.00113389
-0.00196853
-0.00272783
-0.0034053
-0.00399503
-0.0044915
-0.00488999
-0.00518627
-0.00537667
-0.00545811
-0.00542814
-0.00528495
-0.00502717
-0.00465394
-0.00416505
-0.0035609
-0.00284228
-0.0020104
-0.00106701
-1.42976e-05
0.00114513
0.00240829
0.00377181
0.00523191
0.00678442
0.00842489
0.0101485
0.0119503
0.0138248
0.0157662
0.0177685
0.0198258
0.0219317
0.0240798
0.0262632
0.028475
0.0307082
0.0329557
0.0352103
0.0374649
0.039712
0.0419441
0.044154
0.0463342
0.0484774
0.0505764
0.0526241
0.0546137
0.0565385
0.0583919
0.0601674
0.0618588
0.0634603
0.0649667
0.066373
0.0676745
0.0688668
0.0699461
0.0709093
0.0717537
0.0724772
0.0730785
0.0735565
0.0739108
0.0741418
0.0742509
0.0742399
0.0741115
0.0738686
0.0735152
0.0730561
0.0724966
0.0718428
0.0711014
0.0702795
0.069385
0.0684259
0.0674111
0.0663498
0.0652512
0.0641242
0.0629773
0.061818
0.060653
0.0594949
0.0583544
0.0571467
0.0557948
0.0141925
0.0125499
0.0111239
0.00981903
0.00852627
0.00725508
0.00601733
0.00481751
0.00366063
0.00255277
0.00150029
0.00050953
-0.000413269
-0.00126203
-0.00203093
-0.00271451
-0.00330757
-0.00380555
-0.00420436
-0.0045004
-0.00469053
-0.00477207
-0.00474309
-0.0046021
-0.00434794
-0.00398004
-0.00349847
-0.00290375
-0.00219669
-0.00137858
-0.000451256
0.000582999
0.00172162
0.00296174
0.00430003
0.00573271
0.0072557
0.00886471
0.0105551
0.012322
0.0141599
0.0160633
0.0180264
0.0200435
0.0221084
0.0242146
0.0263556
0.0285246
0.0307149
0.0329195
0.0351314
0.0373435
0.0395486
0.0417394
0.0439088
0.0460495
0.0481542
0.0502159
0.0522278
0.0541831
0.0560752
0.0578976
0.0596439
0.061308
0.0628843
0.0643675
0.0657528
0.0670354
0.0682109
0.0692756
0.0702264
0.0710604
0.0717755
0.0723702
0.0728431
0.0731939
0.0734227
0.0735306
0.0735194
0.073391
0.0731481
0.0727942
0.0723336
0.071771
0.0711119
0.0703623
0.0695285
0.0686173
0.067636
0.0665925
0.0654949
0.064351
0.0631685
0.0619546
0.0607153
0.0594563
0.0581898
0.0569258
0.0555643
0.0540154
0.0159005
0.0140581
0.0124747
0.0110419
0.00963605
0.00826596
0.00694345
0.00567172
0.00445448
0.00329655
0.00220304
0.00117918
0.00023017
-0.000639014
-0.0014235
-0.0021187
-0.00272023
-0.00322437
-0.00362766
-0.003927
-0.00411977
-0.00420396
-0.00417797
-0.0040405
-0.00379074
-0.00342854
-0.00295415
-0.00236809
-0.00167128
-0.000865246
4.80598e-05
0.00106641
0.00218728
0.00340777
0.00472455
0.00613388
0.00763183
0.00921421
0.0108765
0.0126137
0.0144206
0.0162918
0.0182219
0.0202051
0.0222353
0.0243063
0.0264117
0.0285448
0.0306991
0.0328679
0.0350441
0.0372208
0.039391
0.0415476
0.0436836
0.0457918
0.047865
0.0498962
0.0518789
0.0538064
0.0556722
0.0574697
0.0591927
0.060835
0.0623913
0.0638563
0.0652252
0.066493
0.0676555
0.0687089
0.0696501
0.070476
0.0711845
0.0717737
0.0722423
0.0725895
0.0728156
0.0729214
0.0729081
0.0727773
0.0725312
0.0721731
0.0717066
0.0711362
0.0704664
0.0697026
0.0688503
0.0679157
0.0669053
0.065826
0.0646848
0.0634885
0.0622436
0.0609563
0.0596315
0.0582739
0.0568956
0.0555064
0.0539914
0.0522489
0.0175593
0.0155215
0.0137821
0.0122213
0.0107005
0.00922865
0.00781757
0.0064694
0.00518678
0.00397346
0.00283345
0.00177093
0.000790062
-0.000104973
-0.00091015
-0.00162172
-0.00223631
-0.00275065
-0.00316187
-0.00346758
-0.00366572
-0.00375469
-0.00373318
-0.00360028
-0.00335568
-0.00299938
-0.00253171
-0.00195337
-0.00126555
-0.000469926
0.00043154
0.00143663
0.00254276
0.00374697
0.00504591
0.00643597
0.00791331
0.00947378
0.0111128
0.0128256
0.014607
0.0164519
0.0183549
0.0203103
0.0223121
0.0243543
0.0264306
0.0285346
0.0306598
0.0327996
0.0349469
0.0370952
0.0392375
0.041367
0.0434765
0.045559
0.0476073
0.0496148
0.0515749
0.0534812
0.0553268
0.0571054
0.0588107
0.060437
0.0619786
0.0634304
0.0647873
0.0660446
0.0671978
0.0682434
0.0691778
0.0699982
0.0707019
0.071287
0.071752
0.0720961
0.0723193
0.0724221
0.0724052
0.0722699
0.0720181
0.0716526
0.0711767
0.0705941
0.0699089
0.0691256
0.0682494
0.0672856
0.06624
0.0651188
0.0639279
0.0626732
0.0613602
0.0599943
0.0585797
0.0571199
0.0556273
0.0541119
0.0524444
0.0505119
0.0191532
0.0169244
0.0150312
0.0133424
0.0117057
0.0101301
0.00862752
0.00719934
0.00584727
0.00457416
0.00338302
0.00227707
0.00125975
0.000334359
-0.00049596
-0.00122814
-0.0018595
-0.00238742
-0.00280968
-0.00312444
-0.00333016
-0.0034256
-0.00340985
-0.00328247
-0.00304342
-0.00269288
-0.00223132
-0.00165975
-0.000979577
-0.000192546
0.00069936
0.00169384
0.00278822
0.00397947
0.0052643
0.00663918
0.00810028
0.00964347
0.0112642
0.0129577
0.0147191
0.0165432
0.018425
0.0203586
0.0223382
0.0243579
0.0264116
0.0284931
0.0305959
0.0327132
0.0348385
0.0369652
0.0390866
0.0411957
0.0432855
0.045349
0.0473792
0.0493696
0.0513137
0.0532048
0.0550364
0.056802
0.0584956
0.0601113
0.0616436
0.063087
0.0644366
0.0656875
0.0668354
0.0678766
0.0688074
0.0696247
0.0703256
0.0709081
0.0713707
0.0717124
0.0719328
0.072032
0.0720104
0.071869
0.0716094
0.0712339
0.0707454
0.0701471
0.0694424
0.0686353
0.0677303
0.0667324
0.0656465
0.0644781
0.0632323
0.0619141
0.0605284
0.0590797
0.0575717
0.056007
0.0543984
0.0527562
0.0509375
0.0488187
0.0206684
0.0182528
0.0162079
0.0143918
0.0126386
0.0109579
0.0093618
0.00785088
0.00642602
0.0050894
0.00384332
0.00269008
0.00163233
0.000672711
-0.000186386
-0.000942722
-0.00159404
-0.00213842
-0.00257428
-0.00290032
-0.00311542
-0.00321869
-0.00320973
-0.0030885
-0.00285512
-0.00250995
-0.00205379
-0.00148791
-0.000813887
-3.34873e-05
0.000851213
0.00183777
0.00292339
0.00410506
0.00537954
0.00674332
0.00819253
0.00972298
0.0113302
0.0130096
0.0147563
0.0165654
0.0184316
0.0203493
0.0223128
0.0243163
0.0263539
0.0284193
0.0305061
0.0326077
0.0347177
0.0368295
0.0389367
0.0410321
0.0431088
0.0451599
0.0471787
0.0491585
0.0510929
0.0529752
0.0547988
0.0565574
0.0582451
0.0598558
0.0613838
0.0628239
0.0641708
0.0654196
0.0665662
0.0676065
0.0685368
0.0693536
0.070054
0.0706359
0.0710976
0.0714377
0.0716556
0.0717509
0.0717239
0.0715753
0.0713062
0.0709187
0.0704151
0.0697979
0.0690703
0.0682356
0.0672979
0.0662616
0.0651311
0.0639111
0.0626059
0.0612201
0.0597577
0.0582229
0.0566186
0.0549468
0.053221
0.0514518
0.0494833
0.0471815
0.0220925
0.0194939
0.0172996
0.015357
0.0134873
0.0117005
0.0100093
0.00841348
0.00691331
0.00551025
0.00420598
0.00300225
0.00190089
0.000903773
1.27334e-05
-0.000770545
-0.00144446
-0.00200777
-0.00245941
-0.00279848
-0.00302428
-0.00313646
-0.00313506
-0.00302026
-0.00279233
-0.00245199
-0.00200039
-0.00143899
-0.000769415
6.46298e-06
0.000886381
0.00186772
0.00294765
0.00412318
0.00539112
0.00674786
0.00818943
0.00971168
0.0113103
0.0129807
0.0147182
0.0165177
0.018374
0.0202816
0.0222351
0.0242287
0.0262564
0.0283121
0.0303893
0.0324817
0.034583
0.0366868
0.0387862
0.0408745
0.0429447
0.0449901
0.047004
0.0489797
0.0509106
0.0527902
0.0546119
0.0563695
0.0580569
0.0596681
0.0611972
0.0626388
0.0639876
0.0652389
0.0663882
0.0674313
0.0683643
0.0691836
0.069886
0.0704694
0.0709317
0.0712714
0.0714874
0.0715791
0.0715464
0.0713898
0.0711102
0.070709
0.0701882
0.0695497
0.0687963
0.0679309
0.0669572
0.0658789
0.0647001
0.0634247
0.0620565
0.0605995
0.0590573
0.0574335
0.0557306
0.0539502
0.0521062
0.05021
0.0480932
0.0456113
0.0234149
0.0206364
0.0182947
0.0162266
0.0142404
0.0123469
0.0105594
0.0088771
0.00729953
0.00582774
0.00446285
0.00320594
0.00205822
0.00102102
9.5567e-05
-0.000716965
-0.00141571
-0.00199994
-0.00246899
-0.00282239
-0.00305998
-0.00318189
-0.00318843
-0.00307993
-0.00285704
-0.00252087
-0.00207283
-0.00151443
-0.000847394
-7.38601e-05
0.000803703
0.00178261
0.00286004
0.00403299
0.00529816
0.00665184
0.00809005
0.00960871
0.0112036
0.0128701
0.0146036
0.016399
0.018251
0.0201545
0.022104
0.0240938
0.0261179
0.0281701
0.0302442
0.032334
0.0344332
0.0365353
0.0386337
0.0407214
0.0427917
0.044838
0.0468534
0.0488312
0.050765
0.0526479
0.0544738
0.0562362
0.0579292
0.0595463
0.0610816
0.0625298
0.0638854
0.0651437
0.0662999
0.0673496
0.0682887
0.0691135
0.0698207
0.0704079
0.0708727
0.0712134
0.0714284
0.071517
0.0714788
0.0713139
0.071023
0.0706071
0.0700674
0.0694057
0.0686243
0.0677257
0.0667132
0.0655901
0.0643598
0.0630259
0.0615916
0.0600605
0.0584358
0.0567207
0.0549173
0.0530269
0.0510642
0.049041
0.046777
0.0441177
0.0246252
0.0216699
0.0191824
0.0169897
0.0148874
0.0128869
0.0110021
0.00923204
0.00757554
0.00603321
0.00460568
0.00329346
0.00209726
0.00101792
5.61012e-05
-0.000787656
-0.00151301
-0.0021196
-0.00260722
-0.00297597
-0.00322616
-0.00335821
-0.00337261
-0.00327006
-0.00305169
-0.00271886
-0.00227307
-0.00171593
-0.00104946
-0.000276065
0.000601686
0.0015811
0.00265934
0.00383325
0.00509939
0.00645401
0.00789321
0.00941295
0.011009
0.0126767
0.0144114
0.016208
0.0180615
0.0199667
0.0219182
0.0239102
0.0259368
0.0279919
0.0300693
0.0321631
0.0342666
0.0363736
0.0384773
0.0405709
0.042648
0.0447016
0.0467249
0.0487113
0.050654
0.0525466
0.0543827
0.0561559
0.0578599
0.0594885
0.0610354
0.0624953
0.0638626
0.0651324
0.0662997
0.06736
0.0683089
0.0691425
0.0698575
0.0704511
0.0709206
0.0712639
0.0714793
0.0715657
0.0715225
0.0713496
0.071047
0.0706155
0.070056
0.0693697
0.0685585
0.0676248
0.0665713
0.0654009
0.0641167
0.0627215
0.0612186
0.0596109
0.0579014
0.0560932
0.0541877
0.0521862
0.0501041
0.0479541
0.0455438
0.0427092
0.0257141
0.0225846
0.0199529
0.0176363
0.0154182
0.0133105
0.0113279
0.00946901
0.00773242
0.00611813
0.00462635
0.0032572
0.00201095
0.000887851
-0.000111948
-0.000988442
-0.00174161
-0.00237157
-0.00287868
-0.00326349
-0.00352664
-0.00366877
-0.00369072
-0.00359368
-0.00337909
-0.00304842
-0.00260327
-0.00204558
-0.00137767
-0.000602062
0.00027862
0.00126164
0.00234401
0.00352239
0.00479327
0.00615294
0.00759753
0.00912301
0.010725
0.0123989
0.01414
0.0159433
0.017804
0.0197167
0.0216761
0.0236763
0.0257115
0.0277757
0.029863
0.031967
0.0340813
0.0361996
0.0383152
0.0404214
0.0425117
0.0445791
0.0466168
0.0486179
0.050576
0.0524844
0.0543368
0.0561266
0.0578476
0.0594931
0.061057
0.0625338
0.0639179
0.0652039
0.0663868
0.0674617
0.0684242
0.0692702
0.0699962
0.0705989
0.0710755
0.0714235
0.071641
0.0717266
0.0716794
0.0714989
0.0711848
0.0707375
0.0701574
0.0694456
0.0686035
0.0676332
0.066537
0.0653175
0.0639771
0.0625187
0.0609449
0.0592586
0.0574625
0.0555593
0.0535504
0.0514368
0.0492347
0.0469578
0.044402
0.0413935
0.0266726
0.023371
0.0205966
0.0181568
0.0158232
0.0136083
0.0115275
0.0095791
0.00776143
0.00607411
0.00451693
0.00308967
0.00179211
0.000623997
-0.000414966
-0.00132516
-0.00210696
-0.00276104
-0.00328823
-0.00368939
-0.00396541
-0.00411728
-0.00414636
-0.00405416
-0.00384225
-0.00351223
-0.00306603
-0.00250591
-0.00183436
-0.00105399
-0.000167472
0.000822298
0.00191211
0.00309853
0.00437803
0.00574693
0.00720136
0.00873717
0.0103499
0.012035
0.0137877
0.0156032
0.0174766
0.0194026
0.0213756
0.02339
0.02544
0.0275197
0.0296231
0.0317437
0.0338753
0.0360113
0.0381453
0.0402707
0.0423807
0.0444684
0.0465268
0.0485492
0.0505289
0.0524595
0.0543343
0.0561468
0.0578903
0.0595585
0.061145
0.062644
0.0640499
0.065357
0.06656
0.067654
0.0686342
0.0694964
0.0702367
0.0708517
0.0713382
0.0716933
0.0719148
0.0720013
0.0719514
0.0717642
0.0714392
0.0709762
0.0703754
0.0696376
0.0687639
0.0677561
0.066616
0.0653458
0.0639477
0.0624242
0.0607779
0.0590112
0.0571268
0.0551272
0.0530136
0.0507869
0.0484643
0.0460604
0.0433593
0.0401779
0.0274923
0.0240204
0.0211043
0.0185419
0.016093
0.0137709
0.0115918
0.00955347
0.00765406
0.00589296
0.0042696
0.00278335
0.00143351
0.000219499
-0.000859352
-0.00180381
-0.00261482
-0.00329348
-0.00384092
-0.00425826
-0.00454675
-0.00470792
-0.00474347
-0.00465507
-0.00444441
-0.00411341
-0.00366436
-0.00309976
-0.00242217
-0.00163426
-0.000738899
0.000260773
0.0013614
0.00255953
0.00385164
0.00523403
0.00670269
0.00825338
0.00988163
0.0115829
0.0133525
0.0151857
0.0170773
0.0190222
0.0210147
0.0230493
0.0251203
0.0272217
0.0293474
0.031491
0.0336461
0.0358064
0.0379655
0.0401166
0.0422528
0.0443673
0.046453
0.0485031
0.050511
0.05247
0.0543734
0.0562146
0.0579867
0.0596833
0.061298
0.0628248
0.0642577
0.065591
0.0668189
0.0679364
0.0689386
0.069821
0.0705794
0.07121
0.0717093
0.0720743
0.0723024
0.0723917
0.0723408
0.0721483
0.0718133
0.0713352
0.070714
0.0699502
0.0690447
0.0679987
0.0668139
0.065492
0.0640349
0.062445
0.0607246
0.0588762
0.0569021
0.0548049
0.0525854
0.0502447
0.0478008
0.0452694
0.0424232
0.0390692
0.0281652
0.0245244
0.0214674
0.0187828
0.0162189
0.0137898
0.011512
0.00938347
0.00740195
0.00556659
0.00387645
0.00233053
0.000927846
-0.000332514
-0.00145164
-0.00243075
-0.00327125
-0.0039745
-0.00454191
-0.004975
-0.00527548
-0.00544527
-0.00548625
-0.00540022
-0.00518919
-0.00485549
-0.00440166
-0.00383026
-0.00314395
-0.00234562
-0.0014384
-0.000425606
0.000689349
0.00190301
0.00321183
0.00461194
0.00609921
0.00766936
0.00931796
0.0110405
0.0128324
0.0146885
0.0166039
0.0185733
0.0205911
0.0226519
0.02475
0.0268793
0.0290335
0.0312064
0.0333916
0.0355827
0.0377734
0.0399567
0.0421258
0.0442736
0.0463931
0.0484776
0.0505201
0.052514
0.0544523
0.0563283
0.0581351
0.0598661
0.0615148
0.0630751
0.0645405
0.065905
0.0671629
0.0683087
0.0693375
0.0702443
0.0710247
0.0716746
0.0721901
0.0725679
0.0728053
0.0729001
0.0728502
0.072654
0.0723102
0.0718181
0.0711773
0.070388
0.0694508
0.0683665
0.0671365
0.0657621
0.0642452
0.0625879
0.0607924
0.058861
0.056796
0.0545998
0.0522734
0.0498176
0.0472517
0.0445922
0.0416004
0.0380737
0.0286836
0.0248745
0.0216774
0.018871
0.0161923
0.013656
0.0112796
0.00906067
0.00699678
0.00508677
0.00332946
0.00172354
0.000267792
-0.00103913
-0.00219871
-0.00321262
-0.00408246
-0.0048099
-0.00539675
-0.005845
-0.00615675
-0.0063341
-0.00637908
-0.00629381
-0.00608073
-0.00574245
-0.00528158
-0.00470078
-0.00400294
-0.00319126
-0.00226907
-0.00123977
-0.000106774
0.00112639
0.002456
0.00387806
0.00538837
0.00698266
0.00865656
0.0104055
0.0122248
0.0141093
0.016054
0.0180535
0.0201025
0.0221956
0.0243268
0.0264901
0.0286791
0.0308877
0.0331094
0.0353379
0.0375667
0.0397888
0.0419972
0.044185
0.0463451
0.0484705
0.0505544
0.0525896
0.0545693
0.0564864
0.0583342
0.0601058
0.0617946
0.063394
0.0648975
0.0662987
0.0675917
0.068771
0.0698311
0.0707668
0.0715735
0.0722466
0.072782
0.0731761
0.0734259
0.0735288
0.0734823
0.0732845
0.0729338
0.072429
0.0717697
0.0709557
0.0699873
0.0688649
0.0675896
0.0661625
0.0645852
0.0628598
0.0609883
0.0589729
0.0568159
0.0545196
0.052085
0.0495131
0.0468242
0.0440359
0.0408977
0.0371977
0.02904
0.025063
0.0217259
0.018798
0.0160046
0.0133611
0.0108859
0.00857657
0.00643012
0.00444524
0.00262061
0.000954682
-0.00055418
-0.00190772
-0.00310772
-0.00415611
-0.0050548
-0.00580582
-0.00641145
-0.00687405
-0.00719594
-0.00737939
-0.00742674
-0.00734055
-0.00712356
-0.00677847
-0.00630799
-0.00571502
-0.0050028
-0.00417475
-0.00323429
-0.00218485
-0.00102995
0.000226709
0.00158123
0.00302954
0.00456744
0.00619072
0.00789493
0.00967545
0.0115274
0.0134456
0.015425
0.0174604
0.0195466
0.0216778
0.0238483
0.0260517
0.0282818
0.0305324
0.0327971
0.0350696
0.037343
0.0396104
0.0418649
0.0440994
0.0463068
0.04848
0.0506118
0.052695
0.0547225
0.0566874
0.0585826
0.0604012
0.0621362
0.0637808
0.0653281
0.0667718
0.0681055
0.0693235
0.0704199
0.0713895
0.0722269
0.0729274
0.0734867
0.0739009
0.0741666
0.0742807
0.0742405
0.0740435
0.0736879
0.0731724
0.0724961
0.0716585
0.0706597
0.0694997
0.0681793
0.0666994
0.0650616
0.0632676
0.0613195
0.0592193
0.0569693
0.0545719
0.052028
0.0493388
0.0465258
0.0436075
0.0403218
0.036447
0.0292267
0.0250819
0.0216048
0.0185552
0.0156471
0.0128965
0.0103226
0.00792258
0.00569347
0.00363377
0.00174189
1.59896e-05
-0.00154592
-0.00294584
-0.00418585
-0.00526811
-0.00619492
-0.0069688
-0.00759231
-0.00806806
-0.00839858
-0.00858647
-0.00863451
-0.00854555
-0.00832243
-0.00796797
-0.00748513
-0.00687717
-0.0061476
-0.00529994
-0.00433765
-0.00326428
-0.00208354
-0.000799367
0.000584263
0.00206328
0.00363351
0.00529069
0.00703024
0.00884739
0.0107372
0.0126945
0.0147144
0.0167916
0.0189208
0.0210961
0.0233118
0.0255615
0.0278391
0.0301382
0.0324525
0.0347754
0.0371
0.0394194
0.0417267
0.0440147
0.0462762
0.0485039
0.0506905
0.0528284
0.0549106
0.0569299
0.0588793
0.0607513
0.0625388
0.0642347
0.0658321
0.0673241
0.0687044
0.0699667
0.0711049
0.0721133
0.0729863
0.0737189
0.0743065
0.0747448
0.0750301
0.0751589
0.0751281
0.0749348
0.074577
0.0740529
0.0733614
0.0725018
0.0714737
0.0702769
0.068912
0.0673796
0.0656812
0.0638185
0.0617933
0.0596076
0.0572637
0.054764
0.0521096
0.049302
0.0463636
0.0433139
0.0398792
0.0358278
0.0292361
0.0249232
0.0213058
0.0181345
0.0151116
0.0122537
0.00958079
0.00709011
0.00477841
0.002644
0.000685018
-0.0011007
-0.00271536
-0.00416114
-0.00544044
-0.00655579
-0.00750991
-0.00830563
-0.00894575
-0.00943311
-0.00977059
-0.00996119
-0.010008
-0.00991404
-0.00968224
-0.00931567
-0.00881768
-0.00819181
-0.00744167
-0.00657088
-0.00558302
-0.00448185
-0.00327133
-0.00195551
-0.000538381
0.000975999
0.00258341
0.00427943
0.00605934
0.00791829
0.00985132
0.0118534
0.0139194
0.0160442
0.0182223
0.0204477
0.0227147
0.0250171
0.0273485
0.0297027
0.032073
0.0344529
0.0368353
0.0392135
0.0415804
0.0439289
0.0462514
0.0485404
0.0507885
0.0529881
0.0551319
0.0572127
0.0592229
0.061155
0.0630016
0.0647554
0.0664091
0.0679558
0.0693887
0.0707012
0.0718868
0.0729394
0.0738532
0.0746228
0.0752435
0.0757104
0.0760195
0.0761669
0.0761489
0.0759626
0.0756053
0.0750752
0.0743708
0.073491
0.072435
0.0712027
0.069794
0.0682098
0.0664511
0.0645196
0.0624169
0.0601452
0.0577065
0.0551036
0.0523376
0.0494101
0.0463448
0.0431622
0.0395765
0.0353461
0.0290604
0.0245787
0.0208207