/*--------------------------------*- C++ -*----------------------------------*\
  =========                 |
  \\      /  F ield         | OpenFOAM: The Open Source CFD Toolbox
   \\    /   O peration     | Website:  https://openfoam.org
    \\  /    A nd           | Version:  11
     \\/     M anipulation  |
\*---------------------------------------------------------------------------*/
FoamFile
{
    format      ascii;
    class       surfaceScalarField;
    location    "7.8";
    object      phi;
}
// * * * * * * * * * * * * * * * * * * * * * * * * * * * * * * * * * * * * * //

dimensions      [0 3 -1 0 0 0 0];

internalField   nonuniform List<scalar> 
19980
(
7.01003e-07
-7.01933e-07
2.36034e-06
-1.65922e-06
4.14062e-06
-1.78029e-06
5.5127e-06
-1.37211e-06
6.16812e-06
-6.55467e-07
5.92904e-06
2.3919e-07
4.70303e-06
1.22596e-06
2.45426e-06
2.24902e-06
-8.17457e-07
3.2716e-06
-5.08732e-06
4.26979e-06
-1.03153e-05
5.22815e-06
-1.64511e-05
6.13567e-06
-2.34365e-05
6.98554e-06
-3.12097e-05
7.77312e-06
-3.97048e-05
8.49516e-06
-4.88555e-05
9.15078e-06
-5.85939e-05
9.73838e-06
-6.88519e-05
1.02581e-05
-7.9562e-05
1.07101e-05
-9.0657e-05
1.10951e-05
-0.000102071
1.14141e-05
-0.000113739
1.16686e-05
-0.000125599
1.18599e-05
-0.000137589
1.19899e-05
-0.00014965
1.20606e-05
-0.000161724
1.20735e-05
-0.000173755
1.20308e-05
-0.000185689
1.19346e-05
-0.000197476
1.17867e-05
-0.000209065
1.15889e-05
-0.000220408
1.13433e-05
-0.00023146
1.10523e-05
-0.000242178
1.07176e-05
-0.000252519
1.03415e-05
-0.000262445
9.92602e-06
-0.000271919
9.4734e-06
-0.000280905
8.98571e-06
-0.00028937
8.46491e-06
-0.000297283
7.9131e-06
-0.000304615
7.33258e-06
-0.000311341
6.72566e-06
-0.000317436
6.09463e-06
-0.000322877
5.44175e-06
-0.000327647
4.76924e-06
-0.000331726
4.07945e-06
-0.000335101
3.37468e-06
-0.000337758
2.65719e-06
-0.000339687
1.92937e-06
-0.000340881
1.19361e-06
-0.000341333
4.52316e-07
-0.000341041
-2.92208e-07
-0.000340003
-1.03775e-06
-0.000338221
-1.78176e-06
-0.0003357
-2.52152e-06
-0.000332445
-3.25452e-06
-0.000328467
-3.97807e-06
-0.000323778
-4.68945e-06
-0.000318392
-5.38621e-06
-0.000312326
-6.06575e-06
-0.000305601
-6.72506e-06
-0.00029824
-7.36123e-06
-0.000290268
-7.97161e-06
-0.000281715
-8.55333e-06
-0.000272611
-9.10347e-06
-0.000262992
-9.61949e-06
-0.000252893
-1.00989e-05
-0.000242354
-1.05388e-05
-0.000231418
-1.09364e-05
-0.000220129
-1.12891e-05
-0.000208534
-1.15942e-05
-0.000196685
-1.18495e-05
-0.000184632
-1.20525e-05
-0.000172431
-1.22013e-05
-0.000160137
-1.22938e-05
-0.00014781
-1.23277e-05
-0.000135509
-1.23007e-05
-0.000123298
-1.2211e-05
-0.000111241
-1.2057e-05
-9.94034e-05
-1.18373e-05
-8.78528e-05
-1.15506e-05
-7.66569e-05
-1.11959e-05
-6.58841e-05
-1.07727e-05
-5.56034e-05
-1.02807e-05
-4.58836e-05
-9.71978e-06
-3.67933e-05
-9.09037e-06
-2.83998e-05
-8.39353e-06
-2.07686e-05
-7.63115e-06
-1.39626e-05
-6.80602e-06
-8.04046e-06
-5.92213e-06
-3.0551e-06
-4.98536e-06
9.48967e-07
-4.00405e-06
3.93887e-06
-2.98992e-06
5.89847e-06
-1.95965e-06
6.83629e-06
-9.37822e-07
6.79808e-06
3.8258e-08
5.88731e-06
9.10797e-07
4.29724e-06
1.59004e-06
2.36533e-06
1.93189e-06
6.65433e-07
1.69992e-06
6.65471e-07
1.7447e-06
-2.44662e-06
4.71414e-06
-4.62881e-06
7.47953e-06
-4.5457e-06
9.07936e-06
-2.97191e-06
8.8478e-06
-4.23874e-07
6.35117e-06
2.73574e-06
1.33344e-06
6.2437e-06
-6.33234e-06
9.91473e-06
-1.66792e-05
1.36187e-05
-2.96744e-05
1.72649e-05
-4.52359e-05
2.07897e-05
-6.32483e-05
2.41482e-05
-8.35724e-05
2.73096e-05
-0.000106051
3.02517e-05
-0.000130516
3.29601e-05
-0.000156791
3.54254e-05
-0.000184694
3.76416e-05
-0.000214042
3.96065e-05
-0.000244651
4.13189e-05
-0.000276337
4.27807e-05
-0.000308917
4.39944e-05
-0.000342212
4.49642e-05
-0.000376047
4.56947e-05
-0.000410249
4.6192e-05
-0.000444651
4.64622e-05
-0.000479089
4.65118e-05
-0.000513406
4.6348e-05
-0.000547449
4.59778e-05
-0.000581071
4.54087e-05
-0.00061413
4.46481e-05
-0.000646491
4.37036e-05
-0.000678022
4.25833e-05
-0.000708599
4.1295e-05
-0.000738104
3.98467e-05
-0.000766425
3.82465e-05
-0.000793454
3.65025e-05
-0.000819091
3.4623e-05
-0.000843242
3.2616e-05
-0.000865819
3.04898e-05
-0.00088674
2.8253e-05
-0.000905928
2.59143e-05
-0.000923316
2.34822e-05
-0.000938839
2.09654e-05
-0.000952443
1.83729e-05
-0.000964077
1.57134e-05
-0.000973698
1.29959e-05
-0.00098127
1.02293e-05
-0.000986763
7.42269e-06
-0.000990155
4.58532e-06
-0.000991429
1.72643e-06
-0.000990577
-1.14461e-06
-0.000987596
-4.01843e-06
-0.000982493
-6.88548e-06
-0.000975278
-9.73566e-06
-0.000965974
-1.25588e-05
-0.000954607
-1.53451e-05
-0.000941212
-1.80842e-05
-0.000925833
-2.07658e-05
-0.000908519
-2.33795e-05
-0.000889329
-2.59148e-05
-0.00086833
-2.83607e-05
-0.000845595
-3.07063e-05
-0.000821207
-3.29413e-05
-0.000795256
-3.5055e-05
-0.000767838
-3.70371e-05
-0.00073906
-3.88771e-05
-0.000709034
-4.05649e-05
-0.00067788
-4.209e-05
-0.000645727
-4.34424e-05
-0.000612709
-4.46125e-05
-0.000578967
-4.5591e-05
-0.00054465
-4.63691e-05
-0.000509913
-4.69387e-05
-0.000474915
-4.72917e-05
-0.000439823
-4.74201e-05
-0.000404807
-4.73165e-05
-0.000370044
-4.69742e-05
-0.000335713
-4.63877e-05
-0.000301998
-4.55518e-05
-0.000269086
-4.44628e-05
-0.000237164
-4.31181e-05
-0.000206421
-4.1516e-05
-0.000177045
-3.96565e-05
-0.000149224
-3.75411e-05
-0.00012314
-3.51735e-05
-9.8974e-05
-3.25599e-05
-7.68958e-05
-2.97095e-05
-5.70659e-05
-2.66359e-05
-3.963e-05
-2.3358e-05
-2.47134e-05
-1.9902e-05
-1.24142e-05
-1.63033e-05
-2.79354e-06
-1.26106e-05
4.13802e-06
-8.89121e-06
8.43958e-06
-5.23934e-06
1.02664e-05
-1.78854e-06
9.90707e-06
1.2701e-06
7.83377e-06
3.66336e-06
4.76174e-06
5.00403e-06
1.69782e-06
4.76388e-06
2.36331e-06
1.96427e-06
-4.4109e-06
4.89555e-06
-7.55984e-06
7.01776e-06
-6.66791e-06
7.14553e-06
-3.0998e-06
4.42973e-06
2.29187e-06
-1.70953e-06
8.87501e-06
-1.16367e-05
1.61708e-05
-2.55482e-05
2.38263e-05
-4.35122e-05
3.15825e-05
-6.54983e-05
3.92512e-05
-9.14037e-05
4.66952e-05
-0.00012107
5.38146e-05
-0.000154298
6.05378e-05
-0.000190859
6.68129e-05
-0.000230503
7.26041e-05
-0.000272964
7.78866e-05
-0.000317968
8.26449e-05
-0.00036523
8.68693e-05
-0.000414468
9.0557e-05
-0.000465396
9.37084e-05
-0.000517729
9.63277e-05
-0.000571187
9.84218e-05
-0.000625492
9.99999e-05
-0.000680373
0.000101073
-0.000735565
0.000101654
-0.000790808
0.000101755
-0.000845852
0.000101392
-0.000900453
0.000100579
-0.000954377
9.9332e-05
-0.0010074
9.7667e-05
-0.00105929
9.56006e-05
-0.00110986
9.31495e-05
-0.0011589
9.03311e-05
-0.00120621
8.71626e-05
-0.00125163
8.36617e-05
-0.00129497
7.98461e-05
-0.00133608
7.57337e-05
-0.00137481
7.13424e-05
-0.00141101
6.66905e-05
-0.00144455
6.17966e-05
-0.00147532
5.66793e-05
-0.00150319
5.13577e-05
-0.00152808
4.58507e-05
-0.00154988
4.01774e-05
-0.00156853
3.43573e-05
-0.00158394
2.84101e-05
-0.00159607
2.23555e-05
-0.00160486
1.62133e-05
-0.00161028
1.00041e-05
-0.0016123
3.74802e-06
-0.00161091
-2.53423e-06
-0.0016061
-8.8217e-06
-0.0015979
-1.5093e-05
-0.00158631
-2.13264e-05
-0.00157136
-2.75001e-05
-0.00155312
-3.35917e-05
-0.00153162
-3.95789e-05
-0.00150695
-4.54394e-05
-0.00147918
-5.11501e-05
-0.00144841
-5.6688e-05
-0.00141474
-6.20297e-05
-0.00137829
-6.71521e-05
-0.0013392
-7.2032e-05
-0.00129761
-7.66464e-05
-0.00125367
-8.09726e-05
-0.00120756
-8.49881e-05
-0.00115946
-8.86706e-05
-0.00110955
-9.19979e-05
-0.00105804
-9.49486e-05
-0.00100515
-9.75017e-05
-0.000951107
-9.96375e-05
-0.000896139
-0.000101337
-0.000840497
-0.000102581
-0.000784434
-0.000103354
-0.000728216
-0.000103639
-0.000672112
-0.00010342
-0.000616402
-0.000102685
-0.000561369
-0.000101421
-0.0005073
-9.96197e-05
-0.00045449
-9.72735e-05
-0.00040323
-9.43777e-05
-0.000353816
-9.09305e-05
-0.000306538
-8.69339e-05
-0.000261686
-8.23935e-05
-0.00021954
-7.73197e-05
-0.00018037
-7.17292e-05
-0.000144434
-6.56456e-05
-0.000111968
-5.91022e-05
-8.3182e-05
-5.2144e-05
-5.82527e-05
-4.48313e-05
-3.7311e-05
-3.72449e-05
-2.04288e-05
-2.94928e-05
-7.60023e-06
-2.17197e-05
1.28213e-06
-1.41217e-05
6.45849e-06
-6.96486e-06
8.34074e-06
-6.12118e-07
7.56025e-06
4.44388e-06
5.01806e-06
7.54622e-06
1.93372e-06
7.84824e-06
4.29707e-06
1.5773e-06
-5.98839e-06
3.43737e-06
-9.41984e-06
3.70195e-06
-6.93258e-06
1.08755e-06
-4.85223e-07
-5.33533e-06
8.71501e-06
-1.6217e-05
1.97565e-05
-3.19789e-05
3.1933e-05
-5.28587e-05
4.47061e-05
-7.8946e-05
5.76697e-05
-0.000110214
7.05192e-05
-0.000146544
8.30251e-05
-0.000187747
9.50176e-05
-0.000233579
0.00010637
-0.000283756
0.000116989
-0.00033796
0.000126809
-0.000395855
0.000135781
-0.000457084
0.000143874
-0.000521284
0.000151069
-0.000588083
0.000157356
-0.000657108
0.000162733
-0.000727985
0.000167205
-0.000800343
0.00017078
-0.000873815
0.000173472
-0.00094804
0.000175298
-0.00102267
0.000176279
-0.00109734
0.000176434
-0.00117174
0.000175789
-0.00124553
0.000174368
-0.0013184
0.000172198
-0.00139004
0.000169305
-0.00146015
0.000165718
-0.00152847
0.000161466
-0.00159472
0.000156577
-0.00165863
0.000151082
-0.00171998
0.000145011
-0.00177853
0.000138394
-0.00183406
0.000131263
-0.00188637
0.000123649
-0.00193526
0.000115583
-0.00198056
0.000107097
-0.0020221
9.82243e-05
-0.00205974
8.8997e-05
-0.00209334
7.94482e-05
-0.00212278
6.96112e-05
-0.00214794
5.95196e-05
-0.00216874
4.92075e-05
-0.00218509
3.87094e-05
-0.00219694
2.806e-05
-0.00220423
1.72946e-05
-0.00220693
6.44879e-06
-0.00220502
-4.44131e-06
-0.0021985
-1.53393e-05
-0.00218739
-2.62081e-05
-0.0021717
-3.70098e-05
-0.0021515
-4.77066e-05
-0.00212683
-5.82598e-05
-0.00209778
-6.86309e-05
-0.00206444
-7.87804e-05
-0.00202692
-8.8669e-05
-0.00198535
-9.82569e-05
-0.00193987
-0.000107504
-0.00189066
-0.000116371
-0.00183787
-0.000124817
-0.00178171
-0.000132802
-0.0017224
-0.000140289
-0.00166015
-0.000147237
-0.00159521
-0.000153609
-0.00152784
-0.000159366
-0.00145832
-0.000164473
-0.00138693
-0.000168893
-0.00131397
-0.000172593
-0.00123977
-0.000175539
-0.00116465
-0.000177702
-0.00108895
-0.000179051
-0.00101303
-0.00017956
-0.000937246
-0.000179204
-0.000861969
-0.000177962
-0.000787576
-0.000175814
-0.000714449
-0.000172747
-0.000642975
-0.000168748
-0.000573539
-0.000163814
-0.000506527
-0.000157942
-0.000442323
-0.000151138
-0.0003813
-0.000143417
-0.000323821
-0.000134798
-0.000270235
-0.000125315
-0.000220867
-0.000115013
-0.000176015
-0.000103954
-0.000135941
-9.22181e-05
-0.000100859
-7.99138e-05
-7.09222e-05
-6.71816e-05
-4.62095e-05
-5.42055e-05
-2.67021e-05
-4.1227e-05
-1.22605e-05
-2.85633e-05
-2.59355e-06
-1.66318e-05
2.77701e-06
-5.98267e-06
4.55814e-06
2.66273e-06
3.73086e-06
8.3735e-06
1.60794e-06
9.9712e-06
5.90504e-06
8.52416e-07
-6.84084e-06
9.25025e-07
-9.49247e-06
-1.55814e-06
-4.44948e-06
-7.86699e-06
5.82373e-06
-1.89345e-05
1.97823e-05
-3.54234e-05
3.62454e-05
-5.77705e-05
5.42801e-05
-8.62255e-05
7.31612e-05
-0.000120884
9.23282e-05
-0.000161714
0.000111349
-0.000208582
0.000129893
-0.000261272
0.000147708
-0.000319503
0.000164601
-0.000382945
0.000180431
-0.000451227
0.000195091
-0.000523949
0.000208504
-0.000600692
0.000220617
-0.000681019
0.000231396
-0.000764484
0.000240821
-0.000850637
0.000248886
-0.000939025
0.000255593
-0.0010292
0.000260953
-0.00112071
0.000264984
-0.00121312
0.000267708
-0.00130599
0.000269152
-0.00139891
0.000269349
-0.00149145
0.000268332
-0.00158322
0.000266138
-0.00167383
0.000262805
-0.0017629
0.000258374
-0.00185006
0.000252887
-0.00193499
0.000246387
-0.00201733
0.000238918
-0.00209677
0.000230525
-0.00217301
0.000221254
-0.00224577
0.000211152
-0.00231477
0.000200265
-0.00237977
0.000188641
-0.00244051
0.000176329
-0.00249679
0.000163376
-0.0025484
0.000149833
-0.00259515
0.000135749
-0.00263688
0.000121175
-0.00267343
0.000106161
-0.00270467
9.07588e-05
-0.00273048
7.50208e-05
-0.00275077
5.89994e-05
-0.00276546
4.2748e-05
-0.00277448
2.63205e-05
-0.00277781
9.77126e-06
-0.0027754
-6.84432e-06
-0.00276727
-2.34702e-05
-0.00275343
-4.00498e-05
-0.00273391
-5.65256e-05
-0.00270878
-7.28396e-05
-0.00267811
-8.8933e-05
-0.00264199
-0.000104747
-0.00260055
-0.000120221
-0.00255393
-0.000135296
-0.00250227
-0.000149911
-0.00244577
-0.000164005
-0.00238462
-0.000177518
-0.00231905
-0.000190389
-0.00224929
-0.000202559
-0.00217562
-0.000213968
-0.0020983
-0.000224556
-0.00201764
-0.000234267
-0.00193396
-0.000243044
-0.0018476
-0.000250831
-0.00175892
-0.000257575
-0.00166829
-0.000263224
-0.0015761
-0.000267731
-0.00148275
-0.000271048
-0.00138867
-0.000273132
-0.00129429
-0.000273944
-0.00120004
-0.000273448
-0.00110639
-0.000271613
-0.00101379
-0.000268412
-0.000922712
-0.000263826
-0.00083362
-0.00025784
-0.000746985
-0.000250448
-0.000663274
-0.000241653
-0.000582946
-0.000231466
-0.000506451
-0.000219912
-0.000434223
-0.000207027
-0.000366674
-0.000192864
-0.000304189
-0.000177498
-0.000247117
-0.000161026
-0.000195762
-0.000143574
-0.000150368
-0.000125308
-0.00011111
-0.000106439
-7.80761e-05
-8.72398e-05
-5.12439e-05
-6.80592e-05
-3.04614e-05
-4.93458e-05
-1.5418e-05
-3.16752e-05
-5.61447e-06
-1.57862e-05
-3.27525e-07
-2.62422e-06
1.4292e-06
6.61677e-06
9.576e-07
1.04428e-05
6.86264e-06
-5.06988e-08
-6.79005e-06
-2.22097e-06
-7.32225e-06
-8.06786e-06
1.39745e-06
-1.87597e-05
1.65153e-05
-3.51702e-05
3.61931e-05
-5.79286e-05
5.90036e-05
-8.74517e-05
8.3803e-05
-0.000123975
0.000109685
-0.000167583
0.000135936
-0.000218227
0.000161993
-0.000275753
0.00018742
-0.00033992
0.000211874
-0.000410412
0.000235094
-0.000486858
0.000256877
-0.000568841
0.000277074
-0.000655909
0.000295572
-0.000747584
0.000312292
-0.000843369
0.00032718
-0.000942752
0.000340205
-0.00104522
0.000351351
-0.00115024
0.000360618
-0.0012573
0.000368016
-0.00136589
0.000373566
-0.00147548
0.000377298
-0.00158557
0.000379247
-0.00169568
0.000379453
-0.00180531
0.000377963
-0.001914
0.000374826
-0.00202128
0.000370094
-0.00212673
0.000363823
-0.00222992
0.000356071
-0.00233043
0.000346898
-0.00242787
0.000336364
-0.00252188
0.000324532
-0.00261209
0.000311466
-0.00269817
0.000297232
-0.0027798
0.000281895
-0.00285668
0.000265521
-0.00292853
0.000248179
-0.00299509
0.000229937
-0.00305613
0.000210864
-0.00311141
0.000191031
-0.00316074
0.000170508
-0.00320395
0.000149368
-0.00324087
0.000127682
-0.00327137
0.000105523
-0.00329534
8.29672e-05
-0.00331268
6.00884e-05
-0.00332332
3.6963e-05
-0.00332722
1.36679e-05
-0.00332435
-9.71885e-06
-0.0033147
-3.31184e-05
-0.0032983
-5.64508e-05
-0.00327519
-7.96352e-05
-0.00324544
-0.00010259
-0.00320914
-0.000125233
-0.00316641
-0.00014748
-0.00311738
-0.000169248
-0.00306222
-0.000190452
-0.00300113
-0.000211008
-0.0029343
-0.000230831
-0.00286198
-0.000249836
-0.00278443
-0.000267938
-0.00270194
-0.000285054
-0.0026148
-0.000301101
-0.00252336
-0.000315996
-0.00242797
-0.000329659
-0.00232901
-0.000342011
-0.00222686
-0.000352976
-0.00212196
-0.000362478
-0.00201473
-0.000370449
-0.00190565
-0.000376819
-0.00179517
-0.000381525
-0.00168379
-0.000384509
-0.00157202
-0.000385716
-0.00146037
-0.000385098
-0.00134937
-0.000382614
-0.00123955
-0.000378229
-0.00113146
-0.000371918
-0.00102564
-0.000363664
-0.000922623
-0.000353463
-0.000822956
-0.00034132
-0.000727164
-0.000327258
-0.000635764
-0.000311312
-0.000549249
-0.000293541
-0.000468089
-0.000274024
-0.000392721
-0.000252867
-0.000323536
-0.00023021
-0.000260875
-0.000206234
-0.000205014
-0.000181168
-0.000156151
-0.000155303
-0.000114386
-0.000129005
-7.97079e-05
-0.000102737
-5.19724e-05
-7.70814e-05
-3.08766e-05
-5.2771e-05
-1.59363e-05
-3.07265e-05
-6.4578e-06
-1.21028e-05
-1.50769e-06
1.66664e-06
1.24628e-07
8.81053e-06
6.98723e-06
-1.04235e-06
-5.74775e-06
-5.72707e-06
-2.63751e-06
-1.53395e-05
1.10098e-05
-3.0888e-05
3.20641e-05
-5.31433e-05
5.84482e-05
-8.26622e-05
8.85226e-05
-0.000119812
0.000120953
-0.000164792
0.000154665
-0.000217654
0.000188798
-0.000278325
0.000222664
-0.000346623
0.000255717
-0.000422275
0.000287526
-0.000504933
0.000317752
-0.000594187
0.000346131
-0.000689577
0.000372464
-0.000790604
0.000396599
-0.00089674
0.000418427
-0.00100743
0.000437872
-0.00112211
0.000454886
-0.0012402
0.000469443
-0.00136112
0.000481537
-0.00148429
0.000491179
-0.00160911
0.000498391
-0.00173502
0.000503209
-0.00186145
0.000505674
-0.00198783
0.000505839
-0.00211363
0.000503762
-0.00223831
0.000499505
-0.00236136
0.000493138
-0.00248226
0.00048473
-0.00260055
0.000474359
-0.00271576
0.000462101
-0.00282743
0.000448038
-0.00293515
0.000432251
-0.00303851
0.000414825
-0.00313712
0.000395846
-0.00323063
0.0003754
-0.00331868
0.000353577
-0.00340097
0.000330467
-0.00347719
0.00030616
-0.00354708
0.000280748
-0.00361037
0.000254325
-0.00366685
0.000226986
-0.00371631
0.000198825
-0.00375856
0.000169939
-0.00379347
0.000140426
-0.00382088
0.000110385
-0.00384071
7.99159e-05
-0.00385287
4.91204e-05
-0.0038573
1.8101e-05
-0.00385398
-1.30385e-05
-0.00384291
-4.4193e-05
-0.0038241
-7.52558e-05
-0.00379762
-0.00010612
-0.00376353
-0.000136676
-0.00372195
-0.000166815
-0.00367301
-0.000196425
-0.00361686
-0.000225397
-0.00355369
-0.000253617
-0.00348373
-0.000280973
-0.0034072
-0.000307354
-0.00332439
-0.000332646
-0.00323559
-0.000356739
-0.00314113
-0.00037952
-0.00304135
-0.000400881
-0.00293663
-0.000420712
-0.00282738
-0.000438909
-0.00271402
-0.000455367
-0.00259702
-0.000469984
-0.00247683
-0.000482665
-0.00235396
-0.000493317
-0.00222893
-0.00050185
-0.00210227
-0.000508182
-0.00197454
-0.000512238
-0.00184631
-0.000513946
-0.00171816
-0.000513247
-0.00159069
-0.000510087
-0.0014645
-0.000504424
-0.00134019
-0.000496227
-0.00121837
-0.000485479
-0.00109966
-0.000472175
-0.000984652
-0.000456329
-0.000873936
-0.000437973
-0.000768086
-0.000417162
-0.000667652
-0.000393975
-0.000573154
-0.000368522
-0.000485073
-0.000340948
-0.000403843
-0.00031144
-0.000329841
-0.000280237
-0.000263373
-0.000247636
-0.000204663
-0.000214012
-0.000153838
-0.00017983
-0.000110907
-0.000145667
-7.57525e-05
-0.000112236
-4.81024e-05
-8.04211e-05
-2.75174e-05
-5.13115e-05
-1.3369e-05
-2.62512e-05
-4.82011e-06
-6.88228e-06
-8.05057e-07
4.79546e-06
6.18216e-06
-2.06952e-06
-3.67805e-06
-9.41546e-06
4.70817e-06
-2.30373e-05
2.46318e-05
-4.37524e-05
5.27792e-05
-7.21948e-05
8.68906e-05
-0.000108822
0.00012515
-0.000153928
0.000166058
-0.000207654
0.000208391
-0.000270008
0.000251152
-0.000340876
0.000293532
-0.000420041
0.000334882
-0.000507193
0.000374678
-0.000601949
0.000412507
-0.00070386
0.000448042
-0.000812425
0.000481029
-0.000927101
0.000511276
-0.00104731
0.00053864
-0.00117246
0.000563019
-0.00130192
0.000584347
-0.00143507
0.000602588
-0.00157126
0.000617727
-0.00170985
0.000629774
-0.00185021
0.000638751
-0.0019917
0.000644699
-0.0021337
0.000647669
-0.00227558
0.000647722
-0.00241675
0.00064493
-0.00255661
0.00063937
-0.0026946
0.000631126
-0.00283016
0.000620288
-0.00296275
0.00060695
-0.00309186
0.00059121
-0.00321699
0.000573169
-0.00333767
0.000552932
-0.00345345
0.000530604
-0.0035639
0.000506295
-0.00366862
0.000480117
-0.00376722
0.00045218
-0.00385935
0.000422601
-0.00394469
0.000391494
-0.00402292
0.000358978
-0.00409376
0.000325172
-0.00415697
0.000290196
-0.00421232
0.000254172
-0.00425961
0.000217223
-0.00429865
0.000179475
-0.00432932
0.000141054
-0.00435149
0.000102088
-0.00436508
6.27066e-05
-0.00437002
2.30415e-05
-0.00436629
-1.67747e-05
-0.00435387
-5.66076e-05
-0.0043328
-9.63213e-05
-0.00430315
-0.000135779
-0.00426498
-0.00017484
-0.00421843
-0.000213367
-0.00416364
-0.000251218
-0.00410078
-0.00028825
-0.00403008
-0.000324322
-0.00395176
-0.00035929
-0.0038661
-0.000393012
-0.0037734
-0.000425344
-0.003674
-0.000456145
-0.00356824
-0.000485274
-0.00345653
-0.000512591
-0.00333929
-0.00053796
-0.00321695
-0.000561246
-0.00309
-0.000582318
-0.00295893
-0.000601049
-0.00282428
-0.000617316
-0.0026866
-0.000631002
-0.00254645
-0.000641996
-0.00240444
-0.000650196
-0.00226117
-0.000655506
-0.00211728
-0.000657839
-0.0019734
-0.000657121
-0.0018302
-0.000653287
-0.00168834
-0.000646288
-0.00154848
-0.000636086
-0.00141129
-0.000622662
-0.00127745
-0.000606018
-0.00114761
-0.000586173
-0.00102241
-0.000563174
-0.000902474
-0.000537094
-0.000788412
-0.000508038
-0.000680785
-0.000476149
-0.000580119
-0.000441614
-0.000486888
-0.000404671
-0.000401506
-0.000365619
-0.000324313
-0.000324829
-0.000255565
-0.000282759
-0.000195423
-0.000239973
-0.000143932
-0.000197158
-0.000101014
-0.000155154
-6.64508e-05
-0.000114985
-3.98699e-05
-7.78925e-05
-2.07347e-05
-4.53864e-05
-8.33432e-06
-1.92827e-05
-1.77863e-06
-1.76024e-06
4.40354e-06
-3.10204e-06
-5.7596e-07
-1.31738e-05
1.478e-05
-3.0936e-05
4.23938e-05
-5.70012e-05
7.88444e-05
-9.18483e-05
0.000121738
-0.000135816
0.000169118
-0.000189106
0.000219348
-0.000251786
0.000271071
-0.000323804
0.00032317
-0.000404996
0.000374724
-0.000495099
0.000424985
-0.000593763
0.000473343
-0.000700563
0.000519308
-0.000815012
0.00056249
-0.000936566
0.000602584
-0.00106464
0.000639351
-0.00119862
0.000672615
-0.00133784
0.000702247
-0.00148166
0.000728162
-0.00162938
0.000750308
-0.00178032
0.000768664
-0.00193378
0.000783235
-0.00208907
0.000794045
-0.00224551
0.000801139
-0.00240242
0.000804575
-0.00255912
0.000804427
-0.00271497
0.000800777
-0.00286932
0.00079372
-0.00302155
0.000783356
-0.00317105
0.000769793
-0.00331725
0.000753146
-0.00345957
0.000733534
-0.00359748
0.000711081
-0.00373047
0.000685914
-0.00385803
0.000658165
-0.0039797
0.000627967
-0.00409504
0.000595457
-0.00420363
0.000560774
-0.00430509
0.000524059
-0.00439905
0.000485456
-0.00448518
0.000445109
-0.00456318
0.000403166
-0.00463276
0.000359777
-0.00469368
0.000315092
-0.00474572
0.000269264
-0.00478869
0.000222448
-0.00482244
0.000174801
-0.00484683
0.000126481
-0.00486178
7.76498e-05
-0.00486721
2.84692e-05
-0.00486308
-2.08963e-05
-0.00484941
-7.028e-05
-0.00482622
-0.000119514
-0.00479357
-0.000168428
-0.00475156
-0.00021685
-0.00470032
-0.000264608
-0.00464001
-0.000311527
-0.00457083
-0.000357433
-0.004493
-0.000402148
-0.00440679
-0.000445497
-0.0043125
-0.000487303
-0.00421046
-0.00052739
-0.00410102
-0.000565584
-0.00398458
-0.000601712
-0.00386157
-0.000635601
-0.00373245
-0.000667083
-0.0035977
-0.000695994
-0.00345785
-0.000722172
-0.00331343
-0.000745463
-0.00316503
-0.000765715
-0.00301325
-0.000782786
-0.0028587
-0.000796542
-0.00270204
-0.000806857
-0.00254393
-0.000813616
-0.00238506
-0.000816714
-0.00222611
-0.000816063
-0.00206782
-0.000811585
-0.00191088
-0.000803222
-0.00175603
-0.000790934
-0.001604
-0.000774701
-0.00145549
-0.000754526
-0.00131122
-0.000730441
-0.00117189
-0.000702505
-0.00103817
-0.000670814
-0.000910707
-0.000635499
-0.000790115
-0.000596741
-0.000676961
-0.000554769
-0.000571759
-0.000509873
-0.000474962
-0.000462416
-0.000386949
-0.000412841
-0.000308018
-0.000361691
-0.000238368
-0.000309623
-0.000178094
-0.000257432
-0.000127171
-0.000206076
-8.54509e-05
-0.000156705
-5.26458e-05
-0.000110698
-2.83299e-05
-6.97022e-05
-1.19364e-05
-3.56763e-05
-2.76426e-06
-1.09324e-05
1.63929e-06
-4.12196e-06
3.54591e-06
-1.69307e-05
2.75888e-05
-3.88853e-05
6.43485e-05
-7.03921e-05
0.000110351
-0.000111766
0.000163112
-0.000163214
0.000220566
-0.000224832
0.000280966
-0.000296602
0.000342841
-0.0003784
0.000404967
-0.000470001
0.000466326
-0.00057109
0.000526074
-0.000681269
0.000583522
-0.000800068
0.000638107
-0.000926956
0.000689378
-0.00106135
0.000736976
-0.00120262
0.00078062
-0.0013501
0.000820097
-0.0015031
0.000855251
-0.00166092
0.000885975
-0.00182281
0.000912204
-0.00198806
0.000933908
-0.00215591
0.000951086
-0.00232563
0.000963764
-0.00249648
0.000971991
-0.00266774
0.000975833
-0.00283869
0.000975374
-0.00300862
0.000970711
-0.00317685
0.000961952
-0.00334271
0.000949217
-0.00350555
0.000932634
-0.00366474
0.000912338
-0.00381968
0.000888471
-0.00396978
0.000861182
-0.00411449
0.000830622
-0.00425327
0.000796949
-0.00438563
0.000760322
-0.00451108
0.000720908
-0.00462918
0.000678872
-0.0047395
0.000634384
-0.00484166
0.000587618
-0.0049353
0.000538748
-0.00502009
0.000487953
-0.00509573
0.000435413
-0.00516194
0.000381309
-0.00521851
0.000325827
-0.00526521
0.000269153
-0.00530189
0.000211478
-0.0053284
0.000152993
-0.00534464
9.38919e-05
-0.00535054
3.43712e-05
-0.00534607
-2.53702e-05
-0.00533122
-8.51313e-05
-0.00530602
-0.000144709
-0.00527055
-0.000203899
-0.00522491
-0.000262492
-0.00516924
-0.000320282
-0.00510371
-0.000377057
-0.00502853
-0.000432606
-0.00494396
-0.000486718
-0.00485028
-0.00053918
-0.0047478
-0.00058978
-0.00463689
-0.000638307
-0.00451792
-0.000684549
-0.00439133
-0.000728299
-0.00425758
-0.000769352
-0.00411716
-0.000807504
-0.0039706
-0.000842559
-0.00381845
-0.000874324
-0.0036613
-0.000902611
-0.00349977
-0.000927244
-0.0033345
-0.000948051
-0.00316617
-0.000964872
-0.00299547
-0.000977558
-0.00282312
-0.000985972
-0.00264984
-0.000989993
-0.00247638
-0.000989515
-0.00230352
-0.000984449
-0.00213201
-0.000974729
-0.00196264
-0.000960309
-0.00179617
-0.000941169
-0.00163338
-0.000917318
-0.00147502
-0.000888796
-0.00132185
-0.000855681
-0.00117457
-0.000818087
-0.00103389
-0.000776179
-0.000900463
-0.000730171
-0.000774893
-0.000680338
-0.000657742
-0.000627025
-0.000549504
-0.000570654
-0.000450603
-0.000511742
-0.000361382
-0.000450913
-0.00028209
-0.000388914
-0.00021288
-0.000326642
-0.000153795
-0.000265161
-0.000104765
-0.000205735
-6.56019e-05
-0.00014986
-3.60028e-05
-9.93013e-05
-1.55531e-05
-5.6126e-05
-3.74311e-06
-2.27424e-05
-2.10383e-06
-5.11973e-06
8.66577e-06
-2.06432e-05
4.31122e-05
-4.67883e-05
9.04936e-05
-8.37622e-05
0.000147325
-0.000131713
0.000211062
-0.000190709
0.000279563
-0.000260732
0.000350989
-0.000341669
0.000423778
-0.000433314
0.000496613
-0.000535375
0.000568386
-0.000647474
0.000638173
-0.00076916
0.000705208
-0.000899915
0.000768862
-0.00103916
0.000828623
-0.00118626
0.000884081
-0.00134056
0.000934914
-0.00150134
0.000980874
-0.00166786
0.00102178
-0.00183938
0.00105749
-0.00201512
0.00108795
-0.00219431
0.00111309
-0.00237615
0.00113293
-0.00255986
0.00114748
-0.00274467
0.0011568
-0.00292981
0.00116097
-0.00311451
0.00116007
-0.00329802
0.00115422
-0.00347961
0.00114355
-0.00365858
0.00112819
-0.00383423
0.00110828
-0.00400589
0.001084
-0.00417292
0.0010555
-0.0043347
0.00102296
-0.00449063
0.000986553
-0.00464015
0.000946468
-0.00478272
0.000902892
-0.00491783
0.000856019
-0.00504501
0.000806047
-0.0051638
0.000753175
-0.00527379
0.000697609
-0.00537459
0.000639555
-0.00546586
0.000579223
-0.00554728
0.000516828
-0.00561855
0.000452583
-0.00567944
0.000386709
-0.00572971
0.000319427
-0.00576919
0.00025096
-0.00579773
0.000181537
-0.00581523
0.000111387
-0.0058216
4.07426e-05
-0.00581681
-3.0161e-05
-0.00580086
-0.000101086
-0.00577377
-0.000171791
-0.00573564
-0.000242035
-0.00568656
-0.000311572
-0.00562668
-0.000380156
-0.0055562
-0.000447538
-0.00547534
-0.000513468
-0.00538436
-0.000577697
-0.00528357
-0.000639974
-0.0051733
-0.000700047
-0.00505394
-0.000757669
-0.0049259
-0.000812591
-0.00478963
-0.000864567
-0.00464563
-0.000913355
-0.00449441
-0.000958719
-0.00433655
-0.00100042
-0.00417262
-0.00103824
-0.00400327
-0.00107196
-0.00382915
-0.00110137
-0.00365094
-0.00112626
-0.00346935
-0.00114646
-0.00328513
-0.00116178
-0.00309903
-0.00117207
-0.00291183
-0.00117719
-0.00272433
-0.00117701
-0.00253735
-0.00117144
-0.00235168
-0.00116039
-0.00216816
-0.00114383
-0.00198761
-0.00112172
-0.00181084
-0.00109408
-0.00163867
-0.00106097
-0.00147188
-0.00102247
-0.00131124
-0.000978731
-0.00115748
-0.000929936
-0.00101131
-0.000876342
-0.00087338
-0.000818267
-0.000744297
-0.000756108
-0.0006246
-0.00069035
-0.000514763
-0.000621579
-0.00041518
-0.000550496
-0.000326159
-0.000477935
-0.000247919
-0.000404883
-0.000180578
-0.000332503
-0.000124156
-0.000262157
-7.85726e-05
-0.000195443
-4.36533e-05
-0.000134221
-1.91384e-05
-8.06409e-05
-4.70436e-06
-3.71765e-05
-6.80819e-06
-6.0909e-06
1.47565e-05
-2.42858e-05
6.13075e-05
-5.45847e-05
0.000120792
-9.70046e-05
0.000189745
-0.00015153
0.000265587
-0.000218089
0.000346122
-0.000296543
0.000429443
-0.000386677
0.000513912
-0.000488198
0.000598134
-0.000600736
0.000680924
-0.000723849
0.000761286
-0.000857025
0.000838384
-0.00099969
0.000911527
-0.00115122
0.00098015
-0.00131093
0.00104379
-0.00147811
0.0011021
-0.00165201
0.00115477
-0.00183185
0.00120162
-0.00201683
0.00124247
-0.00220614
0.00127726
-0.00239896
0.00130591
-0.00259446
0.00132843
-0.00279181
0.00134483
-0.0029902
0.00135519
-0.0031888
0.00135957
-0.00338683
0.0013581
-0.00358349
0.00135088
-0.003778
0.00133806
-0.00396963
0.00131981
-0.00415763
0.00129629
-0.00434131
0.00126768
-0.00451999
0.00123417
-0.004693
0.00119597
-0.00485971
0.00115327
-0.00501955
0.0011063
-0.00517192
0.00105527
-0.00531631
0.0010004
-0.00545219
0.00094193
-0.0055791
0.000880086
-0.0056966
0.000815106
-0.00580427
0.000747233
-0.00590176
0.000676709
-0.00598872
0.000603784
-0.00606484
0.000528708
-0.00612987
0.000451737
-0.00618357
0.000373128
-0.00622575
0.000293142
-0.00625626
0.000212044
-0.00627497
0.000130101
-0.00628182
4.7585e-05
-0.00627675
-3.52309e-05
-0.00625976
-0.00011807
-0.0062309
-0.000200652
-0.00619024
-0.000282694
-0.0061379
-0.000363913
-0.00607404
-0.00044402
-0.00599885
-0.000522728
-0.00591257
-0.000599746
-0.00581548
-0.000674783
-0.00570791
-0.000747549
-0.0055902
-0.000817751
-0.00546277
-0.000885102
-0.00532605
-0.000949314
-0.00518051
-0.0010101
-0.00502668
-0.00106718
-0.00486512
-0.00112029
-0.0046964
-0.00116914
-0.00452117
-0.00121348
-0.00434007
-0.00125306
-0.00415381
-0.00128763
-0.0039631
-0.00131697
-0.00376871
-0.00134085
-0.0035714
-0.00135909
-0.00337199
-0.00137149
-0.00317128
-0.00137789
-0.00297013
-0.00137816
-0.00276938
-0.00137219
-0.0025699
-0.00135988
-0.00237255
-0.00134118
-0.00217819
-0.00131607
-0.0019877
-0.00128457
-0.00180192
-0.00124675
-0.00162169
-0.0012027
-0.00144783
-0.0011526
-0.0012811
-0.00109666
-0.00112226
-0.00103518
-0.000972022
-0.000968509
-0.000831022
-0.000897107
-0.000699859
-0.000821514
-0.000579057
-0.000742381
-0.000469069
-0.000660484
-0.000370269
-0.000576735
-0.000282948
-0.000492205
-0.000207308
-0.000408143
-0.000143464
-0.000326001
-9.14489e-05
-0.000247458