/*--------------------------------*- C++ -*----------------------------------*\
  =========                 |
  \\      /  F ield         | OpenFOAM: The Open Source CFD Toolbox
   \\    /   O peration     | Website:  https://openfoam.org
    \\  /    A nd           | Version:  11
     \\/     M anipulation  |
\*---------------------------------------------------------------------------*/
FoamFile
{
    format      ascii;
    class       volScalarField;
    location    "8.7";
    object      p;
}
// * * * * * * * * * * * * * * * * * * * * * * * * * * * * * * * * * * * * * //

dimensions      [0 2 -2 0 0 0 0];

internalField   nonuniform List<scalar> 
10100
(
1.55922e-07
9.13152e-05
-0.000127131
-0.000693308
-0.00156178
-0.00268218
-0.00400056
-0.00546392
-0.00702356
-0.00863641
-0.0102651
-0.011877
-0.013443
-0.014938
-0.01634
-0.0176302
-0.0187928
-0.0198142
-0.0206829
-0.0213894
-0.0219261
-0.0222869
-0.0224669
-0.0224633
-0.0222739
-0.0218977
-0.0213349
-0.0205863
-0.0196539
-0.0185402
-0.0172487
-0.0157837
-0.0141503
-0.0123538
-0.0104003
-0.00829608
-0.00604837
-0.00366465
-0.00115281
0.00147887
0.00422176
0.0070668
0.0100047
0.0130259
0.0161205
0.0192783
0.0224889
0.0257418
0.0290263
0.0323317
0.0356467
0.0389604
0.0422614
0.0455386
0.0487806
0.0519764
0.0551146
0.0581843
0.0611747
0.064075
0.0668747
0.0695634
0.0721311
0.0745686
0.0768668
0.0790172
0.0810116
0.0828423
0.0845021
0.0859849
0.0872853
0.0883987
0.0893214
0.0900507
0.0905846
0.0909224
0.0910645
0.0910123
0.0907686
0.0903378
0.0897257
0.0889401
0.0879902
0.086887
0.0856434
0.0842745
0.0827978
0.0812337
0.0796052
0.0779388
0.0762644
0.074616
0.0730316
0.0715543
0.0702318
0.0691162
0.0682604
0.0677153
0.0675227
0.0676301
-9.40639e-05
8.71093e-06
-0.000196407
-0.000699264
-0.00145116
-0.00241581
-0.00355327
-0.00482166
-0.00618051
-0.00759287
-0.00902532
-0.0104481
-0.0118348
-0.013162
-0.0144088
-0.0155574
-0.0165923
-0.0175001
-0.0182695
-0.0188911
-0.0193571
-0.0196611
-0.0197984
-0.0197654
-0.0195598
-0.0191802
-0.0186264
-0.0178991
-0.0169996
-0.0159303
-0.0146939
-0.0132943
-0.011736
-0.0100241
-0.008164
-0.00616177
-0.00402403
-0.00175775
0.000629745
0.00313066
0.00573676
0.00843949
0.0112301
0.0140996
0.0170386
0.0200373
0.023086
0.0261745
0.0292928
0.0324308
0.0355777
0.038723
0.0418563
0.0449666
0.0480435
0.0510761
0.0540541
0.056967
0.0598047
0.0625569
0.0652138
0.0677656
0.070203
0.0725172
0.0747
0.0767434
0.0786397
0.0803819
0.0819633
0.0833784
0.0846223
0.0856909
0.0865812
0.0872906
0.0878177
0.0881623
0.088325
0.0883075
0.0881129
0.0877456
0.0872118
0.0865192
0.0856769
0.0846958
0.0835884
0.0823692
0.0810553
0.0796657
0.0782225
0.0767502
0.0752763
0.0738314
0.072449
0.071166
0.070022
0.0690579
0.0683124
0.0678209
0.0676293
0.0677373
0.000127048
0.000231253
3.0569e-05
-0.000439611
-0.00112539
-0.00199537
-0.00301698
-0.00415521
-0.00537581
-0.00664668
-0.00793769
-0.00922201
-0.0104755
-0.0116763
-0.0128052
-0.0138452
-0.0147813
-0.0156008
-0.0162925
-0.0168473
-0.0172574
-0.0175166
-0.0176198
-0.0175635
-0.0173451
-0.0169629
-0.0164166
-0.0157064
-0.0148337
-0.0138001
-0.0126084
-0.0112621
-0.00976508
-0.00812202
-0.00633807
-0.00441902
-0.00237105
-0.000200687
0.00208518
0.00447915
0.00697333
0.00955962
0.0122298
0.0149751
0.0177867
0.0206552
0.0235712
0.0265253
0.0295079
0.0325089
0.0355184
0.0385262
0.0415223
0.0444965
0.0474385
0.0503383
0.0531857
0.0559709
0.0586843
0.0613162
0.0638571
0.0662976
0.0686292
0.0708436
0.072933
0.0748898
0.0767068
0.0783774
0.0798955
0.081256
0.0824544
0.083487
0.084351
0.0850443
0.0855659
0.0859157
0.0860945
0.0861042
0.0859481
0.0856306
0.0851579
0.0845377
0.0837789
0.0828921
0.0818892
0.0807842
0.0795934
0.0783347
0.0770289
0.0756987
0.0743692
0.073068
0.0718248
0.0706718
0.0696426
0.0687714
0.0680896
0.0676272
0.0674363
0.0675452
0.000715087
0.000760937
0.000529626
5.80588e-05
-0.000603243
-0.00142564
-0.00237997
-0.00343618
-0.0045649
-0.00573746
-0.00692759
-0.00811081
-0.00926491
-0.01037
-0.0114082
-0.0123637
-0.0132223
-0.0139718
-0.0146016
-0.0151028
-0.0154678
-0.0156906
-0.0157663
-0.0156911
-0.0154625
-0.0150787
-0.014539
-0.0138437
-0.0129935
-0.0119903
-0.0108365
-0.00953523
-0.00809022
-0.00650568
-0.00478651
-0.0029382
-0.000966578
0.00112223
0.0033216
0.00562441
0.00802321
0.0105103
0.0130778
0.0157174
0.0184203
0.0211778
0.0239809
0.0268205
0.0296873
0.0325719
0.0354643
0.0383552
0.0412348
0.0440933
0.0469209
0.0497078
0.0524446
0.0551217
0.05773
0.06026
0.0627028
0.0650495
0.0672919
0.0694222
0.071433
0.0733169
0.0750672
0.0766777
0.0781427
0.0794574
0.0806175
0.0816198
0.0824617
0.0831413
0.0836579
0.0840114
0.0842029
0.0842343
0.0841088
0.083831
0.083407
0.0828443
0.0821515
0.0813385
0.080417
0.0794002
0.0783034
0.0771436
0.07594
0.0747135
0.073487
0.0722854
0.0711353
0.0700648
0.0691034
0.0682807
0.0676245
0.067162
0.0669434
0.0670016
0.00161949
0.00154763
0.00124752
0.000745862
8.04917e-05
-0.000722854
-0.00163853
-0.00264053
-0.00370319
-0.00480196
-0.00591348
-0.00701587
-0.0080891
-0.00911509
-0.0100772
-0.0109609
-0.0117532
-0.0124423
-0.0130184
-0.0134729
-0.0137986
-0.0139896
-0.0140411
-0.0139496
-0.0137122
-0.0133275
-0.0127945
-0.0121132
-0.0112843
-0.0103095
-0.00919093
-0.00793158
-0.00653483
-0.00500472
-0.00334588
-0.00156342
0.000337206
0.00235011
0.00446892
0.00668685
0.00899682
0.0113916
0.0138635
0.0164045
0.0190063
0.0216604
0.0243583
0.0270914
0.0298505
0.0326267
0.0354104
0.0381926
0.040964
0.0437151
0.0464365
0.0491188
0.0517531
0.0543302
0.0568411
0.059277
0.0616291
0.0638891
0.0660492
0.068102
0.0700402
0.071857
0.0735458
0.0751009
0.0765171
0.0777896
0.0789145
0.0798888
0.08071
0.0813767
0.0818881
0.0822443
0.0824465
0.0824965
0.0823975
0.0821542
0.0817724
0.0812593
0.0806231
0.0798734
0.079021
0.0780784
0.0770601
0.0759818
0.0748611
0.0737173
0.0725709
0.0714444
0.0703612
0.0693462
0.068425
0.0676232
0.0669654
0.0664763
0.0661953
0.0661475
0.00278319
0.00255247
0.00215302
0.00159554
0.000901065
9.1582e-05
-0.000810396
-0.00178245
-0.00280267
-0.00384985
-0.00490324
-0.00594377
-0.00695353
-0.00791607
-0.00881636
-0.0096408
-0.0103776
-0.011016
-0.0115465
-0.0119613
-0.0122533
-0.0124172
-0.0124483
-0.0123429
-0.0120986
-0.0117138
-0.0111875
-0.0105195
-0.00971064
-0.00876225
-0.00767643
-0.00645581
-0.00510365
-0.00362381
-0.00202066
-0.000298966
0.00153612
0.00347893
0.00552331
0.00766284
0.00989086
0.0122003
0.0145839
0.0170339
0.0195422
0.022101
0.024702
0.0273367
0.0299965
0.0326727
0.0353563
0.0380384
0.0407102
0.0433624
0.0459861
0.0485724
0.0511125
0.0535978
0.0560194
0.0583689
0.060638
0.0628188
0.0649036
0.0668855
0.0687575
0.0705129
0.0721456
0.0736503
0.0750218
0.0762558
0.0773484
0.0782969
0.0790989
0.0797533
0.0802594
0.0806173
0.080828
0.0808934
0.0808168
0.0806026
0.0802565
0.0797852
0.0791966
0.0784996
0.0777043
0.0768225
0.0758677
0.0748543
0.0737985
0.0727176
0.0716302
0.0705563
0.0695166
0.0685329
0.0676272
0.0668217
0.066138
0.065598
0.0652251
0.065031
0.00415213
0.00373663
0.0032151
0.00258089
0.00183531
0.000997458
8.71362e-05
-0.000876962
-0.00187621
-0.00289213
-0.00390681
-0.00490345
-0.00586625
-0.00678048
-0.00763255
-0.00841021
-0.00910244
-0.00969956
-0.0101928
-0.0105748
-0.0108392
-0.0109807
-0.010995
-0.0108786
-0.0106293
-0.0102453
-0.00972576
-0.0090705
-0.00828023
-0.00735628
-0.00630051
-0.00511537
-0.00380403
-0.00237015
-0.00081781
0.000848487
0.00262374
0.00450252
0.00647898
0.00854701
0.0107003
0.0129319
0.0152349
0.0176017
0.0200249
0.0224968
0.0250094
0.0275545
0.0301239
0.0327091
0.0353015
0.0378926
0.0404738
0.0430363
0.0455713
0.0480705
0.0505253
0.0529274
0.0552682
0.0575396
0.0597337
0.0618429
0.0638599
0.0657778
0.06759
0.0692901
0.0708723
0.0723315
0.0736628
0.074862
0.0759254
0.0768504
0.0776348
0.0782776
0.0787782
0.0791366
0.0793537
0.0794315
0.079373
0.0791826
0.0788655
0.0784283
0.0778781
0.0772233
0.0764733
0.0756393
0.0747334
0.073769
0.0727607
0.0717241
0.0706759
0.0696338
0.0686161
0.0676417
0.0667295
0.0658983
0.0651673
0.0645555
0.0640682
0.0637013
0.00567671
0.00506102
0.00440137
0.00367401
0.00285961
0.00197504
0.00103761
6.28247e-05
-0.000933655
-0.0019361
-0.00292907
-0.00389782
-0.00482844
-0.005708
-0.00652429
-0.00726637
-0.00792414
-0.00848886
-0.00895256
-0.00930845
-0.00955064
-0.00967427
-0.00967529
-0.00955064
-0.00929808
-0.00891594
-0.00840334
-0.0077603
-0.00698747
-0.00608602
-0.00505774
-0.00390506
-0.00263098
-0.00123895
0.000267193
0.00188313
0.00360399
0.00542454
0.00733928
0.00934242
0.0114278
0.0135887
0.0158185
0.0181099
0.0204558
0.0228488
0.0252813
0.0277452
0.0302326
0.0327354
0.0352453
0.0377541
0.0402533
0.0427347
0.0451897
0.0476103
0.0499883
0.0523154
0.0545834
0.0567846
0.0589114
0.0609564
0.0629125
0.0647731
0.0665316
0.0681822
0.0697192
0.0711377
0.0724331
0.073601
0.074638
0.0755416
0.07631
0.0769419
0.0774367
0.0777945
0.0780161
0.0781032
0.078059
0.0778873
0.0775933
0.0771828
0.0766626
0.0760404
0.0753251
0.0745267
0.0736566
0.0727268
0.0717504
0.0707415
0.069715
0.0686866
0.0676722
0.0666883
0.0657509
0.0648756
0.0640796
0.0633795
0.0627614
0.0622051
0.00731335
0.00648939
0.00568093
0.00484768
0.00395102
0.0030048
0.00202474
0.00102361
1.43395e-05
-0.000989917
-0.00197591
-0.00293076
-0.0038424
-0.00469945
-0.00549123
-0.00620779
-0.0068403
-0.00738075
-0.00782199
-0.00815792
-0.00838313
-0.0084931
-0.00848428
-0.00835387
-0.00809969
-0.00772025
-0.00721488
-0.00658363
-0.00582707
-0.00494636
-0.00394325
-0.00282017
-0.00157996
-0.00022584
0.00123849
0.00280879
0.00448041
0.00624833
0.00810732
0.0100518
0.0120758
0.0141729
0.0163365
0.0185598
0.0208361
0.023158
0.0255181
0.0279087
0.0303223
0.032751
0.0351867
0.0376214
0.0400471
0.0424556
0.0448389
0.0471891
0.0494982
0.0517582
0.0539612
0.0560997
0.0581665
0.0601543
0.0620561
0.0638656
0.0655765
0.0671831
0.06868
0.0700624
0.0713257
0.0724657
0.0734792
0.0743636
0.0751173
0.075739
0.076228
0.0765842
0.0768083
0.0769022
0.0768686
0.0767111
0.0764345
0.0760441
0.0755462
0.0749478
0.0742573
0.0734838
0.0726376
0.0717295
0.0707712
0.0697755
0.0687554
0.0677248
0.0666979
0.0656885
0.06471
0.0637756
0.0629006
0.0620994
0.0613393
0.0605845
0.00902447
0.0079889
0.00702498
0.00607715
0.00508734
0.00406763
0.00303239
0.00199184
0.000956464
-6.27027e-05
-0.00105443
-0.00200766
-0.00291199
-0.00375738
-0.00453469
-0.00523499
-0.0058505
-0.00637409
-0.00679947
-0.00712101
-0.00733398
-0.0074343
-0.00741883
-0.00728497
-0.00703071
-0.00665486
-0.00615692
-0.00553696
-0.00479555
-0.00393388
-0.00295377
-0.00185753
-0.000647881
0.0006721
0.00209879
0.00362803
0.00525537
0.00697607
0.0087851
0.010677
0.0126459
0.0146856
0.0167899
0.0189524
0.0211662
0.0234245
0.0257199
0.0280451
0.0303927
0.0327551
0.0351246
0.0374933
0.0398533
0.0421971
0.0445166
0.0468043
0.0490523
0.0512528
0.0533983
0.0554814
0.0574952
0.0594325
0.0612865
0.063051
0.06472
0.0662879
0.0677497
0.0691003
0.0703354
0.0714509
0.0724435
0.0733109
0.0740513
0.0746635
0.0751466
0.0755004
0.0757256
0.0758238
0.0757975
0.07565
0.0753856
0.0750092
0.0745266
0.0739442
0.0732696
0.0725113
0.0716782
0.0707803
0.0698279
0.0688324
0.0678055
0.0667593
0.065706
0.0646576
0.0636251
0.0626193
0.0616541
0.0607425
0.0598333
0.0588759
0.0107772
0.00953038
0.00840763
0.00733886
0.00624783
0.0051455
0.00404484
0.00295395
0.00188132
0.000836105
-0.000172336
-0.00113466
-0.00204184
-0.0028853
-0.00365699
-0.00434935
-0.00495534
-0.00546883
-0.00588424
-0.00619655
-0.0064016
-0.00649592
-0.00647666
-0.00634141
-0.00608852
-0.00571709
-0.00522673
-0.00461751
-0.00389012
-0.00304589
-0.00208663
-0.00101454
0.000167772
0.00145725
0.00285029
0.00434291
0.00593084
0.00760958
0.00937419
0.0112193
0.0131392
0.015128
0.0171797
0.0192881
0.0214466
0.0236484
0.0258865
0.0281537
0.030443
0.032747
0.0350579
0.0373683
0.0396706
0.0419573
0.0442209
0.0464536
0.048648
0.0507964
0.0528915
0.0549264
0.0568939
0.0587872
0.0605996
0.0623251
0.0639578
0.0654923
0.0669237
0.0682469
0.0694576
0.0705517
0.0715262
0.0723787
0.0731074
0.0737109
0.0741881
0.0745389
0.0747637
0.0748641
0.0748422
0.0747009
0.0744441
0.0740763
0.0736026
0.0730291
0.0723626
0.0716105
0.0707812
0.0698832
0.0689259
0.0679194
0.0668741
0.0658006
0.0647094
0.0636106
0.0625134
0.0614263
0.0603626
0.0593338
0.0582714
0.0571107
0.0125435
0.011088
0.00980511
0.0086113
0.00741332
0.00622107
0.0050468
0.00389669
0.00277754
0.0016968
0.000662227
-0.000318372
-0.00123727
-0.00208729
-0.0028613
-0.00355296
-0.00415619
-0.00466563
-0.00507634
-0.00538407
-0.00558526
-0.00567685
-0.00565624
-0.00552148
-0.0052713
-0.00490497
-0.00442214
-0.00382306
-0.00310863
-0.00228025
-0.00133968
-0.000289058
0.000869023
0.00213149
0.00349479
0.00495513
0.00650845
0.00815031
0.00987583
0.0116798
0.0135567
0.0155008
0.0175064
0.0195675
0.0216774
0.0238297
0.0260176
0.0282343
0.0304727
0.0327256
0.0349855
0.0372451
0.0394972
0.0417345
0.0439495
0.0461347
0.0482827
0.0503862
0.0524381
0.0544315
0.0563594
0.0582151
0.0599919
0.0616841
0.063286
0.0647923
0.0661979
0.0674979
0.0686879
0.069764
0.0707231
0.0715629
0.0722814
0.072877
0.0733487
0.073696
0.0739195
0.0740202
0.0740001
0.0738617
0.0736084
0.0732442
0.0727739
0.0722029
0.0715372
0.0707837
0.0699496
0.0690426
0.0680711
0.0670439
0.0659703
0.0648595
0.0637205
0.0625619
0.0613911
0.0602151
0.0590464
0.0578959
0.0566783
0.0553157
0.0142995
0.0126386
0.011196
0.00987488
0.0085658
0.00727812
0.00602374
0.00480727
0.00363387
0.00250964
0.00144092
0.000434155
-0.000504218
-0.001368
-0.00215139
-0.00284884
-0.00345521
-0.00396586
-0.00437664
-0.00468401
-0.00488487
-0.00497654
-0.00495684
-0.00482431
-0.00457793
-0.00421708
-0.00374165
-0.00315212
-0.00244955
-0.00163537
-0.000711282
0.000320526
0.00145738
0.00269622
0.00403365
0.00546602
0.00698936
0.00859927
0.0102909
0.0120592
0.0138989
0.0158044
0.0177703
0.0197904
0.0218585
0.0239681
0.0261129
0.0282861
0.0304808
0.0326898
0.034906
0.0371223
0.0393317
0.0415269
0.0437005
0.0458453
0.0479541
0.0500198
0.0520353
0.0539939
0.0558886
0.0577128
0.05946
0.0611246
0.0627012
0.0641842
0.0655686
0.0668495
0.0680226
0.069084
0.0700305
0.0708598
0.0715697
0.0721585
0.072625
0.0729688
0.07319
0.0732897
0.0732692
0.0731308
0.0728773
0.0725125
0.0720406
0.0714664
0.0707955
0.0700336
0.0691874
0.0682636
0.0672696
0.0662133
0.0651028
0.0639462
0.0627512
0.061525
0.0602736
0.0590026
0.0577243
0.056449
0.0550757
0.053514
0.0160245
0.0141623
0.0125611
0.0111114
0.00968845
0.00830134
0.00696183
0.00567323
0.00443929
0.00326496
0.00215531
0.00111567
0.000151208
-0.000732762
-0.00153154
-0.00224044
-0.00285512
-0.00337167
-0.0037868
-0.00409744
-0.00430099
-0.00439519
-0.00437842
-0.00424957
-0.00400779
-0.00365267
-0.00318442
-0.00260379
-0.00191187
-0.00111012
-0.000200332
0.00081523
0.00193383
0.00315246
0.00446786
0.00587649
0.00737437
0.00895711
0.0106199
0.012358
0.0141662
0.0160392
0.0179713
0.0199568
0.0219895
0.0240633
0.0261718
0.0283084
0.0304663
0.0326386
0.0348183
0.0369985
0.0391722
0.0413325
0.0434719
0.0455833
0.0476599
0.0496946
0.0516804
0.0536107
0.0554785
0.0572773
0.0590008
0.0606435
0.0622
0.0636647
0.0650324
0.0662984
0.0674583
0.0685083
0.0694452
0.0702663
0.0709693
0.0715525
0.0720145
0.0723548
0.0725734
0.0726708
0.0726481
0.0725071
0.0722504
0.0718813
0.0714035
0.0708213
0.0701395
0.0693634
0.0684985
0.0675511
0.0665276
0.065435
0.0642804
0.0630708
0.0618128
0.0605126
0.059175
0.0578044
0.056413
0.0550112
0.0534827
0.0517252
0.0177004
0.0156415
0.0138831
0.0123045
0.0107659
0.00927642
0.00784793
0.00648253
0.00518298
0.00395308
0.00279687
0.0017186
0.000722548
-0.000187197
-0.00100654
-0.00173172
-0.0023592
-0.00288585
-0.00330898
-0.00362602
-0.00383482
-0.00393376
-0.00392163
-0.00379753
-0.00356087
-0.00321159
-0.00275022
-0.00217766
-0.00149505
-0.000703925
0.000193762
0.00119562
0.00229892
0.00350078
0.00479801
0.00618703
0.00766386
0.00922412
0.0108632
0.0125764
0.0143587
0.0162049
0.0181093
0.0200663
0.0220701
0.0241146
0.0261935
0.0283003
0.0304283
0.0325708
0.0347209
0.0368721
0.0390173
0.0411495
0.0432616
0.0453467
0.0473979
0.0494083
0.0513711
0.0532794
0.0551265
0.0569059
0.0586115
0.0602379
0.0617794
0.0632306
0.0645862
0.0658415
0.0669921
0.0680341
0.0689642
0.0697795
0.0704776
0.0710566
0.0715151
0.0718522
0.0720679
0.0721622
0.0721358
0.0719903
0.0717278
0.0713512
0.0708638
0.0702694
0.0695721
0.0687764
0.0678874
0.0669106
0.0658515
0.0647165
0.0635115
0.0622429
0.0609162
0.0595368
0.0581084
0.0566345
0.0551278
0.0535983
0.0519157
0.0499662
0.0193116
0.01706
0.0151466
0.0134392
0.0117839
0.01019
0.00866955
0.00722378
0.00585447
0.0045645
0.00335705
0.00223537
0.0012029
0.000262796
-0.000581531
-0.00132715
-0.00197134
-0.00251166
-0.00294581
-0.00327185
-0.0034882
-0.00359374
-0.00358754
-0.00346894
-0.00323774
-0.00289432
-0.00243936
-0.00187384
-0.00119904
-0.000416692
0.000471065
0.0014618
0.00255286
0.00374142
0.00502426
0.00639773
0.00785783
0.00940028
0.0110206
0.0127142
0.0144762
0.0163011
0.0181837
0.0201185
0.0220996
0.0241212
0.026177
0.0282605
0.0303653
0.0324849
0.0346126
0.0367416
0.0388651
0.0409762
0.0430678
0.0451333
0.0471659
0.0491587
0.0511048
0.0529974
0.0548299
0.056596
0.0582896
0.0599051
0.0614369
0.0628794
0.0642274
0.0654762
0.0666214
0.0676589
0.0685852
0.0693972
0.0700925
0.0706689
0.071125
0.0714597
0.0716724
0.0717631
0.0717322
0.0715806
0.0713102
0.0709235
0.0704234
0.0698131
0.0690962
0.0682766
0.0673588
0.0663474
0.0652477
0.0640649
0.0628045
0.0614717
0.0600716
0.0586086
0.0570859
0.0555061
0.0538822
0.0522247
0.0503894
0.0482515
0.0208437
0.0184036
0.0163374
0.0145019
0.0127293
0.0110295
0.00941491
0.00788598
0.00644361
0.00508996
0.00382739
0.00265835
0.0015854
0.000611168
-0.000261908
-0.00103159
-0.00169582
-0.00225267
-0.00270041
-0.00303769
-0.00326351
-0.00337704
-0.00337764
-0.00326506
-0.00303957
-0.00270177
-0.00225247
-0.00169279
-0.00102426
-0.000248844
0.000631228
0.00161354
0.00269551
0.00387423
0.00514641
0.00650832
0.00795602
0.00948534
0.0110919
0.0127711
0.014518
0.0163273
0.018194
0.0201124
0.0220771
0.0240821
0.0261212
0.028188
0.0302763
0.0323797
0.0344916
0.0366052
0.0387139
0.0408106
0.0428885
0.0449412
0.0469619
0.0489436
0.0508793
0.0527625
0.0545866
0.0563453
0.0580326
0.0596426
0.0611698
0.0626086
0.0639537
0.0652003
0.066344
0.0673805
0.0683061
0.0691176
0.0698124
0.0703881
0.0708432
0.0711763
0.0713865
0.0714735
0.0714372
0.0712784
0.0709985
0.0705997
0.0700844
0.0694552
0.0687152
0.067868
0.0669173
0.0658673
0.0647224
0.0634875
0.0621672
0.0607662
0.0592887
0.0577387
0.0561187
0.0544309
0.0526887
0.0509031
0.0489166
0.0465938
0.0222842
0.0196595
0.0174427
0.0154798
0.0135898
0.0117833
0.0100729
0.00845866
0.00694062
0.00552036
0.00419947
0.00297983
0.00186322
0.000851592
-5.34081e-05
-0.000850143
-0.00153708
-0.0021128
-0.00257629
-0.00292672
-0.00316344
-0.00328591
-0.00329393
-0.00318775
-0.00296793
-0.00263522
-0.00219059
-0.00163546
-0.000971614
-0.000201183
0.000673595
0.00165033
0.00272637
0.00389869
0.00516388
0.00651824
0.0079579
0.00947876
0.0110764
0.0127463
0.0144834
0.0162827
0.0181391
0.0200473
0.0220016
0.0239961
0.0260247
0.0280814
0.0301598
0.0322538
0.0343565
0.0364614
0.0385618
0.0406508
0.0427219
0.0447684
0.0467837
0.0487607
0.0506925
0.0525725
0.0543944
0.0561516
0.0578383
0.0594484
0.0609762
0.0624162
0.063763
0.0650119
0.0661581
0.0671974
0.0681256
0.0689394
0.0696361
0.0702133
0.070669
0.0710017
0.0712101
0.0712935
0.0712516
0.0710849
0.0707945
0.0703819
0.0698493
0.0691988
0.068433
0.0675549
0.0665679
0.0654757
0.0642822
0.0629914
0.0616076
0.0601348
0.0585767
0.0569369
0.0552173
0.0534199
0.0515586
0.049645
0.0475088
0.0450042
0.023622
0.0208161
0.0184506
0.0163613
0.0143542
0.0124403
0.0106331
0.00893179
0.00733607
0.00584682
0.00446513
0.0031922
0.00202931
0.000977531
3.80132e-05
-0.000788106
-0.00149985
-0.00209646
-0.00257745
-0.00294241
-0.00319097
-0.00332303
-0.00333893
-0.00323926
-0.00302475
-0.00269631
-0.00225523
-0.00170327
-0.00104242
-0.000274844
0.000597216
0.00157129
0.00264457
0.0038139
0.00507582
0.00642669
0.00786268
0.00937969
0.0109733
0.0126388
0.0143714
0.0161662
0.0180182
0.0199219
0.0218717
0.0238619
0.0258864
0.0279392
0.0300143
0.0321053
0.0342055
0.0363082
0.038407
0.0404951
0.042566
0.044613
0.0466294
0.0486081
0.0505423
0.0524254
0.0542511
0.056013
0.0577047
0.0593203
0.060854
0.0623003
0.0636537
0.0649093
0.0660623
0.067108
0.0680422
0.0688615
0.0695629
0.0701438
0.0706021
0.0709357
0.0711433
0.0712237
0.0711764
0.0710015
0.0706998
0.0702724
0.069721
0.0690472
0.0682533
0.0673419
0.0663159
0.0651786
0.0639333
0.0625837
0.0611334
0.0595858
0.0579445
0.0562126
0.0543917
0.0524833
0.0505023
0.0484608
0.0461762
0.0434925
0.0248468
0.0218626
0.0193504
0.0171356
0.0150116
0.0129901
0.0110852
0.00929566
0.00762066
0.00606061
0.00461621
0.0032879
0.00207646
0.000982386
6.38771e-06
-0.000850953
-0.00158925
-0.00220837
-0.00270815
-0.0030885
-0.00334952
-0.00349164
-0.0035156
-0.00342217
-0.00321224
-0.00288709
-0.00244838
-0.0018981
-0.00123833
-0.000471257
0.000400784
0.00137514
0.00244882
0.00361861
0.00488106
0.00623256
0.00766925
0.00918694
0.0107812
0.0124474
0.0141809
0.0159767
0.0178298
0.0197348
0.0216861
0.0236779
0.0257045
0.0277599
0.0298381
0.0319326
0.0340368
0.0361439
0.0382477
0.0403416
0.0424189
0.0444729
0.0464968
0.0484837
0.0504267
0.0523193
0.054155
0.0559273
0.0576298
0.0592565
0.0608015
0.0622592
0.0636241
0.0648911
0.066055
0.0671111
0.0680551
0.0688831
0.0695922
0.0701795
0.0706424
0.0709788
0.0711868
0.0712651
0.0712129
0.07103
0.0707167
0.0702739
0.0697026
0.0690041
0.0681804
0.0672336
0.0661665
0.0649817
0.0636823
0.0622712
0.0607518
0.0591272
0.0574005
0.0555745
0.0536507
0.0516305
0.0495293
0.04736
0.044928
0.0420673
0.0259489
0.0227891
0.0201317
0.0177923
0.015552
0.0134227
0.0114195
0.0095409
0.00778545
0.00615328
0.00464451
0.00325919
0.00199743
0.000859517
-0.000154447
-0.00104448
-0.00181074
-0.00245344
-0.00297276
-0.00336905
-0.00364297
-0.00379537
-0.00382716
-0.0037393
-0.00353306
-0.00321013
-0.00277245
-0.00222212
-0.00156125
-0.000792164
8.25928e-05
0.00106018
0.0021375
0.00331131
0.00457819
0.00593444
0.00737614
0.00889906
0.0104987
0.0121707
0.0139103
0.0157126
0.0175724
0.0194844
0.0214429
0.0234426
0.0254775
0.0275419
0.0296295
0.0317338
0.0338483
0.0359665
0.038082
0.0401883
0.0422785
0.044346
0.046384
0.0483855
0.0503437
0.052252
0.054104
0.0558927
0.0576119
0.0592553
0.0608171
0.0622916
0.063673
0.064956
0.0661354
0.0672061
0.0681635
0.069004
0.0697239
0.0703204
0.0707904
0.0711314
0.0713415
0.071419
0.0713629
0.0711725
0.0708478
0.0703892
0.0697974
0.0690733
0.0682186
0.0672351
0.066125
0.064891
0.0635353
0.0620609
0.0604703
0.0587666
0.0569527
0.0550311
0.0530032
0.0508701
0.0486482
0.0463512
0.0437726
0.0407366
0.0269193
0.0235863
0.0207852
0.0183219
0.0159655
0.0137286
0.0116268
0.00965845
0.00782174
0.00611637
0.00454199
0.00309836
0.00178517
0.000602234
-0.000450911
-0.00137476
-0.00216987
-0.00283673
-0.00337601
-0.0037886
-0.00407558
-0.00423802
-0.004277
-0.00419387
-0.00399034
-0.00366841
-0.00323015
-0.00267772
-0.0020134
-0.00123973
-0.000359477
0.000624381
0.00170871
0.00289024
0.00416546
0.00553058
0.0069816
0.0085143
0.0101243
0.0118071
0.0135581
0.0153722
0.0172443
0.0191688
0.0211406
0.0231541
0.0252036
0.027283
0.0293863
0.0315069
0.0336383
0.0357741
0.0379079
0.0400331
0.0421428
0.0442303
0.0462888
0.0483115
0.0502913
0.0522218
0.0540962
0.0559075
0.0576492
0.0593151
0.0608994
0.062396
0.0637991
0.0651031
0.0663024
0.067392
0.0683672
0.0692237
0.0699581
0.0705667
0.0710465
0.0713947
0.0716088
0.0716872
0.0716284
0.0714315
0.0710959
0.0706217
0.0700092
0.0692591
0.0683726
0.0673513
0.0661973
0.0649125
0.0634991
0.0619595
0.0602961
0.0585117
0.056609
0.0545906
0.0524574
0.0502106
0.0478675
0.0454426
0.0427178
0.0395076
0.0277495
0.0242451
0.0213016
0.0187151
0.016243
0.0138985
0.011698
0.00963945
0.00772082
0.00594139
0.00430063
0.00279786
0.00143244
0.00020358
-0.000889596
-0.00184792
-0.00267225
-0.00336358
-0.00392308
-0.00435205
-0.00465182
-0.00482363
-0.00486896
-0.00478961
-0.00458765
-0.00426519
-0.00382441
-0.00326764
-0.00259741
-0.00181652
-0.000927886
6.5448e-05
0.00116029
0.00235329
0.00364079
0.00501891
0.00648363
0.00803077
0.00965599
0.0113548
0.0131224
0.0149536
0.0168433
0.0187862
0.0207771
0.0228105
0.0248806
0.0269814
0.0291065
0.0312497
0.0334045
0.0355645
0.0377232
0.0398739
0.0420096
0.0441237
0.0462094
0.0482597
0.0502678
0.0522268
0.0541297
0.0559697
0.05774
0.0594344
0.0610469
0.0625712
0.0640013
0.0653313
0.0665555
0.0676686
0.0686657
0.0695425
0.0702949
0.0709192
0.0714118
0.0717697
0.0719903
0.0720716
0.0720118
0.0718095
0.071464
0.0709749
0.070342
0.0695658
0.0686473
0.0675878
0.0663888
0.0650523
0.0635799
0.0619738
0.0602364
0.05837
0.0563773
0.0542607
0.0520212
0.0496599
0.0471949
0.0446419
0.0417709
0.038387
0.0284312
0.024757
0.021672
0.0189629
0.0163754
0.0139235
0.0116241
0.00947506
0.00747407
0.00562012
0.0039125
0.00235007
0.000931776
-0.000343591
-0.00147717
-0.00247018
-0.00332386
-0.00403976
-0.00461944
-0.00506445
-0.0053763
-0.00555662
-0.00560736
-0.00553068
-0.00532879
-0.00500393
-0.00455846
-0.00399501
-0.00331635
-0.00252546
-0.00162536
-0.000619175
0.000489793
0.00169804
0.0030018
0.00439713
0.00588005
0.00744638
0.00909173
0.0108115
0.0126008
0.0144545
0.0163675
0.0183346
0.0203505
0.0224098
0.0245066
0.0266348
0.0287881
0.0309603
0.033145
0.0353357
0.0375258
0.0397086
0.0418769
0.0440242
0.0461437
0.0482284
0.0502712
0.052265
0.0542029
0.0560778
0.0578829
0.0596119
0.0612585
0.0628162
0.0642787
0.0656399
0.066894
0.0680355
0.0690593
0.0699606
0.070735
0.0713786
0.0718873
0.072258
0.0724878
0.0725744
0.0725156
0.0723097
0.0719556
0.0714525
0.0707999
0.0699981
0.0690477
0.0679497
0.0667055
0.0653165
0.0637843
0.0621108
0.0602981
0.0583487
0.0562649
0.0540491
0.0517024
0.0492256
0.0466381
0.0439563
0.0409388
0.0373813
0.0289567
0.0251136
0.0218878
0.0190565
0.0163539
0.0137946
0.0113963
0.00915659
0.00707305
0.00514445
0.00336961
0.00174718
0.000275659
-0.00104637
-0.00222039
-0.00324803
-0.00413105
-0.00487135
-0.00547075
-0.00593101
-0.00625402
-0.00644188
-0.00649692
-0.00642144
-0.00621778
-0.00588839
-0.00543594
-0.00486335
-0.00417357
-0.00336971
-0.00245488
-0.00143234
-0.00030558
0.000921762
0.00224584
0.00366274
0.00516845
0.00675877
0.00842918
0.010175
0.0119912
0.0138728
0.0158147
0.0178117
0.0198586
0.0219497
0.0240792
0.026241
0.0284288
0.0306366
0.0328577
0.0350856
0.0373137
0.039535
0.0417426
0.0439298
0.0460898
0.0482155
0.0502995
0.0523347
0.054314
0.0562302
0.0580765
0.0598463
0.061533
0.0631298
0.0646304
0.0660283
0.0673176
0.0684927
0.0695479
0.0704783
0.0712791
0.0719459
0.0724745
0.0728614
0.0731036
0.0731981
0.0731427
0.0729353
0.0725743
0.0720585
0.0713874
0.0705608
0.069579
0.0684428
0.0671532
0.0657115
0.0641189
0.0623772
0.0604885
0.058455
0.0562792
0.0539634
0.0515083
0.0489152
0.0462042
0.0433928
0.0402283
0.0364965
0.0293181
0.0253068
0.0219407
0.0189875
0.0161699
0.0135032
0.0110059
0.00867558
0.00650942
0.00450605
0.00266384
0.000981265
-0.000543431
-0.00191196
-0.00312625
-0.00418835
-0.00510041
-0.00586452
-0.00648278
-0.00695731
-0.00729046
-0.00748471
-0.00754255
-0.00746643
-0.00725889
-0.00692271
-0.00646089
-0.00587652
-0.00517272
-0.0043527
-0.00341973
-0.00237727
-0.00122896
2.14419e-05
0.00137008
0.00281302
0.00434621
0.00596531
0.00766567
0.00944253
0.011291
0.013206
0.0151825
0.0172153
0.019299
0.0214279
0.0235962
0.0257977
0.0280265
0.0302762
0.0325402
0.0348119
0.0370845
0.039351
0.0416046
0.0438385
0.0460458
0.0482191
0.050351
0.0524341
0.0544614
0.0564255
0.0583194
0.0601363
0.0618692
0.0635113
0.0650558
0.0664962
0.0678263
0.0690402
0.0701321
0.0710964
0.0719282
0.0726225
0.0731751
0.073582
0.0738399
0.0739456
0.0738964
0.0736899
0.073324
0.0727974
0.0721092
0.0712589
0.0702466
0.0690727
0.067738
0.0662435
0.0645903
0.06278
0.0608146
0.0586964
0.0564277
0.0540108
0.0514465
0.0487359
0.0459003
0.0429585
0.0396458
0.0357387
0.0295079
0.0253285
0.0218223
0.0187472
0.0158146
0.0130406
0.0104445
0.00802355
0.00577478
0.00369649
0.00178703
4.44767e-05
-0.00153311
-0.00294787
-0.00420211
-0.00529823
-0.0062386
-0.00702559
-0.00766165
-0.00814936
-0.00849144
-0.00869057
-0.00874934
-0.00867044
-0.00845678
-0.00811143
-0.00763763
-0.00703863
-0.00631766
-0.00547814
-0.00452355
-0.0034575
-0.00228376
-0.00100614
0.000371456
0.00184502
0.00341039
0.00506306
0.00679833
0.00861144
0.0104975
0.0124516
0.0144684
0.0165428
0.0186691
0.0208418
0.023055
0.0253027
0.0275788
0.0298769
0.0321903
0.0345123
0.036836
0.0391545
0.0414609
0.0437483
0.0460095
0.0482372
0.0504236
0.0525615
0.0546436
0.0566623
0.0586104
0.0604809
0.0622664
0.0639599
0.0655544
0.0670433
0.0684201
0.0696785
0.0708124
0.0718158
0.0726834
0.0734101
0.073991
0.0744222
0.0746996
0.07482
0.0747801
0.0745772
0.074209
0.0736738
0.0729703
0.0720979
0.0710563
0.0698456
0.0684663
0.0669192
0.0652054
0.0633263
0.0612839
0.0590803
0.0567179
0.0541989
0.0515242
0.048695
0.0457338
0.0426601
0.039198
0.0351138
0.0295186
0.0251707
0.0215241
0.0183272
0.0152796
0.0123983
0.00970335
0.00719182
0.00486047
0.00270745
0.000730973
-0.00107117
-0.00270128
-0.00416187
-0.00545548
-0.00658481
-0.00755247
-0.00836121
-0.0090139
-0.00951351
-0.00986296
-0.010065
-0.0101226
-0.0100387
-0.00981649
-0.00945941
-0.00897078
-0.00835403
-0.00761262
-0.00675014
-0.00577029
-0.00467684
-0.0034736
-0.00216445
-0.000753378
0.000755447
0.0023577
0.00404883
0.00582408
0.00767876
0.00960799
0.0116067
0.0136696
0.0157913
0.0179662
0.0201888
0.0224531
0.0247533
0.0270832
0.0294361
0.0318054
0.0341842
0.0365658
0.0389432
0.0413092
0.0436569
0.0459789
0.0482677
0.0505157
0.0527152
0.0548589
0.0569391
0.0589482
0.0608789
0.0627235
0.064475
0.0661259
0.0676696
0.0690992
0.070408
0.0715895
0.0726375
0.0735463
0.0743103
0.0749244
0.0753843
0.0756855
0.0758244
0.0757974
0.0756013
0.0752336
0.0746924
0.073976
0.0730834
0.072014
0.0707677
0.0693447
0.0677456
0.0659714
0.0640235
0.0619037
0.0596143
0.0571574
0.0545354
0.0517492
0.0488
0.0457117
0.0425048
0.0388914