/*--------------------------------*- C++ -*----------------------------------*\
  =========                 |
  \\      /  F ield         | OpenFOAM: The Open Source CFD Toolbox
   \\    /   O peration     | Website:  https://openfoam.org
    \\  /    A nd           | Version:  11
     \\/     M anipulation  |
\*---------------------------------------------------------------------------*/
FoamFile
{
    format      ascii;
    class       surfaceScalarField;
    location    "8.7";
    object      phi;
}
// * * * * * * * * * * * * * * * * * * * * * * * * * * * * * * * * * * * * * //

dimensions      [0 3 -1 0 0 0 0];

internalField   nonuniform List<scalar> 
19980
(
7.07223e-07
-7.07735e-07
2.39632e-06
-1.6892e-06
4.22288e-06
-1.82652e-06
5.64175e-06
-1.41887e-06
6.33612e-06
-6.94512e-07
6.12355e-06
2.12512e-07
4.9099e-06
1.21375e-06
2.65792e-06
2.25197e-06
-6.32111e-07
3.28995e-06
-4.93552e-06
4.3034e-06
-1.02119e-05
5.27659e-06
-1.64102e-05
6.19831e-06
-2.34719e-05
7.06164e-06
-3.13332e-05
7.86137e-06
-3.99277e-05
8.59424e-06
-4.91867e-05
9.25917e-06
-5.90415e-05
9.85482e-06
-6.94226e-05
1.03812e-05
-8.02617e-05
1.0839e-05
-9.14906e-05
1.1229e-05
-0.000103043
1.15522e-05
-0.000114853
1.18099e-05
-0.000126856
1.2004e-05
-0.000138992
1.21358e-05
-0.0001512
1.22074e-05
-0.00016342
1.22207e-05
-0.000175598
1.21774e-05
-0.000187677
1.20794e-05
-0.000199606
1.19289e-05
-0.000211334
1.17279e-05
-0.000222813
1.14786e-05
-0.000233996
1.1183e-05
-0.000244839
1.08434e-05
-0.000255301
1.0462e-05
-0.000265342
1.00409e-05
-0.000274924
9.58227e-06
-0.000284013
9.08826e-06
-0.000292574
8.56111e-06
-0.000300577
8.003e-06
-0.000307993
7.41608e-06
-0.000314795
6.80258e-06
-0.00032096
6.1647e-06
-0.000326465
5.50473e-06
-0.00033129
4.82488e-06
-0.000335417
4.1274e-06
-0.000338832
3.41457e-06
-0.000341521
2.68877e-06
-0.000343473
1.9524e-06
-0.000344681
1.2077e-06
-0.000345138
4.57067e-07
-0.000344841
-2.96912e-07
-0.000343789
-1.0518e-06
-0.000341984
-1.80517e-06
-0.000339429
-2.55429e-06
-0.000336133
-3.29647e-06
-0.000332104
-4.02915e-06
-0.000327354
-4.74958e-06
-0.0003219
-5.45493e-06
-0.000315757
-6.14259e-06
-0.000308947
-6.80991e-06
-0.000301493
-7.45395e-06
-0.000293421
-8.07166e-06
-0.000284761
-8.66009e-06
-0.000275545
-9.21656e-06
-0.000265806
-9.73855e-06
-0.000255583
-1.02234e-05
-0.000244914
-1.06683e-05
-0.000233844
-1.10704e-05
-0.000222417
-1.1427e-05
-0.000210682
-1.17352e-05
-0.000198689
-1.19926e-05
-0.000186492
-1.21969e-05
-0.000174146
-1.23461e-05
-0.000161708
-1.24377e-05
-0.000149239
-1.24698e-05
-0.000136798
-1.24404e-05
-0.000124451
-1.23476e-05
-0.000112261
-1.21897e-05
-0.000100296
-1.19651e-05
-8.86231e-05
-1.16729e-05
-7.73111e-05
-1.13121e-05
-6.6429e-05
-1.08822e-05
-5.60461e-05
-1.03829e-05
-4.62317e-05
-9.8143e-06
-3.70549e-05
-9.17686e-06
-2.85833e-05
-8.47159e-06
-2.0883e-05
-7.70026e-06
-1.40173e-05
-6.86566e-06
-8.04534e-06
-5.97199e-06
-3.02019e-06
-5.02517e-06
1.0134e-06
-4.03356e-06
4.02249e-06
-3.00901e-06
5.99101e-06
-1.96848e-06
6.92785e-06
-9.36881e-07
6.87978e-06
4.80242e-08
5.95192e-06
9.27865e-07
4.34012e-06
1.61186e-06
2.38591e-06
1.95424e-06
6.69493e-07
1.71637e-06
6.69484e-07
1.75325e-06
-2.46087e-06
4.76055e-06
-4.69667e-06
7.58809e-06
-4.65408e-06
9.25206e-06
-3.08257e-06
9.0687e-06
-5.10924e-07
6.59487e-06
2.68617e-06
1.56864e-06
6.2401e-06
-6.14028e-06
9.96093e-06
-1.65663e-05
1.37161e-05
-2.96769e-05
1.74138e-05
-4.53893e-05
2.0989e-05
-6.3587e-05
2.43961e-05
-8.41284e-05
2.76031e-05
-0.000106854
3.05873e-05
-0.000131594
3.3334e-05
-0.000158168
3.58335e-05
-0.000186394
3.808e-05
-0.000216083
4.00709e-05
-0.000247051
4.18065e-05
-0.00027911
4.32875e-05
-0.000312075
4.45177e-05
-0.000345766
4.55011e-05
-0.000380005
4.62421e-05
-0.000414616
4.67468e-05
-0.00044943
4.70214e-05
-0.000484281
4.70724e-05
-0.000519011
4.69068e-05
-0.000553464
4.65319e-05
-0.00058749
4.59551e-05
-0.000620946
4.51841e-05
-0.000653694
4.42268e-05
-0.000685602
4.30913e-05
-0.000716544
4.17857e-05
-0.000746401
4.03184e-05
-0.000775057
3.86975e-05
-0.000802406
3.69312e-05
-0.000828346
3.5028e-05
-0.000852782
3.29964e-05
-0.000875623
3.08448e-05
-0.000896789
2.85816e-05
-0.000916202
2.62155e-05
-0.000933792
2.3755e-05
-0.000949497
2.12089e-05
-0.000963257
1.85859e-05
-0.000975025
1.58948e-05
-0.000984755
1.31447e-05
-0.000992411
1.03445e-05
-0.000997962
7.50351e-06
-0.00100139
4.63099e-06
-0.00100266
1.73629e-06
-0.00100179
-1.17101e-06
-0.000998761
-4.08103e-06
-0.000993583
-6.98393e-06
-0.000986267
-9.86983e-06
-0.000976835
-1.27285e-05
-0.000965314
-1.55495e-05
-0.000951741
-1.83226e-05
-0.000936159
-2.10371e-05
-0.000918619
-2.36825e-05
-0.000899181
-2.62482e-05
-0.000877912
-2.87233e-05
-0.000854887
-3.10967e-05
-0.000830189
-3.33576e-05
-0.00080391
-3.54954e-05
-0.000776149
-3.74996e-05
-0.000747013
-3.936e-05
-0.000716615
-4.1066e-05
-0.000685078
-4.26072e-05
-0.000652532
-4.39731e-05
-0.000619113
-4.51539e-05
-0.000584966
-4.61403e-05
-0.000550239
-4.69233e-05
-0.000515091
-4.74942e-05
-0.000479684
-4.7845e-05
-0.000444186
-4.79682e-05
-0.00040877
-4.78564e-05
-0.000373614
-4.75031e-05
-0.000338901
-4.69025e-05
-0.000304817
-4.60498e-05
-0.000271548
-4.49413e-05
-0.000239286
-4.35743e-05
-0.000208221
-4.19476e-05
-0.000178542
-4.00614e-05
-0.00015044
-3.79172e-05
-0.000124098
-3.55187e-05
-9.96969e-05
-3.28723e-05
-7.74096e-05
-2.99874e-05
-5.73974e-05
-2.68779e-05
-3.98067e-05
-2.35627e-05
-2.47636e-05
-2.00682e-05
-1.23666e-05
-1.64305e-05
-2.67664e-06
-1.2699e-05
4.29658e-06
-8.94168e-06
8.61367e-06
-5.25397e-06
1.04327e-05
-1.771e-06
1.00466e-05
1.31397e-06
7.93363e-06
3.7248e-06
4.81746e-06
5.07038e-06
1.71599e-06
4.81785e-06
2.38548e-06
1.96717e-06
-4.42799e-06
4.92114e-06
-7.65047e-06
7.08424e-06
-6.81744e-06
7.2502e-06
-3.24867e-06
4.5513e-06
2.1878e-06
-1.6055e-06
8.84302e-06
-1.15929e-05
1.62277e-05
-2.56126e-05
2.39805e-05
-4.37349e-05
3.18384e-05
-6.59306e-05
3.96095e-05
-9.20958e-05
4.7154e-05
-0.000122071
5.43709e-05
-0.000155654
6.11864e-05
-0.000192614
6.75476e-05
-0.000232698
7.34181e-05
-0.000275637
7.87723e-05
-0.000321152
8.3595e-05
-0.000368957
8.78766e-05
-0.000418765
9.16142e-05
-0.000470286
9.48086e-05
-0.000523233
9.74642e-05
-0.00057732
9.95881e-05
-0.000632267
0.000101189
-0.000687799
0.000102279
-0.000743648
0.00010287
-0.000799551
0.000102975
-0.000855253
0.000102609
-0.000910509
0.000101788
-0.00096508
0.000100526
-0.00101874
9.88403e-05
-0.00107126
9.67479e-05
-0.00112243
9.42659e-05
-0.00117206
9.14118e-05
-0.00121994
8.82034e-05
-0.0012659
8.46584e-05
-0.00130977
8.0795e-05
-0.00135137
7.66314e-05
-0.00139056
7.21859e-05
-0.00142719
6.74772e-05
-0.00146113
6.25237e-05
-0.00149226
5.73444e-05
-0.00152047
5.19581e-05
-0.00154564
4.63841e-05
-0.0015677
4.06417e-05
-0.00158655
3.47503e-05
-0.00160214
2.87297e-05
-0.00161439
2.26e-05
-0.00162327
1.63813e-05
-0.00162873
1.00941e-05
-0.00163076
3.75921e-06
-0.00162933
-2.60222e-06
-0.00162444
-8.96885e-06
-0.0016161
-1.53189e-05
-0.00160434
-2.16304e-05
-0.00158919
-2.78811e-05
-0.00157069
-3.40483e-05
-0.0015489
-4.01095e-05
-0.0015239
-4.60415e-05
-0.00149576
-5.18213e-05
-0.00146458
-5.74255e-05
-0.00143048
-6.28305e-05
-0.00139356
-6.80127e-05
-0.00135397
-7.29486e-05
-0.00131185
-7.76151e-05
-0.00126736
-8.19893e-05
-0.00122067
-8.60483e-05
-0.00117197
-8.97694e-05
-0.00112145
-9.31304e-05
-0.00106931
-9.61094e-05
-0.00101578
-9.86851e-05
-0.000961082
-0.000100837
-0.000905458
-0.000102546
-0.000849158
-0.000103795
-0.000792439
-0.000104564
-0.000735568
-0.000104839
-0.000678821
-0.000104604
-0.000622478
-0.000103846
-0.000566827
-0.000102554
-0.000512159
-0.000100718
-0.000458769
-9.83307e-05
-0.000406955
-9.53883e-05
-0.000357014
-9.18893e-05
-0.00030924
-8.78355e-05
-0.000263924
-8.32331e-05
-0.00022135
-7.80929e-05
-0.00018179
-7.24316e-05
-0.000145505
-6.62734e-05
-0.00011273
-5.9652e-05
-8.368e-05
-5.2613e-05
-5.85305e-05
-4.52177e-05
-3.74133e-05
-3.75478e-05
-2.03996e-05
-2.97127e-05
-7.48222e-06
-2.1859e-05
1.44889e-06
-1.41851e-05
6.6381e-06
-6.96022e-06
8.50332e-06
-5.51234e-07
7.68401e-06
4.54412e-06
5.09193e-06
7.66248e-06
1.96006e-06
7.9497e-06
4.34553e-06
1.57597e-06
-6.00403e-06
3.44106e-06
-9.51545e-06
3.71662e-06
-7.09286e-06
1.10075e-06
-6.32414e-07
-5.35401e-06
8.64245e-06
-1.63108e-05
1.97997e-05
-3.22009e-05
3.21175e-05
-5.32671e-05
4.5047e-05
-7.9603e-05
5.81744e-05
-0.000111183
7.11893e-05
-0.000147887
8.38589e-05
-0.000189526
9.60097e-05
-0.000235853
0.000107513
-0.00028658
0.000118275
-0.000341388
0.000128225
-0.000399934
0.000137318
-0.000461859
0.000145521
-0.000526796
0.000152813
-0.000594367
0.000159185
-0.000664195
0.000164637
-0.000735901
0.000169171
-0.00080911
0.000172797
-0.00088345
0.000175529
-0.000958555
0.000177385
-0.00103407
0.000178383
-0.00110964
0.000178546
-0.00118493
0.000177897
-0.0012596
0.000176462
-0.00133334
0.000174268
-0.00140584
0.000171342
-0.00147681
0.000167712
-0.00154595
0.000163407
-0.001613
0.000158458
-0.00167769
0.000152895
-0.00173978
0.000146749
-0.00179903
0.00014005
-0.00185523
0.00013283
-0.00190817
0.000125122
-0.00195765
0.000116956
-0.00200349
0.000108365
-0.00204553
9.93829e-05
-0.00208361
9.00414e-05
-0.0021176
8.03741e-05
-0.00214737
7.04146e-05
-0.00217282
6.01971e-05
-0.00219385
4.9756e-05
-0.00221037
3.9126e-05
-0.00222233
2.83425e-05
-0.00222968
1.74413e-05
-0.00223238
6.45835e-06
-0.00223041
-4.5694e-06
-0.00222378
-1.56048e-05
-0.00221249
-2.66101e-05
-0.00219657
-3.75471e-05
-0.00217607
-4.83772e-05
-0.00215106
-5.90613e-05
-0.00212161
-6.95598e-05
-0.00208782
-7.98331e-05
-0.0020498
-8.98411e-05
-0.00200768
-9.95436e-05
-0.00196161
-0.0001089
-0.00191175
-0.000117869
-0.00185829
-0.000126412
-0.00180142
-0.000134488
-0.00174135
-0.000142056
-0.00167832
-0.000149079
-0.00161257
-0.000155517
-0.00154437
-0.000161332
-0.001474
-0.000166486
-0.00140174
-0.000170945
-0.0013279
-0.000174672
-0.00125281
-0.000177636
-0.0011768
-0.000179805
-0.00110021
-0.00018115
-0.00102341
-0.000181644
-0.00094675
-0.000181262
-0.000870614
-0.000179983
-0.00079538
-0.000177788
-0.000721436
-0.000174662
-0.000649171
-0.000170596
-0.000578977
-0.000165583
-0.000511243
-0.000159623
-0.000446355
-0.000152723
-0.000384693
-0.000144896
-0.000326621
-0.000136164
-0.000272493
-0.00012656
-0.000222635
-0.000116131
-0.000177349
-0.000104938
-0.000136896
-9.30651e-05
-0.000101494
-8.06202e-05
-7.12954e-05
-6.77463e-05
-4.63782e-05
-5.46298e-05
-2.6722e-05
-4.15153e-05
-1.21838e-05
-2.87234e-05
-2.46736e-06
-1.66766e-05
2.91238e-06
-5.93091e-06
4.67163e-06
2.78489e-06
3.80323e-06
8.53087e-06
1.63501e-06
1.01179e-05
5.98054e-06
8.45984e-07
-6.85011e-06
9.05472e-07
-9.5748e-06
-1.60149e-06
-4.58613e-06
-7.95977e-06
5.72564e-06
-1.91172e-05
1.98005e-05
-3.57497e-05
3.64322e-05
-5.8303e-05
5.46709e-05
-8.7033e-05
7.3777e-05
-0.000122039
9.318e-05
-0.00016329
0.00011244
-0.000210652
0.000131221
-0.000263909
0.000149266
-0.000322776
0.000166381
-0.00038692
0.000182419
-0.000455967
0.000197272
-0.000529512
0.000210864
-0.00060713
0.000223139
-0.000688381
0.000234063
-0.000772813
0.000243617
-0.00085997
0.000251794
-0.000949394
0.000258595
-0.00104063
0.000264032
-0.00113322
0.000268123
-0.00122673
0.000270891
-0.00132071
0.000272363
-0.00141474
0.000272571
-0.00150839
0.000271549
-0.00160126
0.000269334
-0.00169296
0.000265966
-0.0017831
0.000261485
-0.00187132
0.000255934
-0.00195727
0.000249356
-0.00204061
0.000241797
-0.00212102
0.000233301
-0.00219819
0.000223916
-0.00227182
0.000213689
-0.00234166
0.000202667
-0.00240744
0.000190898
-0.00246891
0.000178432
-0.00252587
0.000165318
-0.00257809
0.000151606
-0.00262539
0.000137346
-0.00266761
0.000122588
-0.00270458
0.000107386
-0.00273617
9.17894e-05
-0.00276227
7.58527e-05
-0.00278277
5.96287e-05
-0.0027976
4.31714e-05
-0.00280669
2.65355e-05
-0.00281001
9.77658e-06
-0.00280753
-7.04921e-06
-0.00279925
-2.38849e-05
-0.00278519
-4.06731e-05
-0.00276538
-5.73553e-05
-0.00273989
-7.38726e-05
-0.00270878
-9.01652e-05
-0.00267217
-0.000106173
-0.00263017
-0.000121836
-0.00258291
-0.000137093
-0.00253058
-0.000151882
-0.00247333
-0.000166142
-0.00241139
-0.000179812
-0.00234497
-0.00019283
-0.00227433
-0.000205136
-0.00219971
-0.00021667
-0.00212142
-0.000227371
-0.00203975
-0.000237182
-0.00195504
-0.000246046
-0.00186762
-0.000253905
-0.00177786
-0.000260707
-0.00168613
-0.000266399
-0.00159283
-0.000270933
-0.00149838
-0.000274261
-0.00140319
-0.00027634
-0.0013077
-0.000277131
-0.00121237
-0.000276597
-0.00111764
-0.000274708
-0.00102399
-0.000271438
-0.00093189
-0.000266765
-0.000841807
-0.000260678
-0.000754219
-0.00025317
-0.000669598
-0.000244244
-0.000588409
-0.000233913
-0.000511104
-0.0002222
-0.000438123
-0.000209145
-0.000369881
-0.000194802
-0.000306768
-0.000179245
-0.000249133
-0.000162573
-0.000197283
-0.000144915
-0.000151464
-0.000126439
-0.000111851
-0.000107359
-7.85304e-05
-8.79505e-05
-5.14786e-05
-6.85671e-05
-3.05396e-05
-4.96624e-05
-1.53975e-05
-3.18187e-05
-5.54549e-06
-1.57829e-05
-2.50741e-07
-2.50987e-06
1.48538e-06
6.79475e-06
9.80377e-07
1.06229e-05
6.96094e-06
-6.32272e-08
-6.78686e-06
-2.2688e-06
-7.36934e-06
-8.17725e-06
1.32239e-06
-1.89707e-05
1.65191e-05
-3.55369e-05
3.63664e-05
-5.85151e-05
5.94106e-05
-8.83307e-05
8.44863e-05
-0.000125226
0.000110672
-0.000169285
0.00013724
-0.000220465
0.00016362
-0.00027861
0.000189367
-0.000343477
0.000214133
-0.000414747
0.000237652
-0.000492047
0.000259718
-0.000574955
0.00028018
-0.000663013
0.000298922
-0.000755739
0.000315865
-0.000852629
0.000330953
-0.000953167
0.000344155
-0.00105683
0.000355455
-0.00116309
0.000364852
-0.00127141
0.000372358
-0.00138128
0.000377993
-0.00149217
0.000381785
-0.00160358
0.000383772
-0.00171501
0.000383993
-0.00182595
0.000382496
-0.00193595
0.00037933
-0.00204453
0.000374549
-0.00215125
0.000368208
-0.00225569
0.000360367
-0.00235742
0.000351085
-0.00245604
0.000340424
-0.00255119
0.000328448
-0.0026425
0.000315222
-0.00272962
0.000300812
-0.00281224
0.000285284
-0.00289004
0.000268707
-0.00296276
0.000251148
-0.00303012
0.000232677
-0.00309188
0.000213364
-0.00314781
0.000193281
-0.00319772
0.000172499
-0.00324143
0.00015109
-0.00327877
0.000129129
-0.0033096
0.000106689
-0.00333382
8.38467e-05
-0.00335133
6.06771e-05
-0.00336205
3.72577e-05
-0.00336594
1.36669e-05
-0.00336297
-1.00162e-05
-0.00335315
-3.37113e-05
-0.00333648
-5.73373e-05
-0.00331302
-8.08122e-05
-0.00328284
-0.000104053
-0.00324603
-0.000126976
-0.00320271
-0.000149496
-0.00315302
-0.000171529
-0.00309712
-0.000192989
-0.00303521
-0.00021379
-0.00296751
-0.000233846
-0.00289425
-0.000253071
-0.0028157
-0.00027138
-0.00273215
-0.000288687
-0.00264391
-0.000304909
-0.00255132
-0.000319962
-0.00245474
-0.000333766
-0.00235454
-0.000346239
-0.00225114
-0.000357306
-0.00214496
-0.00036689
-0.00203644
-0.000374921
-0.00192604
-0.00038133
-0.00181425
-0.000386054
-0.00170155
-0.000389032
-0.00158847
-0.000390211
-0.00147553
-0.000389542
-0.00136325
-0.000386985
-0.00125218
-0.000382505
-0.00114287
-0.000376077
-0.00103587
-0.000367684
-0.000931713
-0.000357323
-0.000830957
-0.000345
-0.000734131
-0.000330738
-0.000641756
-0.000314575
-0.000554332
-0.00029657
-0.000472332
-0.000276802
-0.000396196
-0.000255381
-0.000326319
-0.00023245
-0.000263045
-0.00020819
-0.00020665
-0.000182834
-0.000157331
-0.000156677
-0.000115191
-0.000130091
-8.02149e-05
-0.000103543
-5.22538e-05
-7.76234e-05
-3.10002e-05
-5.30724e-05
-1.59621e-05
-3.08209e-05
-6.43635e-06
-1.20356e-05
-1.47757e-06
1.83603e-06
1.40078e-07
9.00531e-06
7.10106e-06
-1.06197e-06
-5.72487e-06
-5.80581e-06
-2.62545e-06
-1.55212e-05
1.1038e-05
-3.12289e-05
3.22266e-05
-5.37096e-05
5.88472e-05
-8.35299e-05
8.92309e-05
-0.000121064
0.00012202
-0.000166516
0.000156124
-0.000219941
0.000190665
-0.000281266
0.000224946
-0.00035031
0.00025841
-0.000426797
0.00029062
-0.000510377
0.000321231
-0.000600635
0.000349976
-0.000697107
0.000376652
-0.000799289
0.000401104
-0.000906646
0.000423221
-0.00101862
0.000442927
-0.00113463
0.000460171
-0.00125411
0.000474929
-0.00137645
0.000487194
-0.00150107
0.000496976
-0.00162737
0.000504297
-0.00175478
0.000509194
-0.00188272
0.000511708
-0.00201062
0.000511893
-0.00213793
0.000509805
-0.00226411
0.000505511
-0.00238863
0.000499077
-0.002511
0.000490576
-0.00263072
0.000480086
-0.00274732
0.000467684
-0.00286035
0.000453452
-0.00296937
0.000437473
-0.00307399
0.000419834
-0.00317379
0.00040062
-0.00326843
0.00037992
-0.00335755
0.000357825
-0.00344082
0.000334425
-0.00351796
0.000309811
-0.00358867
0.000284079
-0.00365272
0.000257322
-0.00370985
0.000229635
-0.00375988
0.000201116
-0.00380261
0.000171863
-0.00383789
0.000141974
-0.0038656
0.00011155
-0.00388561
8.06927e-05
-0.00389786
4.95051e-05
-0.00390229
1.80914e-05
-0.00389886
-1.34428e-05
-0.00388758
-4.4991e-05
-0.00386847
-7.64449e-05
-0.00384159
-0.000107695
-0.00380701
-0.000138632
-0.00376484
-0.000169143
-0.00371522
-0.000199117
-0.00365831
-0.000228441
-0.0035943
-0.000257001
-0.0035234
-0.000284683
-0.00344587
-0.000311374
-0.00336199
-0.000336959
-0.00327204
-0.000361326
-0.00317637
-0.000384362
-0.00307532
-0.000405955
-0.00296928
-0.000425997
-0.00285867
-0.000444381
-0.00274391
-0.000461
-0.00262546
-0.000475754
-0.00250381
-0.000488544
-0.00237945
-0.000499277
-0.00225292
-0.000507863
-0.00212475
-0.00051422
-0.00199551
-0.00051827
-0.00186578
-0.000519944
-0.00173614
-0.000519181
-0.0016072
-0.000515927
-0.00147956
-0.000510141
-0.00135385
-0.000501792
-0.00123067
-0.000490863
-0.00111064
-0.000477351
-0.000994373
-0.00046127
-0.000882457
-0.000442654
-0.000775474
-0.000421559
-0.000673978
-0.000398066
-0.000578494
-0.000372286
-0.000489507
-0.000344368
-0.000407456
-0.000314501
-0.000332719
-0.000282927
-0.000265605
-0.000249948
-0.000206338
-0.000215945
-0.000155043
-0.000181386
-0.000111728
-0.000146857
-7.62719e-05
-0.00011308
-4.83973e-05
-8.0947e-05
-2.76577e-05
-5.15605e-05
-1.34155e-05
-2.62777e-05
-4.82246e-06
-6.75698e-06
-7.98722e-07
4.98162e-06
6.30237e-06
-2.09722e-06
-3.62751e-06
-9.52817e-06
4.80532e-06
-2.32971e-05
2.4807e-05
-4.42304e-05
5.31604e-05
-7.29721e-05
8.75887e-05
-0.000109986
0.000126245
-0.000155572
0.000167606
-0.000209875
0.000210427
-0.000272905
0.000253695
-0.000344549
0.00029659
-0.000424588
0.000338449
-0.000512711
0.000378744
-0.000608531
0.000417051
-0.000711595
0.00045304
-0.000821397
0.000486454
-0.000937389
0.000517095
-0.00105899
0.00054482
-0.00118559
0.000569525
-0.00131656
0.000591142
-0.00145126
0.000609634
-0.00158905
0.000624987
-0.00172929
0.000637208
-0.00187131
0.000646321
-0.00201448
0.000652367
-0.00215817
0.000655397
-0.00230175
0.000655474
-0.00244462
0.000652667
-0.00258616
0.000647057
-0.00272581
0.000638728
-0.00286301
0.00062777
-0.0029972
0.000614279
-0.00312787
0.000598354
-0.00325452
0.000580098
-0.00337666
0.000559615
-0.00349384
0.000537014
-0.00360562
0.000512405
-0.0037116
0.0004859
-0.00381139
0.000457614
-0.00390463
0.000427663
-0.00399099
0.000396165
-0.00407014
0.000363237
-0.00414182
0.000329002
-0.00420577
0.000293581
-0.00426175
0.000257098
-0.00430957
0.000219678
-0.00434904
0.000181448
-0.00438003
0.000142536
-0.00440241
0.000103073
-0.00441609
6.31907e-05
-0.00442102
2.30213e-05
-0.00441717
-1.72997e-05
-0.00440452
-5.7636e-05
-0.00438312
-9.78495e-05
-0.00435301
-0.000137801
-0.00431429
-0.000177349
-0.00426709
-0.000216352
-0.00421154
-0.000254666
-0.00414783
-0.000292149
-0.00407618
-0.000328654
-0.00399682
-0.000364038
-0.00391004
-0.000398156
-0.00381614
-0.000430862
-0.00371545
-0.000462013
-0.00360834
-0.000491467
-0.00349522
-0.000519082
-0.00337649
-0.00054472
-0.00325263
-0.000568245
-0.00312411
-0.000589524
-0.00299143
-0.000608429
-0.00285514
-0.000624836
-0.00271579
-0.000638628
-0.00257396
-0.000649692
-0.00243026
-0.000657925
-0.00228529
-0.000663231
-0.00213972
-0.000665523
-0.00199417
-0.000664727
-0.00184932
-0.000660777
-0.00170584
-0.000653624
-0.0015644
-0.000643232
-0.00142567
-0.000629584
-0.00129035
-0.000612679
-0.00115907
-0.000592541
-0.00103251
-0.000569216
-0.000911292
-0.00054278
-0.000796018
-0.00051334
-0.000687263
-0.000481041
-0.000585556
-0.000446075
-0.000491375
-0.000408682
-0.000405136
-0.000369165
-0.000327182
-0.000327902
-0.000257771
-0.000285356
-0.000197061
-0.000242097
-0.000145096
-0.000198822
-0.000101795
-0.000156381
-6.69354e-05
-0.000115807
-4.01377e-05
-7.83581e-05
-2.08573e-05
-4.55581e-05
-8.37303e-06
-1.92412e-05
-1.78243e-06
-1.60893e-06
4.51996e-06
-3.1382e-06
-4.89328e-07
-1.33221e-05
1.49893e-05
-3.12769e-05
4.27616e-05
-5.76224e-05
7.95057e-05
-9.28439e-05
0.00012281
-0.000137286
0.000170687
-0.000191153
0.000221473
-0.000254517
0.000273791
-0.000327326
0.000326504
-0.000409416
0.00037868
-0.000500523
0.000429556
-0.000600294
0.000478514
-0.0007083
0.000525057
-0.000824048
0.000568789
-0.000946992
0.000609397
-0.00107654
0.000646642
-0.00121206
0.000680343
-0.00135291
0.000710369
-0.0014984
0.000736634
-0.00164785
0.000759084
-0.00180056
0.000777698
-0.00195583
0.00079248
-0.00211296
0.000803454
-0.00227126
0.000810666
-0.00243004
0.000814173
-0.00258861
0.00081405
-0.00274633
0.000810381
-0.00290253
0.000803259
-0.00305659
0.000792787
-0.00320789
0.000779075
-0.00335585
0.000762237
-0.00349989
0.000742395
-0.00363947
0.000719674
-0.00377406
0.000694202
-0.00390316
0.000666113
-0.00402629
0.000635542
-0.00414302
0.000602628
-0.00425292
0.000567511
-0.00435559
0.000530334
-0.00445067
0.000491243
-0.00453782
0.000450386
-0.00461672
0.00040791
-0.00468711
0.000363968
-0.00474873
0.000318713
-0.00480135
0.0002723
-0.00484479
0.000224887
-0.00487888
0.000176631
-0.0049035
0.000127695
-0.00491856
7.82417e-05
-0.00492397
2.84359e-05
-0.00491972
-2.15551e-05
-0.00490579
-7.15625e-05
-0.00488222
-0.000121415
-0.00484908
-0.000170941
-0.00480647
-0.000219966
-0.0047545
-0.000268313
-0.00469336
-0.000315807
-0.00462324
-0.000362269
-0.00454438
-0.000407522
-0.00445703
-0.000451385
-0.0043615
-0.000493681
-0.00425813
-0.000534232
-0.00414729
-0.000572859
-0.00402937
-0.000609389
-0.0039048
-0.000643647
-0.00377406
-0.000675463
-0.00363763
-0.00070467
-0.00349605
-0.000731106
-0.00334987
-0.000754613
-0.00319966
-0.000775041
-0.00304604
-0.000792245
-0.00288965
-0.000806089
-0.00273112
-0.000816448
-0.00257115
-0.000823205
-0.00241042
-0.000826257
-0.00224963
-0.000825512
-0.00208951
-0.000820895
-0.00193079
-0.000812348
-0.00177419
-0.000799831
-0.00162045
-0.000783325
-0.00147029
-0.000762836
-0.00132444
-0.000738394
-0.00118359
-0.000710063
-0.00104843
-0.000677938
-0.000919615
-0.000642158
-0.000797755
-0.000602902
-0.000683425
-0.000560405
-0.000577145
-0.000514962
-0.000479369
-0.00046694
-0.000390482
-0.00041679
-0.000310778
-0.000365059
-0.00024046
-0.000312416
-0.000179619
-0.000259663
-0.000128229
-0.00020777
-8.61366e-05
-0.0001579
-5.30491e-05
-0.000111446
-2.85333e-05
-7.00739e-05
-1.20136e-05
-3.5761e-05
-2.77869e-06
-1.08438e-05
1.74128e-06
-4.16715e-06
3.67782e-06
-1.7116e-05
2.79381e-05
-3.93093e-05
6.49549e-05
-7.1159e-05
0.000111355
-0.000112984
0.000164635
-0.000164994
0.000222698
-0.000227288
0.000283767
-0.000299849
0.000346352
-0.000382553
0.000409208
-0.000475175
0.000471302
-0.000577396
0.000531777
-0.000688816
0.000589934
-0.000808961
0.000645202
-0.000937293
0.000697121
-0.00107322
0.000745327
-0.00121612
0.000789535
-0.0013653
0.000829528
-0.00152008
0.000865148
-0.00167973
0.000896285
-0.00184352
0.000922873
-0.0020107
0.000944881
-0.00218053
0.000962307
-0.00235225
0.000975179
-0.00252513
0.000983542
-0.00269842
0.000987466
-0.00287141
0.000987034
-0.00304337
0.000982343
-0.00321361
0.000973503
-0.00338146
0.000960636
-0.00354625
0.000943869
-0.00370736
0.000923341
-0.00386416
0.000899194
-0.00401606
0.000871579
-0.00416251
0.000840649
-0.00430296
0.000806564
-0.0044369
0.000769485
-0.00456386
0.00072958
-0.00468336
0.000687018
-0.004795
0.000641971
-0.00489837
0.000594614
-0.00499311
0.000545126
-0.00507889
0.000493685
-0.00515539
0.000440475
-0.00522236
0.000385682
-0.00527955
0.000329492
-0.00532676
0.000272095
-0.00536381
0.000213683
-0.00539057
0.000154453
-0.00540693
9.45992e-05
-0.00541282
3.43227e-05
-0.0054082
-2.61752e-05
-0.00539307
-8.66902e-05
-0.00536747
-0.000147016
-0.00533146
-0.000206945
-0.00528516
-0.000266266
-0.00522871
-0.000324767
-0.00516228
-0.000382237
-0.00508609
-0.000438459
-0.00500039
-0.00049322
-0.00490547
-0.000546304
-0.00480166
-0.000597496
-0.00468931
-0.000646581
-0.00456882
-0.000693348
-0.00444062
-0.000737585
-0.00430519
-0.000779083
-0.00416301
-0.000817639
-0.00401463
-0.000853053
-0.0038606
-0.00088513
-0.00370153
-0.000913682
-0.00353805
-0.000938528
-0.00337079
-0.000959498
-0.00320045
-0.000976429
-0.00302773
-0.000989171
-0.00285335
-0.000997588
-0.00267805
-0.00100156
-0.00250259
-0.00100097
-0.00232774
-0.000995743
-0.00215428
-0.000985806
-0.001983
-0.000971116
-0.00181467
-0.000951654
-0.00165008
-0.00092743
-0.00148998
-0.000898487
-0.00133514
-0.000864903
-0.00118629
-0.000826797
-0.00104411
-0.000784335
-0.000909273
-0.000737737
-0.000782396
-0.000687282
-0.00066404
-0.000633319
-0.000554703
-0.000576277
-0.000454811
-0.000516681
-0.000364709
-0.000455162
-0.000284647
-0.000392478
-0.000214776
-0.000329534
-0.000155137
-0.000267408
-0.000105657
-0.000207379
-6.61446e-05
-0.000150958
-3.62891e-05
-9.99295e-05
-1.56695e-05
-5.63804e-05
-3.7683e-06
-2.2745e-05
-2.02699e-06
-5.17416e-06
8.85204e-06
-2.08656e-05
4.36297e-05
-4.72963e-05
9.13855e-05
-8.46752e-05
0.000148734
-0.000133153
0.000213113
-0.0001928
0.000282345
-0.000263597
0.000354564
-0.000345432
0.000428187
-0.000438098
0.000501875
-0.0005413
0.000574504
-0.000654659
0.000645136
-0.000777718
0.000712994
-0.000909955
0.000777438
-0.00105078
0.00083795
-0.00119957
0.000894114
-0.00135564
0.0009456
-0.00151827
0.000992158
-0.00168672
0.0010336
-0.00186023
0.0010698
-0.00203802
0.00110066
-0.0022193
0.00112616
-0.00240327
0.00114628
-0.00258915
0.00116106
-0.00277614
0.00117053
-0.00296347
0.00117479
-0.00315035
0.00117392
-0.00333605
0.00116803
-0.0035198
0.00115726
-0.00370091
0.00114174
-0.00387865
0.00112162
-0.00405237
0.00109705
-0.00422139
0.00106822
-0.0043851
0.00103529
-0.0045429
0.000998444
-0.0046942
0.000957868
-0.00483847
0.000913755
-0.00497519
0.0008663
-0.00510388
0.000815702
-0.00522407
0.000762166
-0.00533536
0.000705899
-0.00543734
0.00064711
-0.00552967
0.000586012
-0.00561201
0.000522822
-0.00568409
0.000457759
-0.00574564
0.000391045
-0.00579645
0.000322904
-0.00583634
0.000253565
-0.00586514
0.000183258
-0.00588276
0.000112216
-0.00588911
4.06761e-05
-0.00588416
-3.11237e-05
-0.00586791
-0.000102942
-0.00584039
-0.000174533
-0.00580169
-0.000245653
-0.0057519
-0.000316051
-0.00569119
-0.000385479
-0.00561974
-0.000453682
-0.00553779
-0.00052041
-0.00544561
-0.000585407
-0.00534349
-0.00064842
-0.00523179
-0.000709195
-0.00511089
-0.00076748
-0.00498122
-0.000823022
-0.00484323
-0.000875575
-0.00469742
-0.000924893
-0.00454432
-0.000970735
-0.00438451
-0.00101287
-0.00421858
-0.00105106
-0.00404717
-0.00108509
-0.00387094
-0.00111475
-0.0036906
-0.00113984
-0.00350685
-0.00116017
-0.00332046
-0.00117557
-0.00313218
-0.00118586
-0.00294281
-0.00119092
-0.00275316
-0.00119063
-0.00256403
-0.00118487
-0.00237626
-0.00117357
-0.00219068
-0.0011567
-0.00200812
-0.00113422
-0.00182941
-0.00110615
-0.00165535
-0.00107254
-0.00148675
-0.0010335
-0.00132438
-0.000989165
-0.00116899
-0.000939727
-0.00102128
-0.000885445
-0.000881918
-0.000826646
-0.000751506
-0.000763731
-0.000630591
-0.000697192
-0.00051965
-0.000627623
-0.000419077
-0.000555734
-0.000329184
-0.00048237
-0.000250188
-0.00040853
-0.000182206
-0.00033539
-0.000125257
-0.000264329
-7.92555e-05
-0.00019696
-4.40228e-05
-0.000135162
-1.92942e-05
-8.1109e-05
-4.74016e-06
-3.7299e-05
-6.76713e-06
-6.15447e-06
1.50063e-05
-2.45453e-05
6.20207e-05
-5.51759e-05
0.000122016
-9.80629e-05
0.000191621
-0.00015319
0.00026824
-0.000220487
0.000349641
-0.000299812
0.000433889
-0.00039095
0.000519324
-0.000493604
0.000604529
-0.000607403
0.000688303
-0.000731899
0.000769632
-0.000866577
0.000847672
-0.00101086
0.000921719
-0.00116411
0.000991199
-0.00132564
0.00105565
-0.00149473
0.00111469
-0.00167063
0.00116805
-0.00185254
0.00121551
-0.00203966
0.00125692
-0.00223117
0.00129217
-0.00242623
0.00132122
-0.00262401
0.00134406
-0.00282367
0.00136072
-0.00302439
0.00137125
-0.00322533
0.00137573
-0.00342569
0.00137428
-0.00362467
0.00136701
-0.00382149
0.00135408
-0.00401538
0.00133563
-0.00420562
0.00131185
-0.00439148
0.00128291
-0.00457227
0.00124901
-0.00474734
0.00121035
-0.00491604
0.00116714
-0.00507777
0.0011196
-0.00523195
0.00106794
-0.00537803
0.00101239
-0.00551552
0.000953186
-0.00564392
0.000890566
-0.00576279
0.000824767
-0.00587171
0.000756035
-0.00597032
0.000684618
-0.00605826
0.000610766
-0.00613524
0.000534735
-0.00620098
0.000456783
-0.00625524
0.000377173
-0.00629785
0.000296169
-0.00632863
0.000214041
-0.00634747
0.000131059
-0.00635429
4.74981e-05
-0.00634906
-3.63624e-05
-0.00633176
-0.000120242
-0.00630243
-0.000203856
-0.00626117
-0.000286919
-0.00620808
-0.000369141
-0.00614332
-0.000450232
-0.00606711
-0.000529897
-0.00597968
-0.000607843
-0.00588131
-0.000683776
-0.00577233
-0.000757399
-0.0056531
-0.000828419
-0.00552404
-0.000896543
-0.00538558
-0.000961479
-0.00523822
-0.00102294
-0.00508247
-0.00108064
-0.00491891
-0.0011343
-0.00474812
-0.00118365
-0.00457076
-0.00122843
-0.00438747
-0.00126838
-0.00419898
-0.00130325
-0.004006
-0.00133282
-0.00380931
-0.00135686
-0.0036097
-0.00137518
-0.00340796
-0.0013876
-0.00320494
-0.00139394
-0.00300149
-0.00139408
-0.00279846
-0.0013879
-0.00259673
-0.0013753
-0.00239717
-0.00135625
-0.00220067
-0.00133072
-0.00200808
-0.00129873
-0.00182028
-0.00126034
-0.00163811
-0.00121568
-0.00146238
-0.00116489
-0.00129389
-0.00110822
-0.00113339
-0.00104595
-0.000981582
-0.00097845
-0.000839132
-0.00090618
-0.000706633
-0.000829691
-0.000584615
-0.000749642
-0.000473532
-0.000666817
-0.000373759
-0.000582143
-0.000285588
-0.000496701
-0.000209221
-0.000411757
-0.000144772
-0.000328778
-9.22709e-05
-0.000249461
-5.167e-05