/*--------------------------------*- C++ -*----------------------------------*\
  =========                 |
  \\      /  F ield         | OpenFOAM: The Open Source CFD Toolbox
   \\    /   O peration     | Website:  https://openfoam.org
    \\  /    A nd           | Version:  11
     \\/     M anipulation  |
\*---------------------------------------------------------------------------*/
FoamFile
{
    format      ascii;
    class       volScalarField;
    location    "6.8";
    object      p;
}
// * * * * * * * * * * * * * * * * * * * * * * * * * * * * * * * * * * * * * //

dimensions      [0 2 -2 0 0 0 0];

internalField   nonuniform List<scalar> 
10100
(
-5.12052e-07
8.0842e-05
-0.000154771
-0.000759817
-0.00167473
-0.00283632
-0.00418664
-0.00567111
-0.00724157
-0.00885659
-0.01048
-0.0120796
-0.0136274
-0.0150993
-0.0164748
-0.0177367
-0.0188699
-0.0198613
-0.0207004
-0.0213785
-0.0218884
-0.0222247
-0.0223835
-0.0223616
-0.0221573
-0.0217698
-0.0211996
-0.020448
-0.0195167
-0.0184087
-0.0171274
-0.0156771
-0.0140625
-0.0122886
-0.0103612
-0.00828708
-0.00607295
-0.00372603
-0.001254
0.001335
0.00403241
0.00682955
0.00971749
0.0126869
0.0157279
0.0188307
0.0219851
0.0251809
0.0284076
0.0316544
0.0349108
0.0381659
0.0414092
0.0446295
0.0478159
0.0509573
0.0540431
0.0570625
0.060005
0.06286
0.0656171
0.0682664
0.0707984
0.0732039
0.075474
0.0775999
0.0795735
0.0813874
0.083035
0.0845105
0.0858085
0.0869245
0.0878545
0.0885957
0.0891461
0.089505
0.0896727
0.0896504
0.0894405
0.0890473
0.0884764
0.0877351
0.0868323
0.0857788
0.0845869
0.0832714
0.0818494
0.0803409
0.0787684
0.0771576
0.0755374
0.0739406
0.0724044
0.0709707
0.0696862
0.0686018
0.0677694
0.0672385
0.0670506
0.0671557
-9.56376e-05
-4.23482e-05
-0.000284915
-0.000830696
-0.001625
-0.00262456
-0.00378836
-0.00507414
-0.00644175
-0.0078552
-0.00928236
-0.0106945
-0.0120655
-0.0133728
-0.0145968
-0.0157205
-0.0167293
-0.0176107
-0.0183539
-0.01895
-0.0193919
-0.019674
-0.0197918
-0.0197422
-0.0195231
-0.0191332
-0.0185727
-0.0178423
-0.0169436
-0.0158788
-0.0146511
-0.0132642
-0.0117223
-0.0100303
-0.00819357
-0.00621814
-0.00411032
-0.00187686
0.000474948
0.00293738
0.00550249
0.00816213
0.0109078
0.0137306
0.0166212
0.0195701
0.022568
0.0256049
0.028671
0.0317559
0.0348496
0.0379421
0.0410231
0.044082
0.0471084
0.050092
0.0530226
0.0558902
0.0586848
0.0613962
0.0640147
0.0665311
0.0689365
0.0712225
0.0733804
0.0754022
0.0772803
0.0790078
0.0805789
0.0819882
0.0832309
0.0843028
0.0852006
0.0859217
0.0864648
0.0868294
0.0870162
0.0870267
0.0868637
0.0865314
0.0860357
0.0853839
0.0845849
0.0836492
0.0825889
0.0814182
0.0801538
0.0788146
0.0774218
0.0759994
0.074574
0.073175
0.0718354
0.070591
0.0694805
0.0685441
0.0678196
0.0673416
0.067155
0.06726
9.90245e-05
0.000132403
-0.000116608
-0.000631247
-0.00135627
-0.00225667
-0.00330046
-0.00445334
-0.00568092
-0.00695161
-0.00823703
-0.00951087
-0.0107498
-0.0119328
-0.0130412
-0.0140585
-0.0149709
-0.0157663
-0.0164342
-0.0169658
-0.0173538
-0.0175927
-0.017678
-0.0176062
-0.0173749
-0.0169831
-0.0164303
-0.015717
-0.0148444
-0.0138147
-0.0126305
-0.0112952
-0.00981245
-0.00818706
-0.0064242
-0.00452929
-0.00250818
-0.000367308
0.00188627
0.00424521
0.00670212
0.00924933
0.0118787
0.0145815
0.0173489
0.0201721
0.0230419
0.0259489
0.0288836
0.031836
0.0347969
0.0377565
0.040705
0.0436322
0.0465281
0.049383
0.0521873
0.0549314
0.0576055
0.0602001
0.062706
0.0651145
0.0674174
0.0696065
0.0716736
0.0736111
0.0754118
0.0770696
0.078579
0.0799349
0.081133
0.0821694
0.0830412
0.0837461
0.0842832
0.0846523
0.0848542
0.0848905
0.0847641
0.0844796
0.0840428
0.0834609
0.0827424
0.0818976
0.0809381
0.0798779
0.0787327
0.0775205
0.0762612
0.0749767
0.0736914
0.0724321
0.0712279
0.07011
0.0691115
0.0682657
0.0676033
0.0671536
0.0669674
0.0670718
0.000615735
0.0005887
0.000308917
-0.000202776
-0.000898002
-0.00174507
-0.00271687
-0.00378389
-0.0049168
-0.006088
-0.0072714
-0.00844358
-0.0095833
-0.0106714
-0.0116903
-0.0126245
-0.0134609
-0.0141878
-0.0147952
-0.0152747
-0.0156192
-0.0158232
-0.015882
-0.0157921
-0.0155511
-0.0151579
-0.0146117
-0.0139128
-0.0130624
-0.0120623
-0.010915
-0.00962325
-0.00819075
-0.00662199
-0.00492177
-0.00309509
-0.00114757
0.000914527
0.00308448
0.0053554
0.00772029
0.0101718
0.0127019
0.0153024
0.017965
0.0206811
0.023442
0.0262384
0.0290611
0.031901
0.0347488
0.0375955
0.0404314
0.0432466
0.0460318
0.0487776
0.051475
0.0541144
0.0566866
0.0591824
0.0615931
0.0639106
0.0661269
0.0682344
0.070225
0.0720915
0.0738272
0.0754265
0.0768841
0.0781953
0.0793559
0.0803624
0.0812122
0.0819035
0.0824354
0.0828078
0.0830215
0.0830783
0.0829814
0.0827351
0.0823452
0.0818188
0.081164
0.0803904
0.0795096
0.0785347
0.0774807
0.0763644
0.0752043
0.0740205
0.0728352
0.0716727
0.0705588
0.0695213
0.0685887
0.0677901
0.0671523
0.0667023
0.0664883
0.0665419
0.00141987
0.00128483
0.000942864
0.000408039
-0.000284139
-0.00110672
-0.0020345
-0.00304264
-0.00410641
-0.00520151
-0.00630506
-0.00739575
-0.00845425
-0.00946325
-0.0104067
-0.0112703
-0.0120414
-0.0127091
-0.0132639
-0.0136978
-0.0140041
-0.0141771
-0.0142125
-0.0141068
-0.0138577
-0.0134636
-0.0129239
-0.0122387
-0.011409
-0.0104365
-0.00932322
-0.00807195
-0.00668618
-0.00517007
-0.00352799
-0.00176464
0.000114469
0.00210324
0.00419539
0.00638451
0.00866387
0.0110262
0.013464
0.0159693
0.0185344
0.0211509
0.0238104
0.0265039
0.0292226
0.0319577
0.0347007
0.0374425
0.0401737
0.0428851
0.0455676
0.0482124
0.0508106
0.0533532
0.055831
0.0582354
0.0605583
0.0627917
0.0649283
0.0669603
0.0688804
0.0706814
0.0723574
0.0739028
0.0753128
0.0765828
0.0777088
0.0786877
0.0795172
0.0801956
0.0807222
0.0810969
0.0813206
0.0813952
0.0813237
0.0811106
0.0807615
0.080283
0.0796829
0.0789704
0.0781564
0.0772534
0.0762756
0.0752384
0.0741587
0.0730551
0.0719476
0.0708578
0.069809
0.0688253
0.0679318
0.0671534
0.0665139
0.0660375
0.0657621
0.0657113
0.00247006
0.00219096
0.0017593
0.00117738
0.000463133
-0.00035937
-0.00126829
-0.00224221
-0.00325995
-0.00430065
-0.00534433
-0.00637217
-0.00736664
-0.0083119
-0.00919362
-0.00999857
-0.010715
-0.0113328
-0.011843
-0.0122379
-0.0125114
-0.0126579
-0.0126733
-0.0125542
-0.0122983
-0.0119041
-0.0113709
-0.0106987
-0.00988848
-0.00894151
-0.00785968
-0.00664579
-0.0053032
-0.00383558
-0.00224698
-0.000542047
0.00127388
0.00319503
0.00521547
0.00732913
0.00952951
0.0118096
0.0141622
0.0165798
0.0190549
0.0215797
0.0241455
0.0267441
0.0293669
0.0320057
0.0346521
0.0372973
0.0399323
0.0425482
0.0451364
0.0476885
0.0501957
0.0526493
0.0550407
0.0573614
0.0596038
0.0617605
0.063824
0.0657872
0.0676427
0.0693841
0.0710056
0.072502
0.0738685
0.0751008
0.0761951
0.0771487
0.0779594
0.0786258
0.0791469
0.0795228
0.0797544
0.0798438
0.0797939
0.0796089
0.0792942
0.078856
0.0783018
0.0776402
0.0768816
0.0760376
0.0751213
0.0741471
0.0731303
0.0720877
0.0710374
0.0699986
0.0689919
0.0680385
0.06716
0.0663779
0.065713
0.0651868
0.0648213
0.0646271
0.00371946
0.0032718
0.00272884
0.00207881
0.00132153
0.000477223
-0.000434943
-0.00139664
-0.00238962
-0.00339626
-0.00439913
-0.00538164
-0.00632828
-0.00722473
-0.00805801
-0.00881613
-0.00948844
-0.0100655
-0.0105389
-0.0109018
-0.0111481
-0.0112726
-0.0112714
-0.0111416
-0.0108806
-0.0104871
-0.00996035
-0.00930056
-0.00850834
-0.00758485
-0.00653197
-0.0053523
-0.004049
-0.00262554
-0.0010857
0.000566019
0.00232435
0.00418385
0.006139
0.00818395
0.0103123
0.0125174
0.0147923
0.01713
0.0195234
0.0219644
0.024445
0.0269571
0.0294928
0.0320441
0.0346027
0.0371601
0.0397076
0.0422368
0.0447396
0.0472077
0.0496326
0.0520057
0.0543187
0.056564
0.0587338
0.0608212
0.0628189
0.0647199
0.0665174
0.0682052
0.0697777
0.07123
0.0725572
0.0737554
0.0748212
0.0757518
0.0765454
0.0772003
0.0777158
0.0780918
0.0783293
0.0784304
0.0783979
0.0782359
0.0779492
0.0775439
0.0770267
0.0764061
0.0756914
0.0748937
0.0740248
0.073098
0.0721272
0.0711274
0.070115
0.0691071
0.0681216
0.0671772
0.0662922
0.065485
0.064774
0.0641777
0.0637004
0.0633374
0.00512255
0.00449058
0.00382048
0.00308601
0.00226798
0.00138359
0.000449814
-0.000517906
-0.00150455
-0.00249488
-0.00347369
-0.00442653
-0.00533986
-0.00620105
-0.00699822
-0.00772051
-0.00835834
-0.0089032
-0.00934745
-0.00968445
-0.00990867
-0.0100156
-0.0100014
-0.00986316
-0.00959876
-0.00920677
-0.00868672
-0.00803872
-0.0072632
-0.00636126
-0.00533487
-0.00418655
-0.00291899
-0.00153546
-3.98232e-05
0.00156343
0.00326942
0.00507312
0.00696917
0.00895172
0.0110146
0.0131516
0.0153562
0.0176217
0.0199409
0.022306
0.0247093
0.0271433
0.0296002
0.0320723
0.0345514
0.0370294
0.039498
0.0419491
0.044375
0.0467674
0.0491181
0.0514188
0.0536615
0.055839
0.0579438
0.059969
0.0619077
0.0637531
0.0654988
0.0671387
0.0686675
0.0700802
0.0713724
0.0725401
0.0735802
0.0744901
0.0752679
0.0759121
0.0764217
0.0767968
0.0770384
0.0771482
0.0771293
0.0769853
0.0767207
0.0763412
0.075853
0.0752639
0.0745828
0.0738195
0.0729853
0.0720918
0.0711519
0.0701788
0.0691873
0.0681925
0.0672103
0.0662565
0.065347
0.0644967
0.0637224
0.0630399
0.062435
0.0618876
0.00663817
0.00581279
0.00500487
0.00417347
0.00328037
0.00234087
0.00137021
0.000380748
-0.000615085
-0.00160412
-0.00257342
-0.00351054
-0.00440361
-0.00524142
-0.00601342
-0.00670995
-0.00732235
-0.00784291
-0.00826474
-0.00858174
-0.00878891
-0.00888224
-0.0088582
-0.00871391
-0.00844756
-0.00805815
-0.00754506
-0.00690815
-0.00614805
-0.00526607
-0.00426398
-0.00314397
-0.00190865
-0.000561281
0.00089429
0.0024538
0.00411265
0.00586601
0.00770866
0.00963487
0.0116388
0.0137145
0.0158558
0.0180561
0.0203083
0.0226051
0.0249388
0.0273025
0.0296887
0.0320896
0.0344973
0.036904
0.0393018
0.0416831
0.04404
0.0463647
0.0486491
0.0508851
0.0530652
0.0551823
0.0572293
0.0591992
0.0610854
0.0628816
0.0645813
0.0661788
0.0676689
0.0690465
0.0703076
0.0714482
0.0724654
0.0733567
0.0741202
0.0747542
0.0752579
0.0756311
0.0758749
0.075991
0.075982
0.0758515
0.0756037
0.0752434
0.0747768
0.0742107
0.0735534
0.0728142
0.0720029
0.0711304
0.0702078
0.0692473
0.0682618
0.0672648
0.0662703
0.0652918
0.0643423
0.0634343
0.0625828
0.0618018
0.0610587
0.0603183
0.00823038
0.00720703
0.00625423
0.00531645
0.00433767
0.00333105
0.00231046
0.001286
0.000267973
-0.000732861
-0.00170543
-0.00263893
-0.00352314
-0.00434823
-0.00510495
-0.00578471
-0.00637984
-0.00688336
-0.007289
-0.00759148
-0.00778642
-0.00786988
-0.00783873
-0.00769067
-0.00742406
-0.00703792
-0.00653174
-0.00590551
-0.00515988
-0.00429617
-0.00331604
-0.00222154
-0.00101524
0.000299602
0.0017192
0.00323952
0.00485621
0.00656451
0.00835926
0.010235
0.0121861
0.0142071
0.0162918
0.0184338
0.0206261
0.0228618
0.0251336
0.0274347
0.0297577
0.0320951
0.0344391
0.0367824
0.0391174
0.0414367
0.0437325
0.0459972
0.0482228
0.0504017
0.0525266
0.0545905
0.0565864
0.0585077
0.060348
0.0621009
0.0637604
0.0653208
0.0667769
0.0681239
0.0693576
0.0704745
0.0714715
0.0723464
0.073097
0.0737216
0.0742192
0.0745898
0.0748343
0.0749542
0.0749521
0.074831
0.0745948
0.074248
0.0737959
0.0732451
0.072603
0.0718782
0.0710796
0.0702168
0.0692997
0.0683392
0.0673468
0.0663345
0.0653143
0.0642978
0.0632956
0.062318
0.0613787
0.06049
0.0596019
0.0586646
0.00986806
0.00864557
0.00754324
0.00649265
0.00541981
0.00433663
0.00325574
0.00218531
0.00113376
0.000109934
-0.000876882
-0.00181747
-0.00270294
-0.00352481
-0.00427511
-0.00494621
-0.00553124
-0.0060242
-0.00641955
-0.00671252
-0.00689929
-0.00697642
-0.00694101
-0.00679117
-0.00652567
-0.00614354
-0.00564429
-0.00502816
-0.00429598
-0.00344895
-0.00248856
-0.00141681
-0.000236404
0.00104938
0.00243698
0.00392257
0.00550187
0.00717018
0.00892241
0.0107533
0.0126578
0.0146303
0.0166649
0.0187552
0.0208946
0.0230762
0.0252934
0.0275393
0.0298066
0.0320879
0.0343759
0.0366635
0.0389434
0.0412082
0.0434505
0.0456626
0.0478369
0.0499659
0.0520427
0.0540603
0.056012
0.0578911
0.0596915
0.0614071
0.0630319
0.0645604
0.0659873
0.0673079
0.0685181
0.0696144
0.070594
0.0714545
0.0721937
0.0728097
0.0733015
0.0736688
0.0739126
0.0740344
0.0740363
0.073921
0.0736918
0.0733529
0.0729092
0.0723667
0.0717322
0.0710132
0.070218
0.0693549
0.0684328
0.0674614
0.0664509
0.0654118
0.0643546
0.063289
0.0622238
0.061167
0.0601316
0.0591289
0.0580917
0.0569571
0.0115242
0.0101034
0.00884968
0.00768135
0.0065081
0.00534078
0.00419135
0.00306605
0.00197148
0.000915076
-9.53889e-05
-0.00105223
-0.00194789
-0.00277499
-0.0035266
-0.00419629
-0.0047779
-0.00526604
-0.00565624
-0.00594439
-0.00612679
-0.00620051
-0.00616336
-0.00601377
-0.00575056
-0.0053729
-0.00488057
-0.0042741
-0.00355431
-0.00272223
-0.00177932
-0.000727727
0.000429765
0.00168994
0.00304947
0.00450465
0.00605118
0.00768436
0.00939929
0.011191
0.0130547
0.0149849
0.0169757
0.0190208
0.0211138
0.0232485
0.0254181
0.0276159
0.0298347
0.0320672
0.0343065
0.0365458
0.0387781
0.040996
0.043192
0.0453588
0.0474889
0.0495752
0.0516108
0.0535889
0.0555028
0.057346
0.0591126
0.0607966
0.0623922
0.0638937
0.065296
0.0665943
0.0677847
0.0688638
0.0698287
0.070677
0.0714063
0.0720146
0.0725008
0.0728645
0.0731067
0.0732287
0.0732321
0.0731193
0.0728931
0.0725572
0.0721164
0.0715759
0.0709421
0.0702216
0.0694215
0.0685492
0.0676129
0.0666211
0.0655828
0.0645073
0.0634034
0.0622794
0.0611425
0.059999
0.0588613
0.0577401
0.0565522
0.0552215
0.0131748
0.0115584
0.0101527
0.00886355
0.00758521
0.00632787
0.00510312
0.00391556
0.00277024
0.00167323
0.000630939
-0.000349984
-0.00126331
-0.00210308
-0.00286304
-0.00353744
-0.00412132
-0.00461018
-0.00499999
-0.0052871
-0.00546844
-0.0055417
-0.00550512
-0.00535732
-0.00509728
-0.00472451
-0.00423915
-0.00364177
-0.00293311
-0.00211418
-0.0011866
-0.000152698
0.000984797
0.00222286
0.00355823
0.00498718
0.00650536
0.00810816
0.00979097
0.0115491
0.0133776
0.0152714
0.0172244
0.0192306
0.021284
0.0233785
0.0255074
0.027664
0.0298412
0.0320321
0.03423
0.0364284
0.0386202
0.0407983
0.0429551
0.0450837
0.0471767
0.0492272
0.0512284
0.0531736
0.055056
0.0568694
0.058608
0.0602661
0.0618378
0.0633173
0.0646994
0.0659796
0.0671539
0.0682191
0.0691722
0.0700104
0.0707314
0.071333
0.071814
0.0721742
0.0724142
0.0725349
0.0725377
0.0724245
0.0721976
0.0718606
0.0714177
0.0708739
0.0702347
0.0695059
0.0686937
0.0678047
0.066846
0.0658256
0.0647512
0.0636309
0.0624722
0.0612822
0.0600665
0.0588304
0.0575859
0.0563432
0.0550039
0.0534798
0.0147994
0.0129905
0.0114333
0.0100217
0.00863489
0.00728304
0.00597767
0.0047218
0.00351921
0.00237498
0.00129424
0.000282274
-0.000655525
-0.00151402
-0.00228811
-0.00297291
-0.00356428
-0.00405843
-0.00445183
-0.00474138
-0.00492474
-0.00500014
-0.00496604
-0.00482122
-0.00456508
-0.0041976
-0.00371908
-0.00312999
-0.00243106
-0.00162352
-0.000709229
0.000309468
0.00142999
0.00264941
0.00396444
0.00537119
0.00686535
0.0084425
0.0100983
0.0118281
0.0136271
0.0154901
0.0174112
0.0193848
0.0214052
0.0234661
0.0255609
0.027683
0.0298255
0.0319817
0.0341453
0.0363099
0.0384684
0.0406135
0.0427381
0.0448353
0.0468982
0.0489197
0.0508931
0.0528116
0.0546687
0.0564584
0.0581749
0.0598127
0.0613656
0.0628279
0.0641943
0.0654604
0.0666225
0.0676771
0.0686212
0.0694517
0.070166
0.0707621
0.0712387
0.0715955
0.0718328
0.0719512
0.0719516
0.0718355
0.071605
0.0712633
0.0708142
0.0702623
0.0696123
0.0688692
0.0680386
0.0671262
0.0661383
0.0650821
0.0639644
0.0627923
0.061572
0.0603095
0.0590095
0.057676
0.0563213
0.0549554
0.0534653
0.0517509
0.0163804
0.0143822
0.0126744
0.0111397
0.00964247
0.00819267
0.00680212
0.00547317
0.00420826
0.00301111
0.00188606
0.000837453
-0.000130377
-0.00101304
-0.00180636
-0.00250643
-0.00310979
-0.00361315
-0.00401356
-0.00430869
-0.00449682
-0.00457644
-0.00454624
-0.00440543
-0.00415393
-0.00379196
-0.00331982
-0.00273798
-0.00204739
-0.00124955
-0.000346454
0.000659649
0.00176628
0.00297051
0.00426887
0.00565737
0.00713179
0.00868799
0.0103218
0.0120286
0.0138035
0.0156412
0.0175364
0.0194836
0.0214771
0.0235108
0.025578
0.0276721
0.0297866
0.0319151
0.0340515
0.0361891
0.038321
0.04044
0.0425392
0.044612
0.0466515
0.0486507
0.0506026
0.0525008
0.0543387
0.0561106
0.0578109
0.0594337
0.0609729
0.0624226
0.0637778
0.0650341
0.0661878
0.0672352
0.068173
0.068998
0.0697076
0.0702996
0.0707728
0.0711267
0.0713612
0.0714764
0.0714729
0.0713518
0.0711152
0.0707659
0.0703072
0.069743
0.0690774
0.068315
0.0674604
0.0665188
0.0654959
0.0643979
0.0632308
0.0620008
0.0607132
0.059373
0.057984
0.0565497
0.0550823
0.0535922
0.0519521
0.0500509
0.017902
0.015718
0.0138611
0.0122028
0.0105935
0.00904359
0.00756487
0.00615873
0.00482702
0.00357249
0.00239838
0.00130829
0.00030581
-0.000605624
-0.0014227
-0.00214221
-0.00276124
-0.00327713
-0.00368767
-0.0039912
-0.00418628
-0.00427168
-0.00424657
-0.00411072
-0.00386434
-0.00350775
-0.00304125
-0.00246554
-0.00178192
-0.000992082
-9.79663e-05
0.000898295
0.00199421
0.00318659
0.00447181
0.00584594
0.007305
0.00884502
0.0104618
0.0121505
0.0139065
0.0157245
0.0175997
0.0195266
0.0214996
0.0235122
0.025558
0.0276306
0.0297238
0.0318315
0.0339473
0.0360647
0.0381766
0.0402761
0.0423568
0.044412
0.0464348
0.048418
0.0503548
0.0522387
0.0540636
0.0558238
0.0575134
0.0591265
0.0606569
0.0620989
0.0634474
0.0646983
0.0658474
0.0668909
0.0678253
0.0686473
0.0693542
0.0699439
0.0704149
0.0707665
0.0709982
0.0711098
0.0711013
0.0709738
0.0707291
0.0703697
0.0698984
0.0693184
0.0686333
0.0678469
0.0669636
0.065988
0.0649251
0.0637802
0.0625586
0.0612656
0.0599058
0.0584836
0.057002
0.055464
0.0538823
0.0522673
0.0504786
0.0483941
0.0193503
0.016984
0.0149793
0.0131973
0.0114753
0.00982345
0.00825418
0.00676796
0.00536585
0.00405007
0.00282307
0.00168759
0.000646455
-0.00029773
-0.00114233
-0.00188469
-0.00252249
-0.00305386
-0.00347726
-0.0037914
-0.0039951
-0.00408756
-0.00406858
-0.0039384
-0.00369731
-0.00334559
-0.00288383
-0.00231315
-0.00163513
-0.000851416
3.61941e-05
0.00102549
0.0021137
0.00329744
0.00457306
0.00593686
0.007385
0.00891348
0.0105179
0.0121936
0.0139358
0.0157398
0.0176009
0.0195134
0.0214717
0.0234693
0.0254999
0.0275575
0.0296362
0.0317297
0.0338315
0.035935
0.0380335
0.0401204
0.0421893
0.0442336
0.046246
0.0482195
0.0501474
0.0520233
0.0538414
0.0555956
0.0572801
0.0588887
0.0604154
0.0618545
0.0632011
0.0644507
0.0655992
0.0666424
0.0675764
0.068398
0.0691045
0.0696936
0.0701639
0.0705141
0.0707434
0.0708511
0.0708372
0.0707024
0.0704481
0.0700765
0.06959
0.0689913
0.0682832
0.0674692
0.0665532
0.0655394
0.0644323
0.0632362
0.0619558
0.0605955
0.0591595
0.0576516
0.0560745
0.0544308
0.0527335
0.0509936
0.0490574
0.0467927
0.0207129
0.0181675
0.0160167
0.0141113
0.0122759
0.0105209
0.00885911
0.00729049
0.00581527
0.00443516
0.00315207
0.00196794
0.000884771
-9.54582e-05
-0.00097063
-0.00173866
-0.00239796
-0.00294738
-0.00338583
-0.00371218
-0.00392576
-0.00402642
-0.00401448
-0.00389026
-0.00365409
-0.00330654
-0.00284869
-0.00228196
-0.00160791
-0.000828103
5.55887e-05
0.00104067
0.0021241
0.00330244
0.00457218
0.00592978
0.00737137
0.00889278
0.0104895
0.012157
0.0138908
0.0156865
0.0175391
0.019443
0.0213923
0.0233808
0.0254026
0.0274519
0.0295225
0.0316081
0.0337021
0.0357983
0.0378901
0.0399711
0.0420349
0.0440746
0.046083
0.0480531
0.0499783
0.0518526
0.0536698
0.0554239
0.0571087
0.0587182
0.0602463
0.0616875
0.0630369
0.0642897
0.0654414
0.0664877
0.0674245
0.0682486
0.0689573
0.0695482
0.0700193
0.0703692
0.0705967
0.0707008
0.0706813
0.0705386
0.0702738
0.0698885
0.0693848
0.0687647
0.0680309
0.0671862
0.0662344
0.065179
0.064024
0.0627731
0.0614301
0.0599989
0.0584834
0.056887
0.0552122
0.053461
0.0516472
0.0497822
0.0476999
0.0452579
0.0219783
0.0192568
0.0169616
0.0149335
0.0129843
0.0111252
0.00936948
0.00771656
0.0061661
0.00471926
0.00337742
0.00214182
0.00101381
-5.04674e-06
-0.000913177
-0.00170931
-0.00239255
-0.00296208
-0.00341702
-0.0037568
-0.00398145
-0.0040913
-0.00408677
-0.00396827
-0.00373646
-0.00339243
-0.00293761
-0.00237343
-0.00170139
-0.000923124
-4.08292e-05
0.000942694
0.0020243
0.00320066
0.00446842
0.00582395
0.00726321
0.00878189
0.0103756
0.01204
0.0137708
0.0155636
0.0174133
0.019314
0.0212601
0.0232458
0.0252651
0.0273122
0.0293811
0.031465
0.0335578
0.0356531
0.0377449
0.0398266
0.0418916
0.0439331
0.0459437
0.0479167
0.0498457
0.0517245
0.0535469
0.0553064
0.0569971
0.0586128
0.0601476
0.0615961
0.062953
0.0642134
0.0653724
0.0664254
0.0673685
0.0681983
0.068912
0.0695069
0.0699809
0.0703319
0.0705585
0.0706596
0.0706348
0.070484
0.0702081
0.0698081
0.0692855
0.0686421
0.0678802
0.0670026
0.0660123
0.0649125
0.0637065
0.0623976
0.060989
0.0594841
0.0578864
0.0561992
0.0544247
0.0525647
0.0506337
0.0486435
0.0464161
0.043799
0.0231363
0.0202414
0.0178033
0.015653
0.0135901
0.0116263
0.00977542
0.00803678
0.00640948
0.00489397
0.00349109
0.0022017
0.00102677
-3.27348e-05
-0.000976023
-0.00180242
-0.00251135
-0.00310232
-0.00357492
-0.00392928
-0.0041659
-0.00428535
-0.00428809
-0.00417487
-0.0039469
-0.00360568
-0.00315267
-0.00258926
-0.00191705
-0.00113801
-0.000254674
0.000730012
0.00181298
0.00299099
0.00426065
0.00561811
0.00705916
0.00857952
0.010175
0.0118415
0.0135747
0.0153699
0.0172219
0.0191251
0.021074
0.0230629
0.0250859
0.0271372
0.0292103
0.0312989
0.0333967
0.0354979
0.0375961
0.039685
0.0417576
0.0438071
0.0458264
0.0478087
0.0497477
0.0516372
0.0534706
0.0552413
0.0569434
0.0585708
0.0601178
0.0615786
0.0629478
0.0642203
0.0653907
0.0664545
0.0674075
0.0682463
0.068968
0.0695696
0.0700484
0.0704022
0.0706294
0.0707285
0.0706989
0.0705404
0.0702531
0.0698377
0.0692952
0.0686271
0.0678355
0.066923
0.0658921
0.0647456
0.0634862
0.0621167
0.0606398
0.0590587
0.0573767
0.055597
0.0537213
0.0517513
0.0497022
0.0475868
0.045215
0.0424248
0.0241778
0.0211116
0.0185317
0.0162597
0.0140833
0.0120143
0.0100676
0.00824216
0.00653652
0.00495068
0.00348513
0.00214035
0.000916783
-0.000185239
-0.00116548
-0.00202364
-0.00275945
-0.00337286
-0.00386418
-0.004234
-0.00448303
-0.00461192
-0.00462152
-0.00451313
-0.00428841
-0.00394893
-0.0034961
-0.00293145
-0.00225691
-0.00147485
-0.000587966
0.00040084
0.00148857
0.00267193
0.00394727
0.00531056
0.00675758
0.00828422
0.00988648
0.0115601
0.0133008
0.0151037
0.0169635
0.0188748
0.0208324
0.0228306
0.0248634
0.0269248
0.0290084
0.0311079
0.0332174
0.0353309
0.0374422
0.0395445
0.041631
0.0436949
0.0457292
0.0477272
0.0496826
0.0515888
0.0534391
0.0552269
0.0569461
0.0585909
0.0601555
0.0616338
0.0630202
0.0643092
0.0654954
0.066574
0.0675409
0.0683924
0.0691253
0.0697362
0.0702222
0.0705809
0.0708104
0.0709089
0.0708756
0.0707097
0.0704111
0.0699801
0.0694172
0.0687236
0.0679012
0.0669522
0.0658791
0.064684
0.0633691
0.0619368
0.0603896
0.0587305
0.0569624
0.0550885
0.0531103
0.0510292
0.0488615
0.0466204
0.0441047
0.0411427
0.025094
0.0218583
0.0191377
0.0167442
0.0144542
0.0122801
0.010237
0.00832374
0.00653857
0.00488124
0.00335178
0.00195029
0.000676618
-0.000469401
-0.00148785
-0.00237872
-0.00314226
-0.00377902
-0.00428984
-0.00467549
-0.00493678
-0.00507473
-0.00509077
-0.00498668
-0.00476423
-0.00442496
-0.00397043
-0.00340251
-0.00272356
-0.00193613
-0.00104292
-4.67764e-05
0.00104922
0.00224151
0.00352625
0.00489935
0.00635672
0.00789441
0.00950838
0.0111943
0.0129474
0.0147631
0.0166362
0.0185615
0.0205338
0.0225473
0.0245959
0.0266734
0.0287737
0.0308905
0.0330181
0.0351505
0.0372812
0.0394033
0.04151
0.0435948
0.0456506
0.0476708
0.0496488
0.0515778
0.053451
0.0552617
0.057004
0.058672
0.0602596
0.0617607
0.0631692
0.0644794
0.0656859
0.0667837
0.0677687
0.0686367
0.0693842
0.0700074
0.0705033
0.0708692
0.0711029
0.0712026
0.0711668
0.0709946
0.0706852
0.0702386
0.0696552
0.0689357
0.0680819
0.0670955
0.0659787
0.0647334
0.0633614
0.0618646
0.0602455
0.0585066
0.0566511
0.0546816
0.0525996
0.0504065
0.0481192
0.0457523
0.0430928
0.0399597
0.0258764
0.0224725
0.0196121
0.0170977
0.0146941
0.0124144
0.0102746
0.0082728
0.00640728
0.00467756
0.00308324
0.00162389
0.000298958
-0.000892027
-0.00194942
-0.00287371
-0.00366571
-0.0043265
-0.00485707
-0.00525834
-0.00553147
-0.00567807
-0.00570007
-0.00559937
-0.00537771
-0.00503683
-0.00457866
-0.00400551
-0.00331994
-0.00252451
-0.0016219
-0.00061509
0.000492591
0.00169737
0.00299531
0.00438243
0.00585474
0.00740827
0.00903881
0.0107418
0.0125126
0.0143465
0.0162385
0.0181836
0.0201764
0.0222111
0.0242813
0.0263811
0.0285043
0.030645
0.0327973
0.0349549
0.0371112
0.0392595
0.041393
0.0435051
0.045589
0.0476378
0.0496446
0.0516026
0.0535047
0.0553444
0.0571158
0.0588128
0.060429
0.0619582
0.0633939
0.0647303
0.0659619
0.0670836
0.0680908
0.0689794
0.0697451
0.070384
0.0708927
0.0712684
0.0715087
0.0716115
0.071575
0.0713977
0.0710784
0.0706169
0.0700131
0.0692679
0.0683823
0.0673579
0.0661966
0.0648999
0.0634694
0.0619068
0.0602144
0.0583945
0.0564501
0.0543838
0.0521968
0.0498906
0.0474831
0.0449897
0.0421863
0.0388823
0.0265169
0.022946
0.0199464
0.0173113
0.014794
0.0124086
0.0101715
0.00808079
0.00613439
0.00433156
0.00267151
0.00115343
-0.000223458
-0.00145991
-0.00255674
-0.00351503
-0.00433604
-0.005021
-0.00557104
-0.00598746
-0.00627199
-0.00642674
-0.00645379
-0.00635505
-0.00613242
-0.00578806
-0.00532438
-0.00474389
-0.00404918
-0.00324281
-0.00232761
-0.00130684
-0.000184059
0.00103685
0.00235202
0.00375755
0.00524943
0.00682353
0.00847542
0.0102005
0.011994
0.0138516
0.0157683
0.0177389
0.0197581
0.0218197
0.0239176
0.0260458
0.0281984
0.0303694
0.0325526
0.0347418
0.0369303
0.0391111
0.0412779
0.043424
0.0455425
0.0476263
0.0496683
0.0516614
0.0535988
0.0554739
0.0572804
0.0590123
0.0606628
0.0622254
0.0636937
0.0650615
0.0663233
0.0674736
0.0685077
0.0694209
0.0702088
0.070867
0.0713918
0.0717803
0.0720299
0.0721381
0.0721028
0.0719219
0.0715941
0.0711186
0.0704953
0.0697245
0.0688073
0.0677448
0.0665384
0.0651895
0.0636995
0.0620701
0.0603032
0.0584012
0.0563667
0.0542023
0.0519092
0.0494888
0.0469602
0.0443397
0.0413918
0.0379167
0.0270083
0.0232705
0.0201321
0.0173764
0.0147454
0.0122539
0.00991923
0.00773929
0.00571156
0.00383498
0.00210856
0.000531304
-0.000897857
-0.00218012
-0.00331683
-0.00430945
-0.00515945
-0.00586821
-0.0064372
-0.00686829
-0.00716369
-0.00732566
-0.00735632
-0.00725778
-0.00703238
-0.00668272
-0.00621146
-0.00562118
-0.00491449
-0.00409412
-0.00316316
-0.00212513
-0.000983744
0.000257161
0.00159377
0.00302219
0.00453823
0.00613755
0.00781559
0.00956771
0.0113894
0.0132762
0.0152232
0.0172251
0.0192763
0.0213707
0.0235023
0.0256652
0.0278536
0.0300612
0.0322818
0.0345089
0.0367358
0.0389559
0.0411627
0.0433494
0.0455091
0.0476343
0.0497179
0.0517527
0.0537318
0.0556485
0.0574965
0.0592693
0.06096
0.0625617
0.064068
0.0654726
0.0667699
0.067954
0.0690196
0.0699619
0.070776
0.0714574
0.072002
0.0724067
0.0726685
0.0727848
0.0727529
0.0725705
0.0722358
0.0717478
0.0711059
0.0703104
0.0693619
0.0682613
0.0670097
0.0656082
0.0640582
0.0623611
0.0605188
0.0585335
0.0564079
0.0541444
0.0517441
0.0492085
0.0465577
0.043809
0.0407157
0.0370686
0.0273429
0.0234382
0.0201608
0.0172844
0.0145396
0.0119418
0.0095094
0.00723981
0.00513027
0.00317954
0.00138651
-0.000250075
-0.00173171
-0.00306007
-0.00423685
-0.00526367
-0.00614217
-0.0068741
-0.00746149
-0.00790664
-0.00821193
-0.00837967
-0.00841219
-0.00831205
-0.00808206
-0.00772509
-0.00724387
-0.00664103
-0.00591936
-0.00508189
-0.004132
-0.00307332
-0.0019096
-0.000644625
0.000717757
0.0021735
0.00371823
0.00534743
0.0070565
0.00884088
0.0106961
0.0126177
0.0146006
0.0166393
0.0187282
0.0208614
0.0230329
0.0252369
0.0274673
0.0297179
0.0319822
0.0342536
0.0365256
0.0387916
0.0410451
0.0432791
0.0454865
0.0476597
0.0497914
0.0518745
0.0539019
0.0558669
0.0577627
0.0595826
0.0613194
0.0629662
0.0645163
0.0659635
0.0673017
0.0685248
0.0696271
0.0706032
0.0714479
0.0721566
0.0727251
0.0731497
0.0734272
0.0735545
0.0735286
0.0733469
0.0730074
0.0725085
0.0718496
0.0710305
0.0700516
0.0689134
0.0676167
0.0661626
0.0645521
0.0627867
0.0608682
0.0587988
0.0565811
0.0542173
0.0517087
0.0490567
0.0462825
0.0434045
0.0401646
0.0363439
0.0275132
0.0234412
0.0200243
0.017027
0.0141682
0.011464
0.00893339
0.00657374
0.00438212
0.00235713
0.000497428
-0.00119861
-0.00273286
-0.00410732
-0.00532387
-0.00638431
-0.00729062
-0.00804509
-0.00865017
-0.00910834
-0.00942205
-0.00959379
-0.00962636
-0.0095228
-0.00928622
-0.00891958
-0.00842568
-0.00780734
-0.00706767
-0.00620998
-0.00523783
-0.00415491
-0.0029649
-0.00167166
-0.00027916
0.00120833
0.00278626
0.00445008
0.00619521
0.00801711
0.00991133
0.0118732
0.0138974
0.0159786
0.0181111
0.0202891
0.0225067
0.024758
0.0270369
0.0293367
0.031651
0.0339733
0.0362971
0.0386158
0.0409227
0.0432108
0.0454725
0.0477004
0.049887
0.0520252
0.0541078
0.0561276
0.0580776
0.0599509
0.0617402
0.0634383
0.0650385
0.0665341
0.0679189
0.0691865
0.0703307
0.0713456
0.0722259
0.0729665
0.0735631
0.0740116
0.0743085
0.0744502
0.0744334
0.0742551
0.073913
0.0734054
0.0727314
0.0718903
0.0708821
0.0697071
0.0683658
0.0668592
0.0651881
0.0633541
0.0613589
0.0592046
0.0568938
0.0544288
0.0518107
0.0490409
0.0461419
0.0431332
0.039745
0.0357488
0.0275112
0.0232714
0.0197146
0.016596
0.0136228
0.0108117
0.00818252
0.00573256
0.00345877
0.00135953
-0.0005669
-0.00232246
-0.00390924
-0.00532939
-0.00658501
-0.0076783
-0.00861173
-0.00938795
-0.0100096
-0.0104792
-0.0107995
-0.0109735
-0.0110043
-0.0108953
-0.0106497
-0.0102707
-0.00976124
-0.00912441
-0.00836366
-0.00748249
-0.00648454
-0.00537351
-0.00415313
-0.00282737
-0.00140043
0.000123221
0.00173898
0.0034423
0.00522865
0.00709341
0.00903198
0.0110395
0.0131107
0.01524
0.017422
0.019651
0.021921
0.0242259
0.0265593
0.0289148
0.0312857
0.0336656
0.036048
0.0384262
0.0407933
0.043142
0.0454649
0.0477543
0.0500028
0.0522031
0.0543476
0.056429
0.05844
0.0603733
0.0622216
0.0639775
0.065634
0.0671844
0.0686218
0.0699396
0.0711312
0.0721904
0.0731114
0.073889
0.0745183
0.0749952
0.0753156
0.0754754
0.075471
0.0752991
0.0749572
0.0744435
0.0737565
0.0728953
0.0718593
0.0706487
0.0692636
0.0677048
0.0659733
0.0640706
0.0619983
0.0597586
0.0573539
0.0547865
0.0520575
0.0491686
0.0461432