/*--------------------------------*- C++ -*----------------------------------*\
  =========                 |
  \\      /  F ield         | OpenFOAM: The Open Source CFD Toolbox
   \\    /   O peration     | Website:  https://openfoam.org
    \\  /    A nd           | Version:  11
     \\/     M anipulation  |
\*---------------------------------------------------------------------------*/
FoamFile
{
    format      ascii;
    class       volVectorField;
    location    "6.8";
    object      U;
}
// * * * * * * * * * * * * * * * * * * * * * * * * * * * * * * * * * * * * * //

dimensions      [0 1 -1 0 0 0 0];

internalField   nonuniform List<vector> 
10100
(
(2.79936e-06 -3.12031e-06 0)
(1.48107e-05 -8.4094e-06 0)
(3.46006e-05 -9.94678e-06 0)
(5.37285e-05 -8.61938e-06 0)
(6.66124e-05 -5.88673e-06 0)
(7.06871e-05 -2.55835e-06 0)
(6.48057e-05 9.5194e-07 0)
(4.85086e-05 4.45608e-06 0)
(2.17561e-05 7.84805e-06 0)
(-1.52377e-05 1.10851e-05 0)
(-6.20565e-05 1.41408e-05 0)
(-0.000118192 1.69745e-05 0)
(-0.000183078 1.95866e-05 0)
(-0.000256056 2.19779e-05 0)
(-0.000336496 2.41455e-05 0)
(-0.000423719 2.60931e-05 0)
(-0.000517026 2.78251e-05 0)
(-0.000615755 2.93426e-05 0)
(-0.00071922 3.06481e-05 0)
(-0.000826749 3.17531e-05 0)
(-0.000937688 3.26635e-05 0)
(-0.0010514 3.33815e-05 0)
(-0.00116724 3.39119e-05 0)
(-0.00128461 3.42645e-05 0)
(-0.00140292 3.4448e-05 0)
(-0.00152159 3.44637e-05 0)
(-0.00164006 3.43184e-05 0)
(-0.00175782 3.40238e-05 0)
(-0.00187433 3.35855e-05 0)
(-0.00198912 3.30084e-05 0)
(-0.00210171 3.22989e-05 0)
(-0.00221164 3.14633e-05 0)
(-0.00231849 3.05068e-05 0)
(-0.00242183 2.94325e-05 0)
(-0.00252129 2.8246e-05 0)
(-0.00261648 2.6955e-05 0)
(-0.00270705 2.55678e-05 0)
(-0.00279267 2.40902e-05 0)
(-0.00287304 2.2526e-05 0)
(-0.00294787 2.08809e-05 0)
(-0.00301689 1.91637e-05 0)
(-0.00307986 1.73815e-05 0)
(-0.00313655 1.5538e-05 0)
(-0.00318675 1.36366e-05 0)
(-0.0032303 1.16832e-05 0)
(-0.00326702 9.68642e-06 0)
(-0.00329678 7.65469e-06 0)
(-0.00331946 5.59378e-06 0)
(-0.00333498 3.50891e-06 0)
(-0.00334326 1.40693e-06 0)
(-0.00334427 -7.05448e-07 0)
(-0.00333798 -2.82189e-06 0)
(-0.00332438 -4.93498e-06 0)
(-0.00330352 -7.03736e-06 0)
(-0.00327544 -9.12242e-06 0)
(-0.00324022 -1.11831e-05 0)
(-0.00319797 -1.32117e-05 0)
(-0.0031488 -1.52005e-05 0)
(-0.00309288 -1.71416e-05 0)
(-0.00303039 -1.90267e-05 0)
(-0.00296154 -2.08471e-05 0)
(-0.00288657 -2.25947e-05 0)
(-0.00280573 -2.42623e-05 0)
(-0.00271934 -2.58427e-05 0)
(-0.00262769 -2.73273e-05 0)
(-0.00253114 -2.87067e-05 0)
(-0.00243007 -2.99725e-05 0)
(-0.00232487 -3.11173e-05 0)
(-0.00221597 -3.21342e-05 0)
(-0.00210383 -3.30165e-05 0)
(-0.0019889 -3.37574e-05 0)
(-0.00187171 -3.43495e-05 0)
(-0.00175276 -3.47854e-05 0)
(-0.0016326 -3.50585e-05 0)
(-0.0015118 -3.51624e-05 0)
(-0.00139094 -3.50908e-05 0)
(-0.00127063 -3.48375e-05 0)
(-0.00115148 -3.43971e-05 0)
(-0.00103414 -3.37644e-05 0)
(-0.000919263 -3.29339e-05 0)
(-0.000807503 -3.19014e-05 0)
(-0.000699536 -3.06636e-05 0)
(-0.000596041 -2.92179e-05 0)
(-0.000497699 -2.75623e-05 0)
(-0.000405185 -2.56964e-05 0)
(-0.000319168 -2.36213e-05 0)
(-0.000240303 -2.13388e-05 0)
(-0.000169223 -1.88529e-05 0)
(-0.000106528 -1.61703e-05 0)
(-5.27734e-05 -1.33025e-05 0)
(-8.44825e-06 -1.02673e-05 0)
(2.60517e-05 -7.0915e-06 0)
(5.04634e-05 -3.81747e-06 0)
(6.47194e-05 -5.16782e-07 0)
(6.90482e-05 2.68945e-06 0)
(6.41265e-05 5.59622e-06 0)
(5.12955e-05 7.85167e-06 0)
(3.3018e-05 8.82915e-06 0)
(1.42127e-05 7.46189e-06 0)
(2.76473e-06 2.76956e-06 0)
(6.62682e-06 -1.42917e-05 0)
(2.90867e-05 -3.15954e-05 0)
(6.04225e-05 -3.50896e-05 0)
(8.6589e-05 -2.7492e-05 0)
(9.75753e-05 -1.32318e-05 0)
(8.74934e-05 4.58415e-06 0)
(5.30134e-05 2.41645e-05 0)
(-7.63612e-06 4.43422e-05 0)
(-9.51305e-05 6.44284e-05 0)
(-0.000209307 8.39906e-05 0)
(-0.000349487 0.000102723 0)
(-0.000514591 0.000120431 0)
(-0.000703267 0.000136981 0)
(-0.00091402 0.000152294 0)
(-0.00114517 0.000166306 0)
(-0.00139498 0.000179008 0)
(-0.00166169 0.000190374 0)
(-0.00194344 0.000200407 0)
(-0.00223843 0.000209116 0)
(-0.00254482 0.00021652 0)
(-0.00286082 0.000222642 0)
(-0.00318463 0.000227508 0)
(-0.00351452 0.000231152 0)
(-0.00384877 0.000233606 0)
(-0.00418571 0.000234906 0)
(-0.00452374 0.00023509 0)
(-0.00486127 0.000234195 0)
(-0.00519679 0.000232264 0)
(-0.00552883 0.000229335 0)
(-0.005856 0.000225446 0)
(-0.00617692 0.000220639 0)
(-0.00649031 0.000214954 0)
(-0.00679492 0.000208429 0)
(-0.00708958 0.000201102 0)
(-0.00737314 0.000193014 0)
(-0.00764456 0.000184207 0)
(-0.00790281 0.000174727 0)
(-0.00814696 0.000164611 0)
(-0.0083761 0.000153902 0)
(-0.00858943 0.000142643 0)
(-0.00878617 0.000130876 0)
(-0.00896562 0.000118645 0)
(-0.00912713 0.000105989 0)
(-0.00927012 9.29483e-05 0)
(-0.00939408 7.95679e-05 0)
(-0.00949855 6.58925e-05 0)
(-0.00958314 5.19684e-05 0)
(-0.00964752 3.78421e-05 0)
(-0.00969144 2.35584e-05 0)
(-0.0097147 9.16286e-06 0)
(-0.00971718 -5.29753e-06 0)
(-0.00969883 -1.97758e-05 0)
(-0.00965966 -3.42236e-05 0)
(-0.00959976 -4.85912e-05 0)
(-0.00951927 -6.28289e-05 0)
(-0.00941844 -7.68862e-05 0)
(-0.00929757 -9.0712e-05 0)
(-0.00915702 -0.000104255 0)
(-0.00899725 -0.000117462 0)
(-0.00881881 -0.000130278 0)
(-0.00862228 -0.000142647 0)
(-0.00840835 -0.000154517 0)
(-0.00817777 -0.000165835 0)
(-0.0079314 -0.000176548 0)
(-0.00767013 -0.000186601 0)
(-0.00739497 -0.000195938 0)
(-0.00710697 -0.000204506 0)
(-0.00680728 -0.000212253 0)
(-0.0064971 -0.000219131 0)
(-0.00617772 -0.000225091 0)
(-0.00585049 -0.000230088 0)
(-0.00551682 -0.000234074 0)
(-0.0051782 -0.000237002 0)
(-0.00483617 -0.000238829 0)
(-0.00449233 -0.000239517 0)
(-0.00414832 -0.000239026 0)
(-0.00380585 -0.000237324 0)
(-0.00346666 -0.000234377 0)
(-0.00313254 -0.000230157 0)
(-0.0028053 -0.000224637 0)
(-0.00248678 -0.0002178 0)
(-0.00217882 -0.000209633 0)
(-0.00188329 -0.00020013 0)
(-0.00160204 -0.000189296 0)
(-0.0013369 -0.000177143 0)
(-0.00108964 -0.000163696 0)
(-0.000862007 -0.000148993 0)
(-0.000655629 -0.000133093 0)
(-0.000472027 -0.00011608 0)
(-0.000312557 -9.8072e-05 0)
(-0.000178348 -7.92346e-05 0)
(-7.02203e-05 -5.9802e-05 0)
(1.14197e-05 -4.01091e-05 0)
(6.67399e-05 -2.06437e-05 0)
(9.67047e-05 -2.1301e-06 0)
(0.000103382 1.43459e-05 0)
(9.029e-05 2.71515e-05 0)
(6.29588e-05 3.38178e-05 0)
(3.07127e-05 3.07483e-05 0)
(7.43045e-06 1.41985e-05 0)
(7.34224e-06 -3.1251e-05 0)
(2.95378e-05 -6.12131e-05 0)
(5.56825e-05 -6.27161e-05 0)
(6.98903e-05 -4.10683e-05 0)
(6.03878e-05 -4.18075e-06 0)
(1.97016e-05 4.19494e-05 0)
(-5.69148e-05 9.31583e-05 0)
(-0.000172279 0.000146662 0)
(-0.000327619 0.000200559 0)
(-0.000523088 0.000253534 0)
(-0.000757906 0.000304688 0)
(-0.00103069 0.000353384 0)
(-0.00133964 0.000399171 0)
(-0.00168255 0.000441742 0)
(-0.00205703 0.000480906 0)
(-0.00246051 0.00051651 0)
(-0.00289029 0.000548492 0)
(-0.00334361 0.000576815 0)
(-0.00381766 0.00060147 0)
(-0.00430962 0.000622487 0)
(-0.0048167 0.000639912 0)
(-0.00533612 0.000653799 0)
(-0.00586511 0.000664223 0)
(-0.00640101 0.000671274 0)
(-0.00694116 0.000675037 0)
(-0.007483 0.000675608 0)
(-0.00802404 0.000673095 0)
(-0.00856186 0.000667602 0)
(-0.0090941 0.000659236 0)
(-0.00961853 0.000648106 0)
(-0.010133 0.000634326 0)
(-0.0106353 0.000618009 0)
(-0.0111236 0.000599268 0)
(-0.011596 0.000578218 0)
(-0.0120505 0.000554975 0)
(-0.0124856 0.000529659 0)
(-0.0128996 0.00050239 0)
(-0.0132909 0.000473289 0)
(-0.0136582 0.000442474 0)
(-0.0140001 0.000410067 0)
(-0.0143153 0.000376192 0)
(-0.0146029 0.000340971 0)
(-0.0148616 0.000304525 0)
(-0.0150906 0.000266978 0)
(-0.0152891 0.000228455 0)
(-0.0154563 0.000189089 0)
(-0.0155916 0.000149009 0)
(-0.0156944 0.000108344 0)
(-0.0157645 6.72302e-05 0)
(-0.0158014 2.58012e-05 0)
(-0.015805 -1.5807e-05 0)
(-0.0157751 -5.74571e-05 0)
(-0.0157119 -9.90098e-05 0)
(-0.0156155 -0.000140322 0)
(-0.0154861 -0.000181249 0)
(-0.015324 -0.000221644 0)
(-0.0151299 -0.000261362 0)
(-0.0149043 -0.000300251 0)
(-0.0146479 -0.000338161 0)
(-0.0143616 -0.000374937 0)
(-0.0140464 -0.000410425 0)
(-0.0137034 -0.000444471 0)
(-0.0133337 -0.000476922 0)
(-0.0129388 -0.000507625 0)
(-0.0125201 -0.000536427 0)
(-0.0120792 -0.000563173 0)
(-0.0116177 -0.000587714 0)
(-0.0111376 -0.000609903 0)
(-0.0106407 -0.000629597 0)
(-0.0101292 -0.000646659 0)
(-0.00960503 -0.000660956 0)
(-0.00907061 -0.000672356 0)
(-0.00852827 -0.000680732 0)
(-0.00798044 -0.000685965 0)
(-0.00742966 -0.000687945 0)
(-0.00687857 -0.000686572 0)
(-0.00632984 -0.000681752 0)
(-0.00578624 -0.000673403 0)
(-0.00525056 -0.000661453 0)
(-0.00472567 -0.000645845 0)
(-0.00421443 -0.000626538 0)
(-0.00371973 -0.000603511 0)
(-0.00324445 -0.000576767 0)
(-0.00279146 -0.000546336 0)
(-0.00236355 -0.000512277 0)
(-0.00196345 -0.000474685 0)
(-0.00159376 -0.000433707 0)
(-0.00125693 -0.000389545 0)
(-0.000955181 -0.000342483 0)
(-0.000690451 -0.000292904 0)
(-0.000464296 -0.000241331 0)
(-0.000277769 -0.000188476 0)
(-0.000131267 -0.000135316 0)
(-2.43285e-05 -8.32023e-05 0)
(4.46471e-05 -3.40211e-05 0)
(7.87349e-05 9.58729e-06 0)
(8.28227e-05 4.39369e-05 0)
(6.4079e-05 6.39683e-05 0)
(3.38183e-05 6.29846e-05 0)
(8.78853e-06 3.29552e-05 0)
(6.29944e-06 -4.66445e-05 0)
(2.18534e-05 -8.36947e-05 0)
(3.26224e-05 -7.58215e-05 0)
(2.27251e-05 -3.18769e-05 0)
(-1.97095e-05 3.70514e-05 0)
(-0.000102784 0.00012192 0)
(-0.000231934 0.000216183 0)
(-0.000410454 0.000315103 0)
(-0.000640034 0.000415269 0)
(-0.000920929 0.000514239 0)
(-0.00125238 0.000610264 0)
(-0.00163282 0.000702046 0)
(-0.00206006 0.000788681 0)
(-0.00253145 0.000869504 0)
(-0.00304399 0.000944052 0)
(-0.00359442 0.00101201 0)
(-0.00417932 0.00107319 0)
(-0.00479512 0.00112747 0)
(-0.0054382 0.00117481 0)
(-0.00610488 0.00121523 0)
(-0.00679148 0.00124878 0)
(-0.00749435 0.00127555 0)
(-0.00820985 0.00129567 0)
(-0.00893442 0.00130927 0)
(-0.00966456 0.00131651 0)
(-0.0103968 0.00131758 0)
(-0.0111279 0.00131265 0)
(-0.0118545 0.00130193 0)
(-0.0125736 0.00128562 0)
(-0.013282 0.00126393 0)
(-0.0139769 0.00123707 0)
(-0.0146555 0.00120525 0)
(-0.015315 0.00116871 0)
(-0.015953 0.00112765 0)
(-0.0165669 0.00108232 0)
(-0.0171545 0.00103294 0)
(-0.0177135 0.000979735 0)
(-0.018242 0.000922949 0)
(-0.018738 0.000862814 0)
(-0.0191996 0.00079957 0)
(-0.0196252 0.000733454 0)
(-0.0200134 0.000664704 0)
(-0.0203626 0.000593563 0)
(-0.0206717 0.000520276 0)
(-0.0209394 0.000445094 0)
(-0.0211649 0.000368266 0)
(-0.0213473 0.000290047 0)
(-0.0214859 0.000210694 0)
(-0.0215801 0.00013047 0)
(-0.0216296 4.96375e-05 0)
(-0.0216341 -3.15352e-05 0)
(-0.0215934 -0.000112778 0)
(-0.0215076 -0.000193816 0)
(-0.021377 -0.000274373 0)
(-0.0212018 -0.000354164 0)
(-0.0209827 -0.000432905 0)
(-0.0207202 -0.000510308 0)
(-0.0204153 -0.000586081 0)
(-0.0200688 -0.000659929 0)
(-0.019682 -0.000731555 0)
(-0.0192562 -0.00080066 0)
(-0.0187929 -0.000866947 0)
(-0.0182937 -0.000930116 0)
(-0.0177605 -0.000989872 0)
(-0.0171952 -0.00104592 0)
(-0.0166 -0.00109796 0)
(-0.0159771 -0.00114571 0)
(-0.015329 -0.00118889 0)
(-0.0146583 -0.00122721 0)
(-0.0139679 -0.00126042 0)
(-0.0132604 -0.00128824 0)
(-0.012539 -0.00131045 0)
(-0.0118069 -0.00132678 0)
(-0.0110673 -0.00133703 0)
(-0.0103237 -0.00134099 0)
(-0.00957941 -0.00133845 0)
(-0.00883814 -0.00132926 0)
(-0.00810353 -0.00131327 0)
(-0.0073793 -0.00129035 0)
(-0.00666921 -0.00126041 0)
(-0.00597707 -0.0012234 0)
(-0.00530667 -0.00117928 0)
(-0.00466178 -0.0011281 0)
(-0.00404614 -0.00106992 0)
(-0.00346337 -0.00100491 0)
(-0.00291699 -0.000933269 0)
(-0.00241033 -0.000855331 0)
(-0.00194649 -0.00077153 0)
(-0.00152824 -0.000682457 0)
(-0.00115798 -0.0005889 0)
(-0.000837564 -0.000491904 0)
(-0.000568205 -0.000392859 0)
(-0.000350278 -0.000293616 0)
(-0.000183107 -0.00019665 0)
(-6.46892e-05 -0.00010528 0)
(8.62694e-06 -2.39639e-05 0)
(4.24422e-05 4.13461e-05 0)
(4.47121e-05 8.28391e-05 0)
(2.74151e-05 9.04967e-05 0)
(7.8539e-06 5.12479e-05 0)
(4.23273e-06 -5.64562e-05 0)
(9.05321e-06 -9.08416e-05 0)
(-2.76729e-06 -6.42189e-05 0)
(-4.52973e-05 1.11908e-05 0)
(-0.000129687 0.000121233 0)
(-0.000263957 0.000254154 0)
(-0.00045358 0.000401051 0)
(-0.000702095 0.000555237 0)
(-0.00101121 0.000711719 0)
(-0.00138127 0.000866804 0)
(-0.00181144 0.0010177 0)
(-0.00229995 0.00116237 0)
(-0.00284435 0.00129927 0)
(-0.00344158 0.00142731 0)
(-0.00408817 0.00154565 0)
(-0.00478029 0.00165375 0)
(-0.0055139 0.00175122 0)
(-0.00628476 0.00183782 0)
(-0.00708854 0.00191344 0)
(-0.00792083 0.00197807 0)
(-0.00877718 0.00203174 0)
(-0.00965315 0.00207458 0)
(-0.0105443 0.00210675 0)
(-0.0114464 0.00212845 0)
(-0.012355 0.00213993 0)
(-0.013266 0.00214144 0)
(-0.0141754 0.00213327 0)
(-0.015079 0.00211573 0)
(-0.015973 0.00208913 0)
(-0.0168537 0.00205382 0)
(-0.0177175 0.00201012 0)
(-0.0185609 0.00195838 0)
(-0.0193806 0.00189896 0)
(-0.0201735 0.00183222 0)
(-0.0209364 0.00175852 0)
(-0.0216665 0.00167825 0)
(-0.0223612 0.00159176 0)
(-0.0230178 0.00149944 0)
(-0.0236339 0.00140168 0)
(-0.0242074 0.00129886 0)
(-0.0247361 0.00119137 0)
(-0.0252182 0.00107959 0)
(-0.0256519 0.000963933 0)
(-0.0260356 0.00084479 0)
(-0.026368 0.000722568 0)
(-0.0266479 0.000597678 0)
(-0.0268742 0.000470535 0)
(-0.027046 0.000341557 0)
(-0.0271627 0.000211171 0)
(-0.0272238 7.98088e-05 0)
(-0.027229 -5.20945e-05 0)
(-0.0271781 -0.000184098 0)
(-0.0270712 -0.000315754 0)
(-0.0269085 -0.000446609 0)
(-0.0266906 -0.000576204 0)
(-0.026418 -0.000704075 0)
(-0.0260917 -0.000829754 0)
(-0.0257126 -0.000952768 0)
(-0.025282 -0.00107264 0)
(-0.0248013 -0.00118889 0)
(-0.0242723 -0.00130103 0)
(-0.0236967 -0.00140859 0)
(-0.0230765 -0.00151108 0)
(-0.0224141 -0.00160802 0)
(-0.021712 -0.00169894 0)
(-0.0209726 -0.00178337 0)
(-0.020199 -0.00186083 0)
(-0.0193941 -0.00193088 0)
(-0.0185611 -0.00199308 0)
(-0.0177034 -0.00204698 0)
(-0.0168246 -0.00209219 0)
(-0.0159285 -0.00212831 0)
(-0.0150189 -0.00215495 0)
(-0.0140998 -0.00217176 0)
(-0.0131755 -0.00217842 0)
(-0.0122502 -0.00217464 0)
(-0.0113282 -0.00216015 0)
(-0.0104142 -0.00213474 0)
(-0.0095125 -0.00209821 0)
(-0.00862783 -0.00205046 0)
(-0.00776478 -0.0019914 0)
(-0.00692793 -0.00192103 0)
(-0.00612184 -0.00183943 0)
(-0.00535099 -0.00174677 0)
(-0.00461974 -0.00164332 0)
(-0.00393226 -0.00152948 0)
(-0.00329249 -0.00140581 0)
(-0.00270409 -0.00127307 0)
(-0.00217028 -0.00113224 0)
(-0.00169383 -0.000984643 0)
(-0.00127686 -0.000831963 0)
(-0.00092073 -0.000676405 0)
(-0.000625842 -0.000520839 0)
(-0.000391447 -0.000368994 0)
(-0.000215383 -0.000225731 0)
(-9.37925e-05 -9.73782e-05 0)
(-2.08578e-05 7.85855e-06 0)
(1.15684e-05 7.94886e-05 0)
(1.51151e-05 0.00010424 0)
(5.69741e-06 6.4297e-05 0)
(1.58686e-06 -5.86382e-05 0)
(-6.9941e-06 -7.80368e-05 0)
(-4.62829e-05 -2.16952e-05 0)
(-0.000127526 9.51776e-05 0)
(-0.00026036 0.00025574 0)
(-0.000452288 0.000445838 0)
(-0.000708522 0.000654347 0)
(-0.00103231 0.000872751 0)
(-0.0014253 0.00109448 0)
(-0.00188767 0.00131451 0)
(-0.00241844 0.00152901 0)
(-0.00301565 0.00173503 0)
(-0.00367654 0.00193038 0)
(-0.00439771 0.00211339 0)
(-0.00517527 0.00228283 0)
(-0.00600491 0.00243782 0)
(-0.00688206 0.00257773 0)
(-0.00780191 0.00270219 0)
(-0.00875948 0.00281094 0)
(-0.00974973 0.00290392 0)
(-0.0107676 0.00298116 0)
(-0.0118078 0.00304277 0)
(-0.0128654 0.00308897 0)
(-0.0139353 0.00312001 0)
(-0.0150125 0.00313622 0)
(-0.0160921 0.00313796 0)
(-0.0171694 0.00312561 0)
(-0.0182396 0.00309962 0)
(-0.0192982 0.00306043 0)
(-0.0203409 0.0030085 0)
(-0.0213634 0.00294433 0)
(-0.0223617 0.00286842 0)
(-0.0233317 0.00278128 0)
(-0.0242699 0.00268343 0)
(-0.0251725 0.00257541 0)
(-0.0260363 0.00245775 0)
(-0.0268581 0.002331 0)
(-0.0276348 0.00219572 0)
(-0.0283635 0.00205246 0)
(-0.0290418 0.00190179 0)
(-0.029667 0.00174427 0)
(-0.030237 0.00158049 0)
(-0.0307498 0.00141103 0)
(-0.0312035 0.00123646 0)
(-0.0315964 0.0010574 0)
(-0.0319271 0.000874438 0)
(-0.0321944 0.000688182 0)
(-0.0323974 0.000499253 0)
(-0.0325351 0.000308276 0)
(-0.032607 0.000115882 0)
(-0.0326127 -7.72876e-05 0)
(-0.0325522 -0.000270587 0)
(-0.0324254 -0.00046336 0)
(-0.0322328 -0.00065494 0)
(-0.0319748 -0.000844655 0)
(-0.0316522 -0.00103183 0)
(-0.031266 -0.00121577 0)
(-0.0308175 -0.00139579 0)
(-0.0303081 -0.0015712 0)
(-0.0297395 -0.00174129 0)
(-0.0291138 -0.00190537 0)
(-0.028433 -0.00206272 0)
(-0.0276996 -0.00221265 0)
(-0.0269163 -0.00235446 0)
(-0.0260859 -0.00248747 0)
(-0.0252116 -0.00261098 0)
(-0.0242967 -0.00272432 0)
(-0.0233447 -0.00282685 0)
(-0.0223595 -0.00291791 0)
(-0.0213451 -0.00299689 0)
(-0.0203055 -0.00306319 0)
(-0.0192453 -0.00311624 0)
(-0.0181689 -0.0031555 0)
(-0.0170811 -0.00318048 0)
(-0.0159867 -0.00319071 0)
(-0.0148908 -0.00318578 0)
(-0.0137984 -0.00316533 0)
(-0.0127147 -0.00312906 0)
(-0.0116451 -0.00307673 0)
(-0.0105949 -0.00300819 0)
(-0.00956929 -0.00292336 0)
(-0.00857371 -0.00282228 0)
(-0.00761335 -0.00270509 0)
(-0.00669337 -0.00257209 0)
(-0.00581874 -0.0024237 0)
(-0.00499421 -0.00226057 0)
(-0.00422428 -0.00208355 0)
(-0.00351304 -0.00189379 0)
(-0.00286415 -0.00169276 0)
(-0.0022807 -0.00148237 0)
(-0.00176506 -0.00126505 0)
(-0.00131878 -0.00104391 0)
(-0.00094239 -0.000822914 0)
(-0.000635214 -0.000607108 0)
(-0.000395158 -0.00040291 0)
(-0.000218475 -0.000218482 0)
(-9.95172e-05 -6.41729e-05 0)
(-3.0411e-05 4.70356e-05 0)
(-6.52196e-07 9.89281e-05 0)
(2.93869e-06 6.97686e-05 0)
(-1.35874e-06 -5.19438e-05 0)
(-2.48822e-05 -4.21107e-05 0)
(-9.48583e-05 5.61446e-05 0)
(-0.000218882 0.000225188 0)
(-0.000404702 0.000446033 0)
(-0.000658996 0.000702314 0)
(-0.000986301 0.000981062 0)
(-0.00138943 0.00127199 0)
(-0.00186966 0.00156705 0)
(-0.0024269 0.0018599 0)
(-0.0030599 0.00214563 0)
(-0.00376644 0.0024204 0)
(-0.00454343 0.00268126 0)
(-0.00538716 0.00292595 0)
(-0.00629332 0.00315276 0)
(-0.00725719 0.00336045 0)
(-0.0082737 0.0035481 0)
(-0.00933754 0.00371512 0)
(-0.0104432 0.00386115 0)
(-0.011585 0.00398601 0)
(-0.0127574 0.00408968 0)
(-0.0139545 0.00417231 0)
(-0.0151706 0.0042341 0)
(-0.0164 0.0042754 0)
(-0.0176372 0.00429659 0)
(-0.0188767 0.00429814 0)
(-0.0201129 0.00428057 0)
(-0.0213407 0.00424442 0)
(-0.0225549 0.00419031 0)
(-0.0237505 0.00411886 0)
(-0.0249227 0.0040307 0)
(-0.0260669 0.00392653 0)
(-0.0271787 0.00380702 0)
(-0.0282537 0.0036729 0)
(-0.029288 0.00352487 0)
(-0.0302776 0.00336368 0)
(-0.0312189 0.00319006 0)
(-0.0321085 0.00300477 0)
(-0.0329432 0.00280857 0)
(-0.0337199 0.00260224 0)
(-0.0344358 0.00238656 0)
(-0.0350885 0.0021623 0)
(-0.0356755 0.00193028 0)
(-0.0361949 0.00169129 0)
(-0.0366446 0.00144616 0)
(-0.037023 0.00119569 0)
(-0.0373289 0.000940744 0)
(-0.037561 0.000682151 0)
(-0.0377184 0.000420772 0)
(-0.0378004 0.000157473 0)
(-0.0378068 -0.00010687 0)
(-0.0377372 -0.00037137 0)
(-0.0375918 -0.000635126 0)
(-0.037371 -0.00089723 0)
(-0.0370753 -0.00115676 0)
(-0.0367057 -0.00141279 0)
(-0.0362634 -0.00166439 0)
(-0.0357497 -0.00191061 0)
(-0.0351663 -0.0021505 0)
(-0.0345152 -0.00238311 0)
(-0.0337987 -0.00260747 0)
(-0.0330191 -0.00282265 0)
(-0.0321793 -0.00302768 0)
(-0.0312823 -0.00322161 0)
(-0.0303315 -0.00340352 0)
(-0.0293302 -0.00357247 0)
(-0.0282825 -0.00372755 0)
(-0.0271922 -0.00386787 0)
(-0.0260637 -0.00399258 0)
(-0.0249016 -0.00410082 0)
(-0.0237105 -0.00419181 0)
(-0.0224955 -0.00426477 0)
(-0.0212616 -0.00431899 0)
(-0.0200143 -0.0043538 0)
(-0.0187591 -0.00436859 0)
(-0.0175015 -0.00436283 0)
(-0.0162474 -0.00433604 0)
(-0.0150026 -0.00428783 0)
(-0.0137731 -0.00421793 0)
(-0.0125648 -0.00412615 0)
(-0.0113837 -0.00401242 0)
(-0.0102358 -0.00387684 0)
(-0.00912687 -0.00371965 0)
(-0.00806267 -0.00354128 0)
(-0.00704874 -0.00334238 0)
(-0.00609035 -0.00312385 0)
(-0.00519246 -0.0028869 0)
(-0.00435961 -0.00263312 0)
(-0.00359583 -0.00236453 0)
(-0.00290453 -0.00208369 0)
(-0.00228839 -0.00179385 0)
(-0.00174919 -0.00149905 0)
(-0.00128769 -0.00120439 0)
(-0.000903439 -0.000916211 0)
(-0.000594618 -0.000642462 0)
(-0.000357849 -0.000393032 0)
(-0.000187967 -0.000180234 0)
(-7.77387e-05 -1.92558e-05 0)
(-1.83256e-05 7.11995e-05 0)
(-8.0763e-08 6.64162e-05 0)
(-4.40286e-06 -3.57213e-05 0)
(-4.37225e-05 1.88663e-05 0)
(-0.000146271 0.00017214 0)
(-0.000315681 0.000404752 0)
(-0.000557529 0.000695858 0)
(-0.00087741 0.00102744 0)
(-0.00127901 0.00138479 0)
(-0.00176443 0.00175613 0)
(-0.00233445 0.00213197 0)
(-0.00298854 0.00250478 0)
(-0.00372507 0.00286857 0)
(-0.00454147 0.00321859 0)
(-0.00543434 0.00355113 0)
(-0.00639957 0.0038633 0)
(-0.00743248 0.00415288 0)
(-0.00852794 0.00441822 0)
(-0.00968044 0.00465811 0)
(-0.0108842 0.00487171 0)
(-0.0121332 0.00505847 0)
(-0.0134213 0.00521812 0)
(-0.0147423 0.0053506 0)
(-0.0160899 0.005456 0)
(-0.0174579 0.00553457 0)
(-0.0188398 0.00558671 0)
(-0.0202297 0.00561288 0)
(-0.0216214 0.00561365 0)
(-0.0230089 0.00558965 0)
(-0.0243864 0.0055416 0)
(-0.0257483 0.00547023 0)
(-0.0270889 0.00537635 0)
(-0.028403 0.00526078 0)
(-0.0296854 0.00512439 0)
(-0.0309312 0.00496807 0)
(-0.0321357 0.00479272 0)
(-0.0332943 0.00459928 0)
(-0.0344028 0.0043887 0)
(-0.0354571 0.00416194 0)
(-0.0364533 0.00391999 0)
(-0.0373879 0.00366383 0)
(-0.0382575 0.00339447 0)
(-0.039059 0.00311292 0)
(-0.0397896 0.00282021 0)
(-0.0404467 0.00251738 0)
(-0.0410279 0.00220549 0)
(-0.0415312 0.0018856 0)
(-0.0419547 0.00155878 0)
(-0.0422968 0.00122612 0)
(-0.0425564 0.000888738 0)
(-0.0427324 0.00054774 0)
(-0.042824 0.000204258 0)
(-0.0428309 -0.000140563 0)
(-0.0427528 -0.000485565 0)
(-0.0425899 -0.000829575 0)
(-0.0423426 -0.00117141 0)
(-0.0420116 -0.00150987 0)
(-0.0415978 -0.00184374 0)
(-0.0411026 -0.00217182 0)
(-0.0405276 -0.00249287 0)
(-0.0398745 -0.00280566 0)
(-0.0391457 -0.00310894 0)
(-0.0383436 -0.00340149 0)
(-0.037471 -0.00368206 0)
(-0.0365309 -0.00394941 0)
(-0.0355268 -0.00420233 0)
(-0.0344622 -0.00443959 0)
(-0.0333412 -0.00466 0)
(-0.032168 -0.00486239 0)
(-0.030947 -0.00504561 0)
(-0.0296831 -0.00520854 0)
(-0.0283812 -0.00535011 0)
(-0.0270466 -0.00546929 0)
(-0.0256849 -0.00556511 0)
(-0.0243017 -0.00563664 0)
(-0.0229029 -0.00568304 0)
(-0.0214947 -0.00570355 0)
(-0.0200832 -0.00569747 0)
(-0.0186748 -0.00566424 0)
(-0.017276 -0.00560339 0)
(-0.0158934 -0.00551457 0)
(-0.0145333 -0.00539758 0)
(-0.0132026 -0.0052524 0)
(-0.0119075 -0.00507917 0)
(-0.0106547 -0.00487825 0)
(-0.00945024 -0.00465025 0)
(-0.00830024 -0.00439605 0)
(-0.00721046 -0.00411688 0)
(-0.00618629 -0.00381432 0)
(-0.00523269 -0.00349044 0)
(-0.00435406 -0.00314786 0)
(-0.00355417 -0.00278982 0)
(-0.00283601 -0.00242041 0)
(-0.0022017 -0.00204462 0)
(-0.00165231 -0.00166867 0)
(-0.00118778 -0.00130018 0)
(-0.000806724 -0.0009485 0)
(-0.000506356 -0.000625124 0)
(-0.000282233 -0.000344099 0)
(-0.00012803 -0.000122483 0)
(-3.69174e-05 1.90328e-05 0)
(-3.17315e-06 5.36148e-05 0)
(-7.45677e-06 -9.70314e-06 0)
(-6.29045e-05 0.000105879 0)
(-0.000199003 0.000327995 0)
(-0.000415309 0.000635984 0)
(-0.000715064 0.00100774 0)
(-0.00110262 0.0014238 0)
(-0.00158066 0.00186809 0)
(-0.00215046 0.00232744 0)
(-0.00281207 0.00279116 0)
(-0.00356443 0.00325055 0)
(-0.00440546 0.0036986 0)
(-0.00533215 0.00412971 0)
(-0.0063407 0.00453939 0)
(-0.0074266 0.00492412 0)
(-0.00858479 0.00528117 0)
(-0.00980973 0.00560845 0)
(-0.0110955 0.0059044 0)
(-0.0124358 0.00616793 0)
(-0.0138243 0.00639833 0)
(-0.0152543 0.00659517 0)
(-0.0167191 0.00675832 0)
(-0.0182119 0.00688785 0)
(-0.019726 0.00698403 0)
(-0.0212545 0.00704729 0)
(-0.0227907 0.00707818 0)
(-0.0243282 0.00707737 0)
(-0.0258603 0.00704562 0)
(-0.0273808 0.0069838 0)
(-0.0288834 0.00689281 0)
(-0.0303622 0.00677362 0)
(-0.0318114 0.00662726 0)
(-0.0332253 0.0064548 0)
(-0.0345985 0.00625734 0)
(-0.0359259 0.00603601 0)
(-0.0372026 0.00579198 0)
(-0.0384238 0.00552642 0)
(-0.0395851 0.00524055 0)
(-0.0406824 0.0049356 0)
(-0.0417117 0.00461279 0)
(-0.0426693 0.00427341 0)
(-0.0435518 0.00391871 0)
(-0.0443562 0.00355 0)
(-0.0450796 0.00316857 0)
(-0.0457194 0.00277577 0)
(-0.0462734 0.00237292 0)
(-0.0467395 0.00196137 0)
(-0.0471161 0.00154251 0)
(-0.0474017 0.00111772 0)
(-0.0475953 0.000688413 0)
(-0.0476961 0.000256001 0)
(-0.0477036 -0.000178071 0)
(-0.0476176 -0.000612347 0)
(-0.0474383 -0.00104535 0)
(-0.047166 -0.00147559 0)
(-0.0468016 -0.00190157 0)
(-0.0463461 -0.00232177 0)
(-0.0458011 -0.00273466 0)
(-0.0451681 -0.0031387 0)
(-0.0444493 -0.00353234 0)
(-0.0436471 -0.00391403 0)
(-0.0427641 -0.00428222 0)
(-0.0418035 -0.00463536 0)
(-0.0407685 -0.00497191 0)
(-0.039663 -0.00529033 0)
(-0.0384908 -0.0055891 0)
(-0.0372563 -0.00586674 0)
(-0.0359641 -0.00612179 0)
(-0.0346191 -0.0063528 0)
(-0.0332265 -0.00655841 0)
(-0.0317918 -0.00673727 0)
(-0.0303208 -0.00688811 0)
(-0.0288194 -0.00700972 0)
(-0.0272937 -0.00710098 0)
(-0.0257504 -0.00716084 0)
(-0.0241959 -0.00718836 0)
(-0.022637 -0.00718273 0)
(-0.0210806 -0.00714324 0)
(-0.0195338 -0.00706935 0)
(-0.0180036 -0.00696066 0)
(-0.0164972 -0.00681696 0)
(-0.0150215 -0.00663825 0)
(-0.0135837 -0.00642477 0)
(-0.0121906 -0.00617701 0)
(-0.0108491 -0.00589576 0)
(-0.00956563 -0.00558219 0)
(-0.00834639 -0.00523783 0)
(-0.00719721 -0.0048647 0)
(-0.00612348 -0.00446538 0)
(-0.00512998 -0.00404308 0)
(-0.00422086 -0.00360177 0)
(-0.0033995 -0.00314634 0)
(-0.0026684 -0.00268276 0)
(-0.00202909 -0.00221831 0)
(-0.00148198 -0.00176179 0)
(-0.00102629 -0.00132389 0)
(-0.000659992 -0.000917503 0)
(-0.000379535 -0.000558166 0)
(-0.000179689 -0.000264473 0)
(-5.58139e-05 -5.86257e-05 0)
(-6.23871e-06 3.11336e-05 0)
(-1.04608e-05 2.61247e-05 0)
(-8.20512e-05 0.000219347 0)
(-0.000252057 0.000524481 0)
(-0.000515944 0.000920115 0)
(-0.000874583 0.00138316 0)
(-0.00133105 0.00189307 0)
(-0.00188687 0.00243262 0)
(-0.00254233 0.00298751 0)
(-0.00329673 0.00354594 0)
(-0.00414835 0.00409819 0)
(-0.00509452 0.0046363 0)
(-0.00613175 0.00515384 0)
(-0.00725577 0.00564559 0)
(-0.00846167 0.00610741 0)
(-0.00974395 0.00653604 0)
(-0.0110967 0.00692895 0)
(-0.0125135 0.00728425 0)
(-0.0139877 0.00760057 0)
(-0.0155124 0.00787698 0)
(-0.0170807 0.00811294 0)
(-0.0186852 0.00830821 0)
(-0.0203187 0.00846285 0)
(-0.0219741 0.00857713 0)
(-0.0236441 0.0086515 0)
(-0.0253214 0.00868661 0)
(-0.0269991 0.00868324 0)
(-0.0286701 0.00864228 0)
(-0.0303278 0.00856473 0)
(-0.0319653 0.00845169 0)
(-0.0335764 0.00830431 0)
(-0.0351546 0.00812382 0)
(-0.0366941 0.00791152 0)
(-0.0381889 0.00766872 0)
(-0.0396336 0.0073968 0)
(-0.0410228 0.00709717 0)
(-0.0423514 0.00677127 0)
(-0.0436147 0.00642056 0)
(-0.0448082 0.00604654 0)
(-0.0459275 0.00565073 0)
(-0.0469688 0.00523465 0)
(-0.0479285 0.00479988 0)
(-0.048803 0.00434799 0)
(-0.0495894 0.00388057 0)
(-0.050285 0.00339925 0)
(-0.0508871 0.00290567 0)
(-0.0513938 0.00240148 0)
(-0.0518031 0.00188836 0)
(-0.0521136 0.00136802 0)
(-0.0523241 0.000842166 0)
(-0.0524337 0.000312547 0)
(-0.0524419 -0.000219079 0)
(-0.0523485 -0.000750929 0)
(-0.0521537 -0.0012812 0)
(-0.0518579 -0.00180808 0)
(-0.051462 -0.00232972 0)
(-0.0509672 -0.00284427 0)
(-0.0503749 -0.00334987 0)
(-0.0496871 -0.00384464 0)
(-0.048906 -0.0043267 0)
(-0.0480342 -0.00479414 0)
(-0.0470746 -0.00524508 0)
(-0.0460304 -0.00567764 0)
(-0.0449054 -0.00608993 0)
(-0.0437035 -0.0064801 0)
(-0.0424289 -0.0068463 0)
(-0.0410865 -0.00718672 0)
(-0.039681 -0.00749959 0)
(-0.0382178 -0.00778317 0)
(-0.0367026 -0.0080358 0)
(-0.0351411 -0.00825585 0)
(-0.0335396 -0.00844179 0)
(-0.0319044 -0.00859217 0)
(-0.0302424 -0.00870563 0)
(-0.0285602 -0.00878094 0)
(-0.0268652 -0.00881696 0)
(-0.0251644 -0.00881273 0)
(-0.0234654 -0.00876743 0)
(-0.0217756 -0.00868042 0)
(-0.0201025 -0.00855126 0)
(-0.0184539 -0.00837974 0)
(-0.0168373 -0.00816589 0)
(-0.0152602 -0.00791004 0)
(-0.01373 -0.00761284 0)
(-0.0122539 -0.00727529 0)
(-0.010839 -0.00689881 0)
(-0.00949174 -0.00648532 0)
(-0.00821852 -0.00603725 0)
(-0.0070251 -0.0055577 0)
(-0.00591669 -0.00505049 0)
(-0.00489786 -0.00452031 0)
(-0.00397242 -0.00397286 0)
(-0.00314334 -0.00341503 0)
(-0.00241268 -0.00285508 0)
(-0.00178145 -0.00230296 0)
(-0.00124959 -0.00177051 0)
(-0.000815931 -0.00127186 0)
(-0.000477971 -0.0008238 0)
(-0.000231671 -0.000446142 0)
(-7.46419e-05 -0.000162182 0)
(-9.22627e-06 -1.02278e-06 0)
(-1.33774e-05 7.16651e-05 0)
(-0.000100952 0.000359232 0)
(-0.00030477 0.000761853 0)
(-0.000616344 0.00125763 0)
(-0.00103424 0.00182282 0)
(-0.00156015 0.00243612 0)
(-0.00219441 0.00307936 0)
(-0.00293628 0.0037373 0)
(-0.00378416 0.00439717 0)
(-0.00473558 0.00504834 0)
(-0.00578726 0.00568202 0)
(-0.00693512 0.00629097 0)
(-0.00817439 0.00686932 0)
(-0.00949969 0.00741232 0)
(-0.0109051 0.00791619 0)
(-0.0123841 0.00837797 0)
(-0.0139302 0.00879543 0)
(-0.015536 0.00916693 0)
(-0.0171944 0.00949133 0)
(-0.0188978 0.00976793 0)
(-0.0206387 0.00999642 0)
(-0.0224093 0.0101768 0)
(-0.0242021 0.0103094 0)
(-0.0260092 0.0103946 0)
(-0.0278231 0.0104332 0)
(-0.0296363 0.0104261 0)
(-0.0314414 0.0103743 0)
(-0.0332312 0.010279 0)
(-0.0349986 0.0101414 0)
(-0.0367368 0.00996293 0)
(-0.0384391 0.00974499 0)
(-0.0400991 0.00948912 0)
(-0.0417105 0.00919687 0)
(-0.0432675 0.00886987 0)
(-0.0447644 0.0085098 0)
(-0.0461958 0.00811837 0)
(-0.0475566 0.00769731 0)
(-0.048842 0.00724842 0)
(-0.0500475 0.00677349 0)
(-0.0511688 0.00627436 0)
(-0.052202 0.00575289 0)
(-0.0531435 0.00521097 0)
(-0.0539902 0.00465052 0)
(-0.0547389 0.00407345 0)
(-0.0553871 0.00348174 0)
(-0.0559326 0.00287737 0)
(-0.0563732 0.00226235 0)
(-0.0567076 0.00163871 0)
(-0.0569343 0.0010085 0)
(-0.0570524 0.000373812 0)
(-0.0570615 -0.000263252 0)
(-0.0569613 -0.000900561 0)
(-0.0567519 -0.00153596 0)
(-0.0564339 -0.00216728 0)
(-0.0560082 -0.00279233 0)
(-0.055476 -0.00340888 0)
(-0.054839 -0.00401472 0)
(-0.0540992 -0.0046076 0)
(-0.0532589 -0.00518527 0)
(-0.0523209 -0.00574549 0)
(-0.0512883 -0.00628599 0)
(-0.0501647 -0.00680452 0)
(-0.0489538 -0.00729886 0)
(-0.04766 -0.00776679 0)
(-0.0462878 -0.00820613 0)
(-0.0448421 -0.00861471 0)
(-0.0433283 -0.00899043 0)
(-0.0417521 -0.00933124 0)
(-0.0401192 -0.00963516 0)
(-0.0384361 -0.00990028 0)
(-0.0367093 -0.0101248 0)
(-0.0349456 -0.0103069 0)