/*--------------------------------*- C++ -*----------------------------------*\
  =========                 |
  \\      /  F ield         | OpenFOAM: The Open Source CFD Toolbox
   \\    /   O peration     | Website:  https://openfoam.org
    \\  /    A nd           | Version:  11
     \\/     M anipulation  |
\*---------------------------------------------------------------------------*/
FoamFile
{
    format      ascii;
    class       volScalarField;
    location    "7.7";
    object      p;
}
// * * * * * * * * * * * * * * * * * * * * * * * * * * * * * * * * * * * * * //

dimensions      [0 2 -2 0 0 0 0];

internalField   nonuniform List<scalar> 
10100
(
-3.43357e-08
3.73141e-05
-0.000258183
-0.000900399
-0.00183114
-0.00300235
-0.00436151
-0.00585743
-0.00744328
-0.00907716
-0.0107218
-0.0123453
-0.0139193
-0.0154196
-0.016825
-0.0181171
-0.0192804
-0.0203018
-0.0211704
-0.0218774
-0.0224152
-0.0227778
-0.0229606
-0.0229605
-0.0227756
-0.0224049
-0.0218485
-0.0211075
-0.0201839
-0.0190805
-0.0178009
-0.0163494
-0.0147309
-0.0129507
-0.011015
-0.00892996
-0.00670274
-0.00434099
-0.00185267
0.000754189
0.00347129
0.00628985
0.00920062
0.0121941
0.0152606
0.0183902
0.0215726
0.0247974
0.0280539
0.0313313
0.0346188
0.037905
0.0411786
0.0444288
0.0476445
0.0508148
0.0539288
0.0569751
0.059943
0.0628217
0.0656013
0.0682722
0.0708245
0.0732488
0.0755354
0.0776758
0.0796617
0.081486
0.0831419
0.0846233
0.0859244
0.0870403
0.0879667
0.0887008
0.0892406
0.0895856
0.0897365
0.0896951
0.0894643
0.0890481
0.0884522
0.0876839
0.0867524
0.0856688
0.0844462
0.0830997
0.0816465
0.0801068
0.0785034
0.076862
0.0752121
0.0735867
0.0720235
0.0705648
0.069258
0.0681547
0.0673074
0.0667667
0.0665749
0.066681
-0.000146658
-0.000106449
-0.000379537
-0.000946672
-0.00175426
-0.00276522
-0.00394033
-0.00523903
-0.0066226
-0.00805495
-0.00950337
-0.0109385
-0.0123344
-0.0136681
-0.0149195
-0.0160711
-0.0171078
-0.0180168
-0.0187873
-0.0194103
-0.0198782
-0.0201848
-0.0203254
-0.0202964
-0.0200955
-0.0197214
-0.0191741
-0.0184542
-0.0175631
-0.0165033
-0.0152781
-0.0138912
-0.012347
-0.0106505
-0.0088071
-0.00682264
-0.00470376
-0.00245776
-9.21791e-05
0.00238554
0.00496765
0.00764593
0.0104116
0.0132555
0.0161684
0.0191411
0.0221637
0.0252264
0.0283191
0.0314315
0.034553
0.0376731
0.0407812
0.0438669
0.0469198
0.0499296
0.0528857
0.0557775
0.0585948
0.0613275
0.0639665
0.0665025
0.0689263
0.071229
0.0734015
0.0754359
0.0773246
0.0790611
0.0806393
0.0820535
0.0832985
0.0843696
0.0852633
0.085977
0.0865095
0.0868607
0.0870314
0.0870238
0.0868409
0.0864871
0.0859681
0.0852912
0.0844656
0.0835021
0.0824136
0.0812146
0.079922
0.0785546
0.0771341
0.0756844
0.0742324
0.0728082
0.0714447
0.0701783
0.0690482
0.068095
0.0673573
0.0668704
0.0666802
0.0667871
-8.23715e-06
4.16498e-05
-0.000211926
-0.000733875
-0.00146675
-0.00237746
-0.003433
-0.00459899
-0.00584226
-0.00713154
-0.00843781
-0.00973437
-0.0109974
-0.0122054
-0.0133394
-0.014383
-0.0153217
-0.0161432
-0.0168369
-0.0173937
-0.0178063
-0.0180686
-0.0181756
-0.0181235
-0.0179099
-0.0175332
-0.0169932
-0.0162902
-0.0154255
-0.0144011
-0.0132199
-0.0118854
-0.0104017
-0.00877327
-0.00700501
-0.00510254
-0.00307215
-0.000920775
0.00134454
0.00371677
0.0061886
0.00875213
0.011399
0.0141204
0.0169077
0.019752
0.0226439
0.0255742
0.028533
0.0315104
0.0344963
0.0374807
0.0404536
0.0434051
0.0463254
0.0492043
0.0520317
0.0547975
0.0574922
0.0601063
0.062631
0.0650575
0.0673771
0.069581
0.071661
0.0736096
0.0754198
0.0770855
0.078601
0.0799611
0.0811609
0.082196
0.0830632
0.0837605
0.084287
0.0846429
0.0848293
0.0848482
0.084703
0.0843979
0.0839389
0.0833332
0.0825898
0.0817191
0.0807335
0.0796471
0.0784759
0.0772379
0.075953
0.0746436
0.0733343
0.072052
0.0708261
0.0696882
0.0686717
0.0678105
0.067136
0.0666781
0.0664888
0.0665962
0.000489122
0.00049273
0.000221107
-0.000290514
-0.000989793
-0.00184575
-0.00282915
-0.00390983
-0.00505856
-0.00624781
-0.0074517
-0.00864624
-0.00980955
-0.0109218
-0.0119654
-0.0129248
-0.0137863
-0.0145383
-0.0151706
-0.0156744
-0.0160423
-0.0162685
-0.0163481
-0.0162774
-0.0160535
-0.0156751
-0.0151415
-0.014453
-0.0136106
-0.0126162
-0.0114724
-0.0101824
-0.0087499
-0.00717898
-0.00547446
-0.00364171
-0.0016867
0.000384127
0.00256414
0.00484668
0.00722469
0.00969055
0.0122362
0.0148533
0.0175335
0.0202685
0.0230493
0.0258668
0.0287115
0.0315739
0.0344445
0.0373136
0.0401718
0.0430094
0.045817
0.0485848
0.0513031
0.0539623
0.0565531
0.0590669
0.0614951
0.0638292
0.0660607
0.0681814
0.0701835
0.0720599
0.0738042
0.0754105
0.0768735
0.0781881
0.0793497
0.0803545
0.0811995
0.0818829
0.082404
0.0827632
0.0829618
0.083002
0.0828868
0.0826207
0.0822095
0.0816603
0.0809816
0.0801838
0.0792784
0.078279
0.0772007
0.0760602
0.0748762
0.0736692
0.0724616
0.0712777
0.0701437
0.0690874
0.0681378
0.0673246
0.0666753
0.0662174
0.0660006
0.0660576
0.00130769
0.00120256
0.000871808
0.000339424
-0.000355386
-0.0011854
-0.00212474
-0.00314706
-0.00422702
-0.00534033
-0.00646401
-0.00757657
-0.00865819
-0.00969088
-0.0106583
-0.011546
-0.0123414
-0.0130334
-0.0136122
-0.0140696
-0.0143986
-0.0145932
-0.0146487
-0.0145615
-0.014329
-0.0139496
-0.0134224
-0.0127476
-0.0119261
-0.0109597
-0.00985077
-0.00860217
-0.00721714
-0.00569965
-0.00405438
-0.00228648
-0.00040158
0.0015943
0.00369499
0.00589412
0.00818487
0.0105598
0.0130111
0.0155311
0.0181118
0.0207452
0.0234228
0.0261353
0.0288738
0.0316293
0.0343927
0.0371548
0.0399066
0.0426386
0.0453416
0.0480063
0.0506234
0.0531838
0.0556788
0.0580999
0.0604388
0.0626874
0.0648376
0.0668814
0.0688117
0.0706217
0.0723053
0.073857
0.0752715
0.0765442
0.0776706
0.0786473
0.0794716
0.0801419
0.0806576
0.0810192
0.0812281
0.0812865
0.0811974
0.0809651
0.0805953
0.0800948
0.079472
0.0787364
0.0778992
0.0769731
0.0759721
0.074912
0.0738099
0.0726845
0.071556
0.0704462
0.0693782
0.0683766
0.0674667
0.0666741
0.0660233
0.065539
0.0652603
0.0652124
0.0023887
0.00213329
0.00171121
0.00113117
0.000414388
-0.000415543
-0.00133583
-0.00232409
-0.00335844
-0.00441773
-0.00548167
-0.00653109
-0.00754817
-0.00851665
-0.00942184
-0.0102504
-0.0109904
-0.0116317
-0.0121651
-0.012583
-0.0128785
-0.0130461
-0.0130811
-0.0129801
-0.0127406
-0.0123608
-0.0118401
-0.0111784
-0.0103766
-0.00943619
-0.00835953
-0.00714908
-0.00580786
-0.00433972
-0.00274918
-0.00104119
0.000779041
0.00270588
0.00473348
0.00685567
0.00906578
0.0113567
0.013721
0.0161514
0.0186405
0.0211803
0.0237624
0.0263782
0.0290188
0.0316757
0.0343405
0.0370043
0.0396581
0.0422929
0.0448997
0.0474696
0.0499938
0.0524637
0.0548708
0.057207
0.0594641
0.0616344
0.0637101
0.0656838
0.0675485
0.0692979
0.0709261
0.0724279
0.0737982
0.0750325
0.0761267
0.0770775
0.0778826
0.0785405
0.0790507
0.0794138
0.079631
0.0797044
0.0796373
0.0794337
0.079099
0.0786396
0.0780634
0.0773797
0.0765989
0.0757328
0.0747945
0.0737984
0.0727602
0.0716969
0.0706266
0.0695687
0.0685436
0.0675728
0.0666781
0.0658818
0.0652053
0.0646707
0.0643011
0.0641083
0.00367837
0.00324632
0.00270912
0.00205912
0.00129766
0.000444983
-0.000478857
-0.00145519
-0.0024653
-0.00349088
-0.00451414
-0.00551816
-0.00648722
-0.00740661
-0.00826296
-0.00904429
-0.00973979
-0.0103398
-0.0108361
-0.0112212
-0.0114891
-0.0116342
-0.0116524
-0.0115404
-0.0112956
-0.0109165
-0.0104023
-0.00975309
-0.00896961
-0.00805331
-0.00700618
-0.00583049
-0.00452923
-0.00310619
-0.00156573
8.75746e-05
0.00184891
0.00371295
0.00567397
0.00772593
0.00986241
0.0120767
0.0143618
0.0167108
0.0191163
0.0215708
0.0240659
0.0265934
0.0291449
0.0317124
0.0342876
0.036862
0.0394268
0.0419732
0.0444927
0.0469766
0.0494168
0.0518047
0.0541323
0.0563917
0.0585749
0.0606744
0.0626828
0.0645933
0.066399
0.0680939
0.0696722
0.071129
0.0724593
0.073659
0.074724
0.0756514
0.0764388
0.077085
0.0775896
0.077953
0.0781765
0.0782621
0.0782128
0.0780325
0.0777263
0.0773004
0.0767621
0.07612
0.0753838
0.0745647
0.0736746
0.0727268
0.0717354
0.0707158
0.0696842
0.0686577
0.0676542
0.0666925
0.0657913
0.0649695
0.0642463
0.0636408
0.063158
0.0627941
0.00512731
0.00450247
0.00383337
0.00309585
0.00227139
0.00137714
0.000430509
-0.000552842
-0.00155717
-0.00256668
-0.00356611
-0.00454066
-0.00547636
-0.00636017
-0.00718011
-0.00792532
-0.0085861
-0.00915368
-0.00962032
-0.00997928
-0.0102248
-0.010352
-0.0103569
-0.0102364
-0.00998809
-0.00961054
-0.0091031
-0.00846589
-0.00769959
-0.00680545
-0.00578525
-0.00464123
-0.00337641
-0.00199451
-0.000499584
0.00110413
0.00281209
0.00461915
0.00651967
0.0085078
0.0105774
0.0127222
0.0149356
0.0172107
0.0195406
0.0219175
0.0243337
0.0267812
0.0292522
0.0317388
0.034233
0.0367264
0.0392107
0.0416773
0.044118
0.0465245
0.048889
0.0512032
0.0534593
0.0556495
0.0577663
0.0598023
0.0617506
0.0636043
0.0653572
0.0670033
0.0685371
0.0699535
0.0712481
0.0724165
0.0734553
0.0743615
0.0751328
0.075768
0.0762668
0.0766295
0.0768574
0.0769523
0.0769169
0.076755
0.0764713
0.0760717
0.0755629
0.0749529
0.0742509
0.0734669
0.072612
0.0716981
0.0707383
0.069746
0.0687359
0.0677228
0.0667226
0.0657513
0.0648251
0.0639598
0.0631724
0.0624795
0.0618674
0.0613162
0.00669164
0.00586528
0.00505308
0.00421503
0.00331295
0.00236154
0.00137638
0.000370163
-0.000644125
-0.00165304
-0.00264333
-0.00360228
-0.0045177
-0.00537805
-0.00617269
-0.00689192
-0.00752701
-0.00807009
-0.0085141
-0.00885288
-0.00908119
-0.00919461
-0.00918948
-0.00906292
-0.0088128
-0.00843778
-0.00793737
-0.0073117
-0.00656136
-0.00568747
-0.00469181
-0.00357668
-0.00234504
-0.00100043
0.000453381
0.0020124
0.00367218
0.00542771
0.00727352
0.00920398
0.0112133
0.0132955
0.0154442
0.0176527
0.0199142
0.0222212
0.0245663
0.0269419
0.0293403
0.0317541
0.0341755
0.0365963
0.0390082
0.0414032
0.0437732
0.0461105
0.0484072
0.0506556
0.0528478
0.0549763
0.0570338
0.0590134
0.0609081
0.0627116
0.0644176
0.0660203
0.0675145
0.0688951
0.0701578
0.0712986
0.0723139
0.0732009
0.0739576
0.0745825
0.0750754
0.0754366
0.0756671
0.0757685
0.0757435
0.0755954
0.0753287
0.0749488
0.0744619
0.0738755
0.0731979
0.0724383
0.0716069
0.0707144
0.0697725
0.0687932
0.0677894
0.0667743
0.0657615
0.0647649
0.0637982
0.0628743
0.0620087
0.0612159
0.0604634
0.0597159
0.00833348
0.00730214
0.00633981
0.00539154
0.00440061
0.00337973
0.00234298
0.00130049
0.000262902
-0.0007586
-0.00175268
-0.00270832
-0.00361497
-0.00446262
-0.00524196
-0.00594439
-0.00656205
-0.00708787
-0.00751561
-0.00783982
-0.00805572
-0.00815927
-0.00814713
-0.00801678
-0.00776639
-0.00739483
-0.00690167
-0.006287
-0.00555138
-0.00469599
-0.00372267
-0.00263377
-0.00143212
-0.000121
0.00129598
0.00281494
0.0044315
0.00614075
0.00793746
0.00981627
0.0117717
0.0137979
0.0158886
0.0180375
0.0202377
0.0224822
0.0247638
0.0270751
0.0294089
0.0317578
0.0341142
0.0364701
0.0388177
0.0411489
0.0434563
0.0457321
0.0479689
0.0501589
0.0522946
0.0543686
0.0563739
0.0583036
0.0601513
0.0619106
0.0635754
0.0651401
0.0665995
0.0679487
0.0691835
0.0702999
0.0712945
0.0721645
0.0729079
0.0735233
0.0740104
0.0743692
0.0746007
0.0747063
0.0746883
0.0745499
0.0742951
0.0739289
0.0734571
0.0728864
0.0722245
0.0714797
0.0706613
0.0697789
0.0688428
0.0678638
0.0668532
0.0658226
0.0647837
0.0637485
0.0627282
0.0617336
0.060779
0.0598769
0.0589769
0.058029
0.0100206
0.00878356
0.00766722
0.0066022
0.0055139
0.00441374
0.00331478
0.00222494
0.00115271
0.000107361
-0.000901591
-0.00186464
-0.00277271
-0.00361727
-0.00439025
-0.00508403
-0.00569161
-0.00620683
-0.00662423
-0.00693893
-0.00714669
-0.00724387
-0.00722757
-0.00709561
-0.00684644
-0.00647909
-0.00599321
-0.00538892
-0.00466687
-0.00382838
-0.00287531
-0.00180999
-0.000635089
0.000646239
0.00203047
0.00351377
0.00509187
0.00676
0.00851312
0.0103462
0.0122538
0.0142303
0.0162697
0.0183657
0.0205116
0.0227007
0.0249261
0.0271807
0.0294574
0.0317489
0.0340479
0.0363467
0.0386376
0.0409129
0.0431652
0.0453872
0.0475714
0.0497104
0.0517968
0.0538233
0.0557831
0.0576696
0.0594765
0.0611975
0.0628267
0.0643585
0.0657877
0.0671098
0.0683205
0.0694158
0.0703924
0.0712475
0.0719791
0.0725859
0.0730672
0.0734231
0.0736542
0.0737618
0.0737479
0.0736155
0.0733681
0.0730102
0.0725472
0.0719852
0.0713311
0.0705926
0.0697778
0.0688954
0.0679545
0.0669647
0.0659359
0.0648782
0.0638017
0.0627165
0.0616321
0.0605571
0.0595049
0.0584869
0.0574353
0.0562863
0.0117249
0.0102838
0.0090116
0.00782533
0.00663348
0.0054466
0.00427688
0.00313052
0.00201412
0.00093534
-9.78978e-05
-0.00107762
-0.00199615
-0.00284614
-0.00362056
-0.00431283
-0.00491699
-0.00542767
-0.00584005
-0.0061498
-0.00635322
-0.00644724
-0.00642938
-0.00629778
-0.0060511
-0.0056885
-0.00520978
-0.00461525
-0.00390569
-0.00308251
-0.0021476
-0.00110317
4.81656e-05
0.00130328
0.0026587
0.00411061
0.00565486
0.00728689
0.00900187
0.0107948
0.0126606
0.0145937
0.016588
0.0186376
0.020736
0.0228768
0.0250532
0.0272583
0.0294851
0.0317267
0.0339758
0.0362249
0.0384666
0.0406934
0.0428981
0.0450736
0.0472125
0.0493076
0.0513516
0.0533374
0.0552583
0.057108
0.0588801
0.0605685
0.0621675
0.0636714
0.0650753
0.0663744
0.0675646
0.0686421
0.0696034
0.0704458
0.0711672
0.0717662
0.0722421
0.0725945
0.0728242
0.072932
0.0729197
0.0727899
0.0725459
0.0721916
0.0717318
0.0711722
0.0705189
0.0697789
0.0689594
0.0680681
0.0671131
0.0661029
0.065046
0.0639513
0.0628273
0.0616829
0.0605257
0.0593627
0.0582065
0.057068
0.0558628
0.054514
0.0134226
0.0117803
0.0103517
0.00904141
0.00774155
0.00646219
0.00521502
0.0040046
0.00283615
0.00171587
0.000650244
-0.000354173
-0.00129093
-0.00215368
-0.0029364
-0.00363362
-0.00424029
-0.00475176
-0.00516377
-0.00547262
-0.00567519
-0.00576897
-0.00575187
-0.00562226
-0.00537902
-0.00502153
-0.00454982
-0.0039644
-0.00326623
-0.00245673
-0.00153779
-0.00051158
0.000619288
0.00185166
0.00318206
0.00460676
0.00612175
0.00772263
0.00940473
0.0111632
0.0129929
0.0148884
0.0168439
0.0188535
0.0209111
0.0230104
0.0251447
0.0273074
0.0294915
0.0316904
0.0338967
0.0361035
0.0383032
0.0404888
0.0426531
0.0447893
0.04689
0.048948
0.0509564
0.0529081
0.0547967
0.0566157
0.0583589
0.0600204
0.0615944
0.0630754
0.0644584
0.0657388
0.0669123
0.0679751
0.0689239
0.0697558
0.0704687
0.071061
0.0715318
0.0718807
0.0721081
0.0722146
0.0722018
0.0720717
0.0718274
0.0714724
0.071011
0.0704482
0.0697896
0.0690413
0.0682098
0.0673018
0.0663246
0.0652855
0.0641921
0.0630519
0.0618723
0.0606609
0.0594238
0.0581667
0.056902
0.0556399
0.0542806
0.0527346
0.015093
0.0132528
0.0116687
0.0102327
0.00882169
0.00744533
0.00611546
0.00483508
0.00360806
0.00243945
0.0013345
0.00029856
-0.000662987
-0.00154482
-0.00234195
-0.00304983
-0.0036642
-0.00418103
-0.00459675
-0.00490833
-0.00511323
-0.00520934
-0.0051949
-0.00506856
-0.00482946
-0.0044773
-0.00401238
-0.00343539
-0.0027474
-0.00194985
-0.00104462
-3.39634e-05
0.00107944
0.00229243
0.00360155
0.0050032
0.00649347
0.00806806
0.00972239
0.0114517
0.0132509
0.0151147
0.0170375
0.0190135
0.0210368
0.0231012
0.0252002
0.0273273
0.0294757
0.0316388
0.0338096
0.0359811
0.0381461
0.0402976
0.0424286
0.0445323
0.0466017
0.0486295
0.0506089
0.0525331
0.0543955
0.0561899
0.0579101
0.0595501
0.0611044
0.0625673
0.063934
0.0651997
0.0663602
0.0674117
0.0683507
0.0691745
0.0698806
0.0704674
0.0709338
0.0712793
0.0715038
0.0716079
0.0715927
0.0714601
0.0712125
0.0708531
0.0703858
0.0698148
0.0691454
0.0683829
0.0675329
0.0666015
0.065595
0.0645199
0.0633826
0.0621898
0.0609478
0.0596629
0.0583403
0.0569845
0.0556078
0.0542203
0.0527072
0.0509674
0.0167179
0.0146838
0.0129453
0.0113829
0.00985864
0.00838213
0.00696528
0.00561012
0.00431926
0.00309662
0.00194651
0.000873313
-0.000118613
-0.00102503
-0.00184189
-0.00256536
-0.00319183
-0.00371801
-0.00414108
-0.00445861
-0.00466854
-0.00476911
-0.00475885
-0.00463675
-0.00440232
-0.0040556
-0.00359713
-0.00302775
-0.00234857
-0.00156111
-0.000667332
0.000330393
0.00142929
0.00262622
0.00391783
0.00530054
0.00677054
0.00832362
0.00995522
0.0116606
0.0134348
0.0152727
0.0171688
0.0191174
0.0211127
0.0231487
0.025219
0.0273173
0.0294368
0.0315711
0.0337132
0.0358564
0.0379937
0.040118
0.0422227
0.0443009
0.0463456
0.0483499
0.0503068
0.0522098
0.0540522
0.0558279
0.0575308
0.0591549
0.0606945
0.0621443
0.0634991
0.0647542
0.0659055
0.066949
0.0678812
0.0686992
0.0694005
0.0699833
0.0704462
0.0707886
0.07101
0.0711109
0.071092
0.0709547
0.0707013
0.0703344
0.0698573
0.0692741
0.0685891
0.0678071
0.0669332
0.0659725
0.0649306
0.0638132
0.062626
0.0613745
0.0600643
0.0587008
0.0572882
0.0558301
0.0543389
0.0528249
0.0511592
0.0492291
0.0182813
0.0160571
0.014166
0.0124772
0.0108383
0.00925932
0.00775222
0.00631838
0.00495938
0.00367812
0.00247807
0.00136276
0.000335603
-0.000600138
-0.00144118
-0.00218434
-0.00282673
-0.00336581
-0.00379942
-0.00412566
-0.00434282
-0.00444949
-0.00444457
-0.00432747
-0.00409809
-0.00375679
-0.00330426
-0.00274143
-0.00206955
-0.00129027
-0.000405694
0.000581698
0.00166908
0.00285333
0.00413114
0.00549901
0.00695316
0.00848938
0.0101032
0.0117898
0.0135445
0.0153621
0.0172373
0.0191645
0.0211381
0.0231521
0.0252002
0.0272762
0.0293736
0.0314857
0.0336061
0.0357279
0.0378443
0.0399484
0.0420335
0.0440928
0.0461196
0.0481068
0.0500478
0.0519358
0.0537643
0.0555273
0.0572185
0.058832
0.0603622
0.0618036
0.063151
0.0643998
0.0655456
0.0665845
0.0675129
0.0683277
0.0690263
0.0696067
0.0700673
0.0704072
0.0706257
0.0707229
0.0706992
0.0705558
0.0702944
0.0699173
0.0694275
0.0688283
0.0681237
0.0673179
0.0664151
0.0654202
0.0643378
0.0631729
0.0619304
0.0606152
0.0592321
0.0577857
0.0562795
0.0547163
0.053109
0.051468
0.0496509
0.0475342
0.019769
0.0173588
0.0153168
0.0135016
0.0117475
0.0100643
0.00846463
0.00694907
0.00551845
0.00417488
0.00292098
0.00175946
0.000692926
-0.000276084
-0.00114499
-0.00191133
-0.00257296
-0.00312802
-0.00357485
-0.003912
-0.00413811
-0.00425214
-0.00425348
-0.00414196
-0.00391784
-0.00358168
-0.00313431
-0.00257681
-0.00191063
-0.00113758
-0.000259919
0.000719765
0.00179863
0.0029736
0.00424139
0.00559849
0.00704111
0.00856506
0.0101659
0.0118389
0.0135793
0.0153822
0.0172423
0.0191542
0.0211122
0.0231104
0.0251427
0.0272029
0.0292846
0.0313813
0.0334866
0.0355938
0.037696
0.0397866
0.0418589
0.043906
0.0459214
0.0478981
0.0498294
0.0517087
0.0535294
0.0552855
0.0569707
0.0585791
0.0601049
0.0615428
0.0628874
0.0641341
0.0652784
0.0663162
0.0672439
0.0680583
0.0687565
0.0693364
0.069796
0.0701342
0.0703502
0.0704436
0.0704145
0.0702638
0.0699928
0.0696035
0.0690984
0.0684803
0.0677527
0.0669192
0.0659837
0.0649501
0.0638228
0.0626059
0.0613039
0.0599208
0.0584609
0.0569283
0.0553256
0.0536552
0.0519305
0.0501623
0.0481953
0.0458953
0.0211682
0.0185756
0.0163847
0.0144436
0.0125738
0.0107854
0.00909141
0.00749178
0.00598679
0.00457792
0.00326695
0.00205586
0.00094659
-5.89188e-05
-0.000958792
-0.00175132
-0.00243503
-0.0030086
-0.0034708
-0.00382052
-0.00405685
-0.00417926
-0.00418758
-0.004082
-0.00386305
-0.00353147
-0.00308828
-0.00253476
-0.00187257
-0.00110376
-0.000230697
0.000743984
0.00181743
0.00298657
0.0042481
0.00559846
0.00703383
0.00855006
0.0101427
0.0118071
0.0135387
0.0153324
0.0171831
0.0190854
0.0210338
0.0230223
0.025045
0.0270958
0.0291683
0.0312563
0.0333531
0.0354522
0.037547
0.0396307
0.0416967
0.0437383
0.0457488
0.0477214
0.0496494
0.0515261
0.0533451
0.0551001
0.0567849
0.0583936
0.0599204
0.0613596
0.0627061
0.063955
0.0651018
0.0661423
0.0670727
0.0678896
0.0685899
0.0691713
0.0696316
0.0699693
0.0701834
0.0702731
0.0702385
0.0700798
0.0697982
0.0693951
0.0688726
0.0682332
0.0674798
0.0666155
0.0656438
0.0645682
0.0633922
0.0621197
0.0607544
0.0593
0.0577601
0.0561383
0.0544368
0.0526576
0.0508147
0.0489194
0.0468039
0.0443237
0.0224673
0.0196957
0.0173579
0.0152916
0.0133059
0.0114116
0.00962204
0.00793659
0.00635507
0.00487842
0.00350778
0.00224443
0.00108974
4.50672e-05
-0.000888407
-0.00170967
-0.00241779
-0.00301181
-0.00349094
-0.00385449
-0.00410208
-0.00423362
-0.00424935
-0.00414977
-0.00393559
-0.00360778
-0.00316759
-0.00261658
-0.00195665
-0.00119001
-0.0003191
0.000653408
0.00172461
0.00289139
0.00415041
0.00549805
0.00693045
0.00844346
0.0100327
0.0116936
0.0134214
0.0152114
0.0170584
0.0189569
0.0209015
0.0228865
0.0249058
0.0269535
0.0290232
0.0311087
0.0332036
0.0353013
0.0373953
0.0394787
0.041545
0.0435875
0.0455996
0.0475745
0.0495055
0.0513859
0.0532092
0.054969
0.0566592
0.0582737
0.0598066
0.0612523
0.0626054
0.063861
0.0650145
0.0660615
0.066998
0.0678204
0.0685256
0.0691108
0.0695736
0.0699123
0.0701255
0.0702123
0.0701721
0.0700053
0.0697123
0.0692943
0.068753
0.0680904
0.067309
0.0664115
0.0654009
0.0642802
0.0630525
0.0617213
0.0602897
0.058761
0.0571385
0.0554252
0.0536231
0.0517338
0.0497719
0.0477498
0.045487
0.0428291
0.0236559
0.020708
0.0182251
0.0160346
0.0139332
0.0119325
0.0100464
0.0082739
0.0066142
0.0050678
0.00363538
0.00231765
0.0011154
2.93123e-05
-0.000939992
-0.00179199
-0.0025262
-0.00314213
-0.00363935
-0.00401769
-0.00427726
-0.00441841
-0.00444167
-0.00434779
-0.0041377
-0.00381263
-0.00337415
-0.0028241
-0.00216458
-0.00139789
-0.000526534
0.000446732
0.00151893
0.00268687
0.00394715
0.00529608
0.00672977
0.0082441
0.00983471
0.0114971
0.0132265
0.0150181
0.0168668
0.0187673
0.0207141
0.0227014
0.0247235
0.0267743
0.0288475
0.0309371
0.0330365
0.0351393
0.0372389
0.0393285
0.0414017
0.0434517
0.0454719
0.0474555
0.0493957
0.0512859
0.0531195
0.0548901
0.0565914
0.0582173
0.0597617
0.061219
0.0625837
0.0638506
0.065015
0.0660725
0.0670188
0.0678502
0.0685632
0.0691547
0.0696222
0.0699636
0.0701773
0.0702619
0.0702169
0.070042
0.0697375
0.069304
0.0687428
0.0680557
0.0672447
0.0663121
0.0652603
0.0640921
0.0628103
0.0614177
0.0599172
0.0583119
0.0566044
0.0547978
0.0528935
0.050893
0.0488117
0.0466628
0.0442537
0.0414203
0.0247247
0.0216029
0.0189763
0.0166624
0.0144456
0.0123382
0.0103549
0.00849439
0.00675523
0.0051376
0.00364177
0.00226793
0.00101631
-0.000112961
-0.00111977
-0.002004
-0.00276555
-0.00340436
-0.0039205
-0.00431432
-0.00458633
-0.0047372
-0.00476774
-0.00467892
-0.00447199
-0.00414852
-0.00371036
-0.00315956
-0.00249841
-0.00172928
-0.000854762
0.000122302
0.00119881
0.00237147
0.0036368
0.00499106
0.00643034
0.00795054
0.00954734
0.0112162
0.0129523
0.0147509
0.016607
0.0185151
0.0204699
0.0224656
0.0244965
0.0265566
0.0286397
0.0307396
0.03285
0.0349643
0.037076
0.0391784
0.0412649
0.0433289
0.0453636
0.0473623
0.0493181
0.0512243
0.0530744
0.0548617
0.0565799
0.0582228
0.0597843
0.0612584
0.0626396
0.0639226
0.0651025
0.0661746
0.0671346
0.0679784
0.0687023
0.069303
0.0697776
0.0701238
0.0703396
0.0704236
0.0703746
0.0701922
0.0698762
0.069427
0.0688456
0.0681331
0.0672912
0.066322
0.0652274
0.0640099
0.0626718
0.0612158
0.0596444
0.0579603
0.0561661
0.0542644
0.0522566
0.050144
0.0479428
0.045667
0.0431124
0.040105
0.0256649
0.0223711
0.0196019
0.0171653
0.0148335
0.0126193
0.0105383
0.00858898
0.00676945
0.00507947
0.0035189
0.00208758
0.000785192
-0.000388597
-0.00143409
-0.00235155
-0.00314126
-0.00380363
-0.00433928
-0.00474895
-0.00503349
-0.00519383
-0.00523104
-0.00514643
-0.00494158
-0.00461839
-0.00417897
-0.00362554
-0.00296053
-0.0021864
-0.00130584
-0.000321837
0.000762348
0.00194333
0.00321755
0.00458124
0.00603048
0.00756116
0.00916896
0.0108493
0.0125973
0.0144083
0.0162772
0.0181987
0.0201673
0.0221773
0.0242231
0.0262987
0.0283979
0.0305145
0.0326422
0.0347745
0.0369048
0.0390265
0.0411329
0.0432173
0.045273
0.0472931
0.0492708
0.0511993
0.053072
0.0548821
0.0566232
0.0582888
0.0598728
0.0613691
0.062772
0.064076
0.065276
0.0663672
0.067345
0.068205
0.0689432
0.0695561
0.0700406
0.070394
0.070614
0.0706989
0.0706472
0.0704582
0.0701314
0.0696668
0.0690649
0.0683266
0.0674532
0.0664463
0.0653077
0.0640394
0.0626435
0.0611223
0.0594783
0.0577138
0.0558312
0.053833
0.0517205
0.0494949
0.0471733
0.0447705
0.0420708
0.0388903
0.0264679
0.0230037
0.020093
0.0175341
0.0150875
0.0127666
0.0105876
0.00854882
0.00664817
0.00488499
0.00325875
0.0017689
0.000414732
-0.000804483
-0.00188941
-0.0028407
-0.0036591
-0.00434547
-0.00490089
-0.00532641
-0.00562315
-0.00579235
-0.0058354
-0.00575395
-0.00554994
-0.00522555
-0.00478308
-0.00422492
-0.0035536
-0.00277173
-0.00188214
-0.000887995
0.000207301
0.00140028
0.00268733
0.00406465
0.00552828
0.0070741
0.00869773
0.0103945
0.0121597
0.0139884
0.0158757
0.0178162
0.0198044
0.0218348
0.0239016
0.0259988
0.0281203
0.03026
0.0324114
0.0345681
0.0367236
0.038871
0.0410038
0.0431151
0.0451982
0.0472461
0.0492521
0.0512092
0.0531107
0.0549497
0.0567196
0.0584138
0.0600261
0.0615501
0.06298
0.0643101
0.0655351
0.0666499
0.0676497
0.0685299
0.0692862
0.0699148
0.0704122
0.0707755
0.0710021
0.0710899
0.0710372
0.0708429
0.0705061
0.0700267
0.0694047
0.0686406
0.0677354
0.0666903
0.0655068
0.0641867
0.0627317
0.0611441
0.059426
0.0575796
0.0556073
0.0535114
0.0512931
0.0489535
0.0465109
0.0439808
0.0411358
0.0377828
0.0271253
0.0234922
0.0204407
0.0177599
0.0151987
0.012771
0.0104939
0.00836522
0.00638285
0.00454583
0.00285327
0.0013042
-0.000102395
-0.00136755
-0.00249231
-0.00347778
-0.00432513
-0.00503566
-0.00561073
-0.00605171
-0.00636001
-0.0065372
-0.00658504
-0.00650553
-0.00630091
-0.00597361
-0.00552608
-0.00496085
-0.00428059
-0.0034881
-0.00258641
-0.00157884
-0.000468907
0.00073985
0.00204378
0.00343901
0.00492152
0.00648715
0.00813149
0.00984984
0.0116374
0.0134892
0.0154003
0.0173655
0.0193793
0.021436
0.0235298
0.0256548
0.027805
0.029974
0.0321555
0.0343431
0.0365301
0.0387099
0.0408756
0.0430203
0.0451373
0.0472196
0.0492603
0.0512524
0.0531889
0.055063
0.0568679
0.0585967
0.0602431
0.0618005
0.0632629
0.0646244
0.0658794
0.0670226
0.0680489
0.0689536
0.0697319
0.0703799
0.0708936
0.0712699
0.0715058
0.0715989
0.0715472
0.0713493
0.071004
0.0705107
0.0698692
0.0690797
0.0681428
0.0670593
0.0658305
0.0644578
0.062943
0.0612879
0.0594946
0.0575652
0.0555019
0.0533072
0.050982
0.0485275
0.0459631
0.0433049
0.0403144
0.0367888
0.0276293
0.0238281
0.0206366
0.0178342
0.0151583
0.0126238
0.0102483
0.00802949
0.00596503
0.00405373
0.00229441
0.000685764
-0.000773553
-0.00208489
-0.00324966
-0.00426939
-0.00514567
-0.00588012
-0.00647437
-0.0069301
-0.00724905
-0.00743315
-0.00748455
-0.00740554
-0.00719863
-0.00686644
-0.00641157
-0.00583672
-0.00514477
-0.00433871
-0.00342174
-0.00239734
-0.00126912
-4.06875e-05
0.00128425
0.00270174
0.00420768
0.00579786
0.00746781
0.00921278
0.0110279
0.0129082
0.0148488
0.0168445
0.0188896
0.0209785
0.0231055
0.0252645
0.0274495
0.0296543
0.0318723
0.0340973
0.0363224
0.038541
0.0407462
0.042931
0.0450885
0.0472117
0.0492936
0.0513271
0.0533052
0.0552207
0.0570667
0.0588363
0.0605227
0.0621194
0.06362
0.0650184
0.0663087
0.0674853
0.068543
0.0694766
0.0702814
0.0709527
0.0714865
0.0718791
0.0721273
0.0722284
0.0721802
0.0719807
0.0716286
0.0711229
0.070463
0.0696488
0.0686805
0.0675588
0.0662846
0.0648591
0.0632838
0.0615606
0.0596912
0.0576778
0.0555225
0.0532278
0.0507947
0.0482244
0.045537
0.0427501
0.0396133
0.0359144
0.027972
0.0240032
0.0206719
0.017748
0.0149575
0.0123161
0.00984202
0.00753301
0.00538626
0.00340045
0.00157416
-9.41865e-05
-0.00160626
-0.00296377
-0.00416849
-0.0052223
-0.00612715
-0.00688494
-0.00749757
-0.00796707
-0.00829554
-0.00848529
-0.00853879
-0.00845862
-0.00824747
-0.00790815
-0.00744346
-0.00685629
-0.00614976
-0.00532707
-0.00439154
-0.00334676
-0.00219648
-0.000944366
0.000405796
0.00184996
0.00338396
0.00500347
0.00670399
0.00848068
0.0103286
0.012243
0.0142187
0.0162505
0.0183329
0.0204601
0.0226262
0.0248254
0.0270516
0.0292984
0.0315594
0.0338282
0.0360981
0.0383621
0.0406135
0.042845
0.0450497
0.0472205
0.0493502
0.0514318
0.0534579
0.0554213
0.0573149
0.0591315
0.0608642
0.0625062
0.0640509
0.0654918
0.0668229
0.0680383
0.0691325
0.0701
0.0709356
0.0716346
0.0721925
0.0726052
0.0728692
0.0729815
0.0729394
0.0727408
0.072384
0.0718675
0.0711906
0.0703528
0.069354
0.0681946
0.0668752
0.0653969
0.0637609
0.061969
0.0600229
0.0579247
0.0556766
0.053281
0.0507388
0.0480515
0.0452402
0.0423234
0.0390392
0.0351658
0.0281461
0.0240095
0.0205383
0.017493
0.0145879
0.0118393
0.00926663
0.00686723
0.00463812
0.00257774
0.00068447
-0.00104352
-0.0026082
-0.00401163
-0.00525597
-0.00634341
-0.00727616
-0.00805639
-0.00868637
-0.00916846
-0.00950516
-0.00969908
-0.009753
-0.00966971
-0.00945209
-0.00910319
-0.00862601
-0.0080237
-0.00729961
-0.00645707
-0.00549952
-0.0044307
-0.00325445
-0.00197455
-0.000594851
0.000880495
0.0024472
0.00410088
0.00583694
0.00765052
0.00953666
0.0114905
0.0135069
0.0155808
0.0177063
0.0198778
0.0220892
0.0243348
0.0266084
0.0289037
0.0312142
0.0335335
0.0358546
0.0381708
0.040475
0.04276
0.0450187
0.0472439
0.0494283
0.0515646
0.0536455
0.0556634
0.0576111
0.0594813
0.0612667
0.0629603
0.0645551
0.0660445
0.0674222
0.068682
0.069818
0.0708244
0.0716959
0.0724272
0.0730135
0.0734504
0.0737341
0.073861
0.0738283
0.0736334
0.0732743
0.0727493
0.0720572
0.0711972
0.0701691
0.0689727
0.0676087
0.0660777
0.0643811
0.0625203
0.0604971
0.0583135
0.0559717
0.0534741
0.0508218
0.0480163
0.0450797
0.0420318
0.0385988
0.0345491
0.0281437
0.0238389
0.0202275
0.0170605
0.0140407
0.0111849
0.00851347
0.00602358
0.00371208
0.00157721
-0.000382887
-0.00217027
-0.00378721
-0.00523613
-0.0065195
-0.0076398
-0.00859951
-0.00940109
-0.0100472
-0.0105405
-0.0108839
-0.0110803
-0.0111326
-0.011044
-0.0108174
-0.0104563
-0.00996387
-0.00934345
-0.00859861
-0.00773283
-0.00674967
-0.00565298
-0.00444674
-0.00313482
-0.00172118
-0.000210096
0.00139403
0.00308675
0.00486341
0.0067191
0.00864882
0.0106477
0.0127106
0.0148322
0.0170069
0.0192286
0.0214915
0.0237898
0.0261171
0.0284674
0.030834
0.0332103
0.0355895
0.0379646
0.0403285
0.0426738
0.0449934
0.0472798
0.0495258
0.0517238
0.0538663
0.0559456
0.0579542
0.0598845
0.0617292
0.0634809
0.0651323
0.0666765
0.0681068
0.0694168
0.0706003
0.0716512
0.0725637
0.0733323
0.0739518
0.0744174
0.0747249
0.0748704
0.0748506
0.0746627
0.0743042
0.0737731
0.073068
0.0721876
0.0711315
0.0698995
0.0684916
0.0669086
0.0651515
0.0632219
0.0611212
0.0588516
0.0564154
0.0538149