/*--------------------------------*- C++ -*----------------------------------*\
  =========                 |
  \\      /  F ield         | OpenFOAM: The Open Source CFD Toolbox
   \\    /   O peration     | Website:  https://openfoam.org
    \\  /    A nd           | Version:  11
     \\/     M anipulation  |
\*---------------------------------------------------------------------------*/
FoamFile
{
    format      ascii;
    class       volVectorField;
    location    "7.7";
    object      U;
}
// * * * * * * * * * * * * * * * * * * * * * * * * * * * * * * * * * * * * * //

dimensions      [0 1 -1 0 0 0 0];

internalField   nonuniform List<vector> 
10100
(
(2.69762e-06 -3.3252e-06 0)
(1.49444e-05 -8.11751e-06 0)
(3.38286e-05 -9.01338e-06 0)
(5.18142e-05 -7.747e-06 0)
(6.34712e-05 -5.23517e-06 0)
(6.66486e-05 -2.12118e-06 0)
(6.00893e-05 1.24627e-06 0)
(4.32202e-05 4.6662e-06 0)
(1.59198e-05 8.01937e-06 0)
(-2.16328e-05 1.12363e-05 0)
(-6.90796e-05 1.42787e-05 0)
(-0.000125941 1.71241e-05 0)
(-0.000191647 1.97633e-05 0)
(-0.000265585 2.21896e-05 0)
(-0.0003471 2.43942e-05 0)
(-0.000435515 2.63782e-05 0)
(-0.000530148 2.81442e-05 0)
(-0.000630309 2.96959e-05 0)
(-0.00073532 3.10407e-05 0)
(-0.000844503 3.21813e-05 0)
(-0.000957196 3.31238e-05 0)
(-0.00107275 3.38729e-05 0)
(-0.00119052 3.44324e-05 0)
(-0.00130989 3.48113e-05 0)
(-0.00143025 3.50177e-05 0)
(-0.00155102 3.50537e-05 0)
(-0.00167163 3.49247e-05 0)
(-0.00179153 3.46382e-05 0)
(-0.0019102 3.42005e-05 0)
(-0.00202712 3.36183e-05 0)
(-0.00214181 3.2898e-05 0)
(-0.0022538 3.20439e-05 0)
(-0.00236264 3.10627e-05 0)
(-0.00246792 2.99638e-05 0)
(-0.00256922 2.87551e-05 0)
(-0.00266618 2.74408e-05 0)
(-0.00275843 2.6025e-05 0)
(-0.00284563 2.45152e-05 0)
(-0.00292748 2.29191e-05 0)
(-0.00300367 2.12429e-05 0)
(-0.00307394 1.94922e-05 0)
(-0.00313804 1.76731e-05 0)
(-0.00319574 1.57919e-05 0)
(-0.00324683 1.38543e-05 0)
(-0.00329112 1.18647e-05 0)
(-0.00332846 9.82911e-06 0)
(-0.00335869 7.75564e-06 0)
(-0.00338171 5.65223e-06 0)
(-0.00339741 3.52566e-06 0)
(-0.00340574 1.3815e-06 0)
(-0.00340663 -7.74355e-07 0)
(-0.00340008 -2.93416e-06 0)
(-0.00338609 -5.089e-06 0)
(-0.00336468 -7.23038e-06 0)
(-0.00333592 -9.35107e-06 0)
(-0.00329988 -1.1445e-05 0)
(-0.00325668 -1.35055e-05 0)
(-0.00320644 -1.55242e-05 0)
(-0.00314934 -1.7492e-05 0)
(-0.00308556 -1.94012e-05 0)
(-0.0030153 -2.1245e-05 0)
(-0.00293883 -2.30166e-05 0)
(-0.0028564 -2.47087e-05 0)
(-0.00276831 -2.63129e-05 0)
(-0.00267488 -2.78202e-05 0)
(-0.00257647 -2.92226e-05 0)
(-0.00247346 -3.05124e-05 0)
(-0.00236624 -3.1681e-05 0)
(-0.00225526 -3.27199e-05 0)
(-0.00214096 -3.36219e-05 0)
(-0.00202385 -3.43798e-05 0)
(-0.00190441 -3.49858e-05 0)
(-0.0017832 -3.54316e-05 0)
(-0.00166077 -3.57092e-05 0)
(-0.0015377 -3.58112e-05 0)
(-0.00141459 -3.57319e-05 0)
(-0.00129206 -3.54669e-05 0)
(-0.00117075 -3.50115e-05 0)
(-0.0010513 -3.43603e-05 0)
(-0.000934386 -3.3508e-05 0)
(-0.000820672 -3.24508e-05 0)
(-0.000710844 -3.11863e-05 0)
(-0.000605586 -2.97128e-05 0)
(-0.000505587 -2.80286e-05 0)
(-0.00041153 -2.61322e-05 0)
(-0.000324093 -2.40232e-05 0)
(-0.000243941 -2.17031e-05 0)
(-0.000171715 -1.91764e-05 0)
(-0.000108023 -1.6451e-05 0)
(-5.34263e-05 -1.35383e-05 0)
(-8.42025e-06 -1.04556e-05 0)
(2.65961e-05 -7.23005e-06 0)
(5.13592e-05 -3.90577e-06 0)
(6.5804e-05 -5.553e-07 0)
(7.0165e-05 2.70019e-06 0)
(6.51336e-05 5.65361e-06 0)
(5.20772e-05 7.9461e-06 0)
(3.35009e-05 8.93947e-06 0)
(1.44066e-05 7.55027e-06 0)
(2.79441e-06 2.79277e-06 0)
(7.23786e-06 -1.4738e-05 0)
(3.05111e-05 -3.15477e-05 0)
(6.20517e-05 -3.33768e-05 0)
(8.72707e-05 -2.54787e-05 0)
(9.67638e-05 -1.14904e-05 0)
(8.51574e-05 6.01758e-06 0)
(4.91047e-05 2.53669e-05 0)
(-1.32345e-05 4.54663e-05 0)
(-0.000102566 6.55877e-05 0)
(-0.000218817 8.52566e-05 0)
(-0.000361344 0.000104149 0)
(-0.000529112 0.000122058 0)
(-0.000720804 0.000138835 0)
(-0.000934903 0.000154387 0)
(-0.00116976 0.000168652 0)
(-0.00142362 0.000181591 0)
(-0.00169468 0.000193189 0)
(-0.0019811 0.000203442 0)
(-0.00228105 0.000212362 0)
(-0.00259267 0.000219966 0)
(-0.00291412 0.000226271 0)
(-0.0032436 0.000231301 0)
(-0.00357934 0.000235088 0)
(-0.00391959 0.000237661 0)
(-0.00426265 0.000239056 0)
(-0.00460688 0.000239309 0)
(-0.00495066 0.000238456 0)
(-0.00529244 0.000236536 0)
(-0.00563072 0.000233588 0)
(-0.00596406 0.000229653 0)
(-0.00629108 0.000224771 0)
(-0.00661043 0.000218985 0)
(-0.00692085 0.000212335 0)
(-0.00722113 0.000204867 0)
(-0.00751011 0.000196624 0)
(-0.00778671 0.000187646 0)
(-0.00804989 0.000177976 0)
(-0.00829868 0.000167659 0)
(-0.00853219 0.000156739 0)
(-0.00874955 0.000145258 0)
(-0.00895 0.000133259 0)
(-0.00913281 0.000120785 0)
(-0.00929732 0.000107877 0)
(-0.00944295 9.45785e-05 0)
(-0.00956916 8.09326e-05 0)
(-0.00967547 6.69837e-05 0)
(-0.00976151 5.27792e-05 0)
(-0.00982693 3.83667e-05 0)
(-0.00987146 2.37931e-05 0)
(-0.00989492 9.10573e-06 0)
(-0.00989718 -5.64794e-06 0)
(-0.00987819 -2.0418e-05 0)
(-0.00983795 -3.51525e-05 0)
(-0.00977657 -4.98e-05 0)
(-0.00969419 -6.43092e-05 0)
(-0.00959108 -7.86292e-05 0)
(-0.00946753 -9.27084e-05 0)
(-0.00932394 -0.000106493 0)
(-0.00916078 -0.000119928 0)
(-0.00897858 -0.000132961 0)
(-0.00877798 -0.000145539 0)
(-0.00855966 -0.00015761 0)
(-0.0083244 -0.000169121 0)
(-0.00807307 -0.000180017 0)
(-0.00780658 -0.000190241 0)
(-0.00752596 -0.000199738 0)
(-0.00723228 -0.000208456 0)
(-0.0069267 -0.000216343 0)
(-0.00661046 -0.000223345 0)
(-0.00628488 -0.000229411 0)
(-0.00595133 -0.000234492 0)
(-0.00561125 -0.000238537 0)
(-0.00526618 -0.000241499 0)
(-0.00491767 -0.000243332 0)
(-0.00456736 -0.000243996 0)
(-0.00421695 -0.000243453 0)
(-0.00386816 -0.00024167 0)
(-0.00352278 -0.000238617 0)
(-0.00318264 -0.000234267 0)
(-0.00284956 -0.000228597 0)
(-0.00252543 -0.000221589 0)
(-0.00221213 -0.000213234 0)
(-0.00191154 -0.000203526 0)
(-0.00162553 -0.00019247 0)
(-0.00135597 -0.000180079 0)
(-0.00110466 -0.000166377 0)
(-0.000873348 -0.000151401 0)
(-0.000663709 -0.000135212 0)
(-0.000477275 -0.000117895 0)
(-0.000315414 -9.95729e-05 0)
(-0.000179267 -8.04135e-05 0)
(-6.96564e-05 -6.06559e-05 0)
(1.30155e-05 -4.06415e-05 0)
(6.89328e-05 -2.08671e-05 0)
(9.90909e-05 -2.06729e-06 0)
(0.000105608 1.46556e-05 0)
(9.20776e-05 2.76405e-05 0)
(6.41308e-05 3.438e-05 0)
(3.12552e-05 3.12285e-05 0)
(7.55513e-06 1.4398e-05 0)
(8.66728e-06 -3.34593e-05 0)
(3.28815e-05 -6.25533e-05 0)
(6.0616e-05 -6.11118e-05 0)
(7.50073e-05 -3.82155e-05 0)
(6.46076e-05 -1.03766e-06 0)
(2.23793e-05 4.51052e-05 0)
(-5.63269e-05 9.63901e-05 0)
(-0.000174286 0.000150118 0)
(-0.000332765 0.000204393 0)
(-0.000531882 0.000257874 0)
(-0.000770908 0.00030962 0)
(-0.00104849 0.000358962 0)
(-0.0013628 0.000405435 0)
(-0.00171165 0.000448707 0)
(-0.00209264 0.000488555 0)
(-0.00250315 0.000524829 0)
(-0.00294047 0.000557445 0)
(-0.0034018 0.000586362 0)
(-0.00388429 0.000611571 0)
(-0.00438509 0.000633096 0)
(-0.00490135 0.000650977 0)
(-0.00543023 0.000665266 0)
(-0.00596894 0.000676031 0)
(-0.00651475 0.000683355 0)
(-0.00706496 0.000687324 0)
(-0.00761695 0.000688034 0)
(-0.00816819 0.000685586 0)
(-0.00871619 0.000680085 0)
(-0.00925857 0.000671638 0)
(-0.00979302 0.000660359 0)
(-0.0103173 0.000646362 0)
(-0.0108294 0.000629764 0)
(-0.0113271 0.000610682 0)
(-0.0118086 0.000589238 0)
(-0.0122719 0.000565554 0)
(-0.0127154 0.000539749 0)
(-0.0131374 0.000511945 0)
(-0.0135363 0.000482268 0)
(-0.0139107 0.000450843 0)
(-0.0142592 0.000417794 0)
(-0.0145806 0.000383244 0)
(-0.0148736 0.000347317 0)
(-0.0151373 0.000310139 0)
(-0.0153706 0.000271836 0)
(-0.0155728 0.000232538 0)
(-0.015743 0.000192374 0)
(-0.0158807 0.000151478 0)
(-0.0159854 0.000109987 0)
(-0.0160565 6.80357e-05 0)
(-0.0160938 2.57627e-05 0)
(-0.0160971 -1.66913e-05 0)
(-0.0160663 -5.91837e-05 0)
(-0.0160014 -0.000101569 0)
(-0.0159026 -0.000143699 0)
(-0.0157702 -0.000185427 0)
(-0.0156046 -0.000226604 0)
(-0.0154062 -0.000267078 0)
(-0.0151757 -0.000306695 0)
(-0.0149138 -0.000345303 0)
(-0.0146215 -0.000382746 0)
(-0.0142997 -0.00041887 0)
(-0.0139495 -0.000453523 0)
(-0.0135722 -0.000486549 0)
(-0.0131693 -0.000517791 0)
(-0.0127421 -0.000547092 0)
(-0.0122922 -0.000574299 0)
(-0.0118216 -0.000599259 0)
(-0.0113319 -0.000621823 0)
(-0.0108253 -0.000641843 0)
(-0.0103037 -0.000659177 0)
(-0.00976934 -0.000673682 0)
(-0.00922461 -0.000685224 0)
(-0.00867188 -0.000693673 0)
(-0.00811365 -0.000698908 0)
(-0.00755251 -0.000700817 0)
(-0.00699113 -0.000699297 0)
(-0.00643226 -0.000694257 0)
(-0.00587871 -0.000685616 0)
(-0.00533335 -0.000673307 0)
(-0.00479907 -0.000657276 0)
(-0.00427879 -0.000637486 0)
(-0.00377546 -0.00061392 0)
(-0.00329201 -0.000586583 0)
(-0.00283134 -0.000555505 0)
(-0.00239629 -0.000520747 0)
(-0.00198964 -0.000482409 0)
(-0.00161401 -0.000440637 0)
(-0.0012719 -0.00039564 0)
(-0.000965542 -0.000347708 0)
(-0.000696903 -0.000297234 0)
(-0.000467546 -0.000244752 0)
(-0.000278525 -0.000190989 0)
(-0.000130226 -0.000136942 0)
(-2.21516e-05 -8.39865e-05 0)
(4.73486e-05 -3.40403e-05 0)
(8.14291e-05 1.02119e-05 0)
(8.50861e-05 4.50252e-05 0)
(6.56269e-05 6.52659e-05 0)
(3.45717e-05 6.41487e-05 0)
(8.97625e-06 3.35208e-05 0)
(7.54081e-06 -5.08928e-05 0)
(2.5349e-05 -8.75258e-05 0)
(3.8312e-05 -7.54808e-05 0)
(2.92948e-05 -2.89752e-05 0)
(-1.3652e-05 4.12761e-05 0)
(-9.83069e-05 0.00012704 0)
(-0.000229986 0.000222127 0)
(-0.000411969 0.000321966 0)
(-0.000645852 0.000423202 0)
(-0.00093191 0.00052338 0)
(-0.00126936 0.000620698 0)
(-0.00165663 0.00071384 0)
(-0.0020915 0.000801854 0)
(-0.00257131 0.000884046 0)
(-0.00309303 0.00095993 0)
(-0.00365336 0.00102917 0)
(-0.00424882 0.00109156 0)
(-0.00487581 0.00114696 0)
(-0.00553063 0.00119533 0)
(-0.00620956 0.00123667 0)
(-0.00690885 0.00127104 0)
(-0.00762478 0.00129852 0)
(-0.00835366 0.00131922 0)
(-0.00909183 0.00133329 0)
(-0.00983574 0.00134087 0)
(-0.0105819 0.00134215 0)
(-0.0113269 0.0013373 0)
(-0.0120674 0.00132653 0)
(-0.0128003 0.00131003 0)
(-0.0135224 0.00128803 0)
(-0.0142307 0.00126073 0)
(-0.0149224 0.00122837 0)
(-0.0155948 0.00119117 0)
(-0.0162452 0.00114936 0)
(-0.0168711 0.00110316 0)
(-0.0174701 0.00105283 0)
(-0.0180401 0.000998592 0)
(-0.0185789 0.000940688 0)
(-0.0190846 0.000879361 0)
(-0.0195552 0.000814856 0)
(-0.0199891 0.000747413 0)
(-0.0203848 0.000677279 0)
(-0.0207407 0.0006047 0)
(-0.0210557 0.000529928 0)
(-0.0213285 0.000453216 0)
(-0.0215582 0.000374822 0)
(-0.0217439 0.000295005 0)
(-0.0218849 0.000214031 0)
(-0.0219806 0.000132165 0)
(-0.0220306 4.96809e-05 0)
(-0.0220347 -3.31467e-05 0)
(-0.0219927 -0.000116038 0)
(-0.0219048 -0.00019871 0)
(-0.021771 -0.000280879 0)
(-0.0215919 -0.000362254 0)
(-0.0213678 -0.000442542 0)
(-0.0210996 -0.000521449 0)
(-0.020788 -0.000598674 0)
(-0.0204341 -0.000673919 0)
(-0.0200391 -0.000746883 0)
(-0.0196044 -0.000817264 0)
(-0.0191314 -0.000884761 0)
(-0.0186218 -0.000949071 0)
(-0.0180776 -0.00100989 0)
(-0.0175008 -0.00106692 0)
(-0.0168935 -0.00111986 0)
(-0.0162581 -0.00116842 0)
(-0.015597 -0.0012123 0)
(-0.0149131 -0.00125123 0)
(-0.014209 -0.00128493 0)
(-0.0134877 -0.00131314 0)
(-0.0127524 -0.0013356 0)
(-0.0120062 -0.00135206 0)
(-0.0112525 -0.0013623 0)
(-0.0104948 -0.00136611 0)
(-0.0097366 -0.00136329 0)
(-0.00898159 -0.00135368 0)
(-0.00823349 -0.00133714 0)
(-0.00749611 -0.00131354 0)
(-0.00677327 -0.00128279 0)
(-0.00606884 -0.00124485 0)
(-0.00538669 -0.00119969 0)
(-0.00473065 -0.00114735 0)
(-0.00410452 -0.00108791 0)
(-0.00351198 -0.00102153 0)
(-0.0029566 -0.000948441 0)
(-0.00244176 -0.000868962 0)
(-0.0019706 -0.000783545 0)
(-0.00154593 -0.000692795 0)
(-0.00117016 -0.000597519 0)
(-0.000845154 -0.000498787 0)
(-0.000572131 -0.000398017 0)
(-0.000351441 -0.000297096 0)
(-0.000182367 -0.000198547 0)
(-6.28383e-05 -0.000105747 0)
(1.08919e-05 -2.32284e-05 0)
(4.45508e-05 4.29624e-05 0)
(4.62512e-05 8.49041e-05 0)
(2.82009e-05 9.24404e-05 0)
(8.05771e-06 5.22609e-05 0)
(5.19181e-06 -6.26799e-05 0)
(1.18831e-05 -9.73024e-05 0)
(2.12731e-06 -6.55094e-05 0)
(-3.95071e-05 1.37794e-05 0)
(-0.000124439 0.000126459 0)
(-0.000260572 0.00026148 0)
(-0.000453351 0.000410315 0)
(-0.000706204 0.000566478 0)
(-0.00102084 0.000725046 0)
(-0.00139753 0.000882305 0)
(-0.00183541 0.00103546 0)
(-0.00233272 0.00118242 0)
(-0.00288693 0.00132162 0)
(-0.00349496 0.0014519 0)
(-0.00415327 0.00157241 0)
(-0.004858 0.00168256 0)
(-0.00560505 0.00178196 0)
(-0.0063901 0.00187034 0)
(-0.00720875 0.00194759 0)
(-0.0080565 0.00201366 0)
(-0.00892885 0.0020686 0)
(-0.00982126 0.00211252 0)
(-0.0107293 0.00214557 0)
(-0.0116484 0.00216797 0)
(-0.0125743 0.00217993 0)
(-0.0135027 0.00218172 0)
(-0.0144295 0.00217363 0)
(-0.0153505 0.00215597 0)
(-0.0162618 0.00212905 0)
(-0.0171596 0.00209321 0)
(-0.0180402 0.00204879 0)
(-0.0189 0.00199616 0)
(-0.0197357 0.00193567 0)
(-0.0205441 0.00186769 0)
(-0.0213219 0.0017926 0)
(-0.0220664 0.00171078 0)
(-0.0227747 0.00162261 0)
(-0.0234442 0.00152848 0)
(-0.0240724 0.00142877 0)
(-0.0246571 0.00132389 0)
(-0.0251961 0.00121424 0)
(-0.0256876 0.0011002 0)
(-0.0261297 0.000982193 0)
(-0.0265208 0.000860623 0)
(-0.0268595 0.000735905 0)
(-0.0271446 0.000608459 0)
(-0.027375 0.000478709 0)
(-0.0275498 0.000347085 0)
(-0.0276684 0.000214024 0)
(-0.0277302 7.997e-05 0)
(-0.0277349 -5.46299e-05 0)
(-0.0276824 -0.000189321 0)
(-0.0275727 -0.000323643 0)
(-0.0274062 -0.000457133 0)
(-0.0271833 -0.00058932 0)
(-0.0269046 -0.000719727 0)
(-0.0265711 -0.000847874 0)
(-0.0261837 -0.000973277 0)
(-0.0257439 -0.00109545 0)
(-0.025253 -0.0012139 0)
(-0.0247127 -0.00132815 0)
(-0.0241251 -0.0014377 0)
(-0.023492 -0.00154206 0)
(-0.022816 -0.00164074 0)
(-0.0220994 -0.00173326 0)
(-0.021345 -0.00181914 0)
(-0.0205557 -0.00189791 0)
(-0.0197347 -0.0019691 0)
(-0.0188851 -0.00203226 0)
(-0.0180105 -0.00208695 0)
(-0.0171145 -0.00213276 0)
(-0.016201 -0.00216926 0)
(-0.0152738 -0.00219609 0)
(-0.0143372 -0.00221288 0)
(-0.0133953 -0.00221931 0)
(-0.0124526 -0.00221508 0)
(-0.0115136 -0.00219993 0)
(-0.0105826 -0.00217363 0)
(-0.00966455 -0.00213602 0)
(-0.00876393 -0.00208697 0)
(-0.00788549 -0.00202642 0)
(-0.00703391 -0.00195438 0)
(-0.00621381 -0.00187093 0)
(-0.00542975 -0.00177623 0)
(-0.00468616 -0.00167059 0)
(-0.00398727 -0.00155441 0)
(-0.0033371 -0.00142826 0)
(-0.00273932 -0.00129293 0)
(-0.00219721 -0.00114943 0)
(-0.00171356 -0.000999088 0)
(-0.0012905 -0.000843648 0)
(-0.000929379 -0.000685357 0)
(-0.000630586 -0.000527139 0)
(-0.00039332 -0.000372795 0)
(-0.000215342 -0.000227273 0)
(-9.26936e-05 -9.70072e-05 0)
(-1.9421e-05 9.66819e-06 0)
(1.27879e-05 8.21143e-05 0)
(1.57971e-05 0.000106868 0)
(5.88667e-06 6.57351e-05 0)
(2.24894e-06 -6.62615e-05 0)
(-5.01223e-06 -8.65091e-05 0)
(-4.28466e-05 -2.42617e-05 0)
(-0.000123637 9.77491e-05 0)
(-0.000257467 0.000262355 0)
(-0.000451866 0.000455943 0)
(-0.000712028 0.000667776 0)
(-0.0010412 0.000889477 0)
(-0.00144097 0.00111456 0)
(-0.00191148 0.00133801 0)
(-0.00245171 0.00155594 0)
(-0.00305963 0.00176541 0)
(-0.00373245 0.00196415 0)
(-0.00446672 0.00215045 0)
(-0.00525847 0.00232304 0)
(-0.00610333 0.00248101 0)
(-0.00699665 0.00262371 0)
(-0.00793354 0.00275072 0)
(-0.00890895 0.00286179 0)
(-0.00991772 0.00295683 0)
(-0.0109547 0.00303586 0)
(-0.0120146 0.00309899 0)
(-0.0130922 0.00314642 0)
(-0.0141825 0.00317841 0)
(-0.0152803 0.00319526 0)
(-0.0163806 0.00319736 0)
(-0.0174786 0.00318508 0)
(-0.0185695 0.00315887 0)
(-0.0196487 0.00311916 0)
(-0.0207116 0.00306645 0)
(-0.0217541 0.00300122 0)
(-0.0227718 0.00292399 0)
(-0.0237609 0.00283527 0)
(-0.0247174 0.00273561 0)
(-0.0256378 0.00262553 0)
(-0.0265186 0.00250561 0)
(-0.0273565 0.00237638 0)
(-0.0281485 0.00223843 0)
(-0.0288916 0.00209232 0)
(-0.0295831 0.00193863 0)
(-0.0302206 0.00177794 0)
(-0.0308017 0.00161083 0)
(-0.0313244 0.00143791 0)
(-0.0317868 0.00125978 0)
(-0.0321872 0.00107705 0)
(-0.0325241 0.000890331 0)
(-0.0327963 0.000700246 0)
(-0.0330027 0.000507431 0)
(-0.0331426 0.000312527 0)
(-0.0332154 0.000116181 0)
(-0.0332206 -8.09466e-05 0)
(-0.0331581 -0.000278192 0)
(-0.0330281 -0.000474883 0)
(-0.0328309 -0.000670335 0)
(-0.0325669 -0.000863862 0)
(-0.0322371 -0.00105477 0)
(-0.0318424 -0.00124234 0)
(-0.0313841 -0.00142589 0)
(-0.0308637 -0.00160469 0)
(-0.030283 -0.00177804 0)
(-0.029644 -0.00194521 0)
(-0.0289489 -0.0021055 0)
(-0.0282002 -0.00225818 0)
(-0.0274007 -0.00240256 0)
(-0.0265533 -0.00253791 0)
(-0.0256611 -0.00266356 0)
(-0.0247277 -0.0027788 0)
(-0.0237566 -0.00288299 0)
(-0.0227518 -0.00297545 0)
(-0.0217172 -0.00305557 0)
(-0.0206573 -0.00312272 0)
(-0.0195764 -0.00317634 0)
(-0.0184792 -0.00321588 0)
(-0.0173706 -0.00324082 0)
(-0.0162554 -0.00325072 0)
(-0.0151388 -0.00324514 0)
(-0.0140261 -0.00322373 0)
(-0.0129224 -0.0031862 0)
(-0.0118333 -0.00313231 0)
(-0.010764 -0.0030619 0)
(-0.00972008 -0.00297493 0)
(-0.00870689 -0.00287143 0)
(-0.00772977 -0.00275156 0)
(-0.00679394 -0.00261562 0)
(-0.00590446 -0.00246407 0)
(-0.00506616 -0.00229756 0)
(-0.00428359 -0.00211697 0)
(-0.0035609 -0.00192348 0)
(-0.00290179 -0.0017186 0)
(-0.00230937 -0.00150428 0)
(-0.00178604 -0.00128301 0)
(-0.00133334 -0.00105796 0)
(-0.000951761 -0.000833172 0)
(-0.000640589 -0.000613791 0)
(-0.00039765 -0.000406348 0)
(-0.000219094 -0.000219142 0)
(-9.91355e-05 -6.26857e-05 0)
(-2.97367e-05 4.98537e-05 0)
(-1.67751e-07 0.000102016 0)
(3.09563e-06 7.15488e-05 0)
(-9.40806e-07 -6.04348e-05 0)
(-2.37657e-05 -5.18325e-05 0)
(-9.30734e-05 5.29838e-05 0)
(-0.000217416 0.000228394 0)
(-0.000405016 0.000454709 0)
(-0.000662624 0.000716047 0)
(-0.000994876 0.000999653 0)
(-0.00140457 0.00129541 0)
(-0.00189296 0.0015953 0)
(-0.0024599 0.00189301 0)
(-0.00310411 0.00218357 0)
(-0.00382329 0.00246312 0)
(-0.00461431 0.00272864 0)
(-0.00547337 0.00297782 0)
(-0.00639611 0.00320893 0)
(-0.00737772 0.00342065 0)
(-0.00841304 0.00361205 0)
(-0.00949666 0.00378252 0)
(-0.010623 0.00393165 0)
(-0.0117863 0.00405925 0)
(-0.0129807 0.00416531 0)
(-0.0142005 0.00424994 0)
(-0.0154397 0.00431335 0)
(-0.0166926 0.00435587 0)
(-0.0179536 0.00437789 0)
(-0.0192168 0.00437988 0)
(-0.0204769 0.00436234 0)
(-0.0217285 0.00432586 0)
(-0.0229663 0.00427101 0)
(-0.0241852 0.00419844 0)
(-0.0253803 0.00410881 0)
(-0.0265469 0.00400281 0)
(-0.0276804 0.00388114 0)
(-0.0287766 0.00374451 0)
(-0.0298311 0.00359367 0)
(-0.0308402 0.00342936 0)
(-0.0318001 0.00325235 0)
(-0.0327072 0.0030634 0)
(-0.0335583 0.00286329 0)
(-0.0343502 0.00265281 0)
(-0.0350802 0.00243276 0)
(-0.0357456 0.00220395 0)
(-0.036344 0.00196719 0)
(-0.0368733 0.00172331 0)
(-0.0373315 0.00147314 0)
(-0.037717 0.00121752 0)
(-0.0380285 0.000957319 0)
(-0.0382646 0.000693396 0)
(-0.0384245 0.000426633 0)
(-0.0385074 0.000157917 0)
(-0.0385131 -0.000111851 0)
(-0.0384413 -0.000381761 0)
(-0.0382922 -0.00065089 0)
(-0.0380661 -0.000918307 0)
(-0.0377636 -0.00118307 0)
(-0.0373857 -0.00144422 0)
(-0.0369336 -0.00170081 0)
(-0.0364087 -0.00195187 0)
(-0.0358127 -0.00219642 0)
(-0.0351477 -0.0024335 0)
(-0.034416 -0.00266213 0)
(-0.03362 -0.00288134 0)
(-0.0327627 -0.00309015 0)
(-0.0318472 -0.00328759 0)
(-0.0308767 -0.00347272 0)
(-0.0298551 -0.00364459 0)
(-0.0287861 -0.00380227 0)
(-0.0276739 -0.00394486 0)
(-0.0265229 -0.00407148 0)
(-0.0253377 -0.00418127 0)
(-0.0241232 -0.00427343 0)
(-0.0228845 -0.00434716 0)
(-0.0216268 -0.00440176 0)
(-0.0203556 -0.00443654 0)
(-0.0190765 -0.00445088 0)
(-0.0177952 -0.00444426 0)
(-0.0165177 -0.00441618 0)
(-0.0152499 -0.00436629 0)
(-0.0139978 -0.00429429 0)
(-0.0127676 -0.00420001 0)
(-0.0115654 -0.0040834 0)
(-0.0103971 -0.00394456 0)
(-0.00926871 -0.00378376 0)
(-0.0081861 -0.00360144 0)
(-0.00715486 -0.00339827 0)
(-0.00618036 -0.00317519 0)
(-0.00526761 -0.00293344 0)
(-0.00442123 -0.00267465 0)
(-0.00364528 -0.0024009 0)
(-0.0029432 -0.00211479 0)
(-0.00231769 -0.00181965 0)
(-0.00177054 -0.00151962 0)
(-0.00130246 -0.00121987 0)
(-0.00091297 -0.000926893 0)
(-0.000600171 -0.000648761 0)
(-0.000360585 -0.000395534 0)
(-0.000188915 -0.000179722 0)
(-7.77682e-05 -1.67334e-05 0)
(-1.81024e-05 7.4434e-05 0)
(3.18866e-08 6.84168e-05 0)
(-4.19228e-06 -4.46168e-05 0)
(-4.33773e-05 8.68866e-06 0)
(-0.000146146 0.000169265 0)
(-0.000316835 0.000409445 0)
(-0.000561443 0.00070756 0)
(-0.000885713 0.00104582 0)
(-0.00129344 0.00140973 0)
(-0.00178676 0.00178757 0)
(-0.0023664 0.0021699 0)
(-0.00303182 0.00254918 0)
(-0.00378136 0.00291936 0)
(-0.00461234 0.00327564 0)
(-0.00552132 0.00361426 0)
(-0.00650409 0.00393228 0)
(-0.00755592 0.00422741 0)
(-0.00867156 0.00449796 0)
(-0.00984541 0.00474268 0)
(-0.0110716 0.00496069 0)
(-0.012344 0.00515142 0)
(-0.0136563 0.00531458 0)
(-0.0150023 0.00545008 0)
(-0.0163754 0.00555802 0)
(-0.0177694 0.00563863 0)
(-0.0191778 0.00569229 0)
(-0.0205943 0.00571948 0)
(-0.0220128 0.00572075 0)
(-0.0234271 0.00569676 0)
(-0.0248313 0.0056482 0)
(-0.0262196 0.00557583 0)
(-0.0275864 0.00548047 0)
(-0.0289261 0.00536295 0)
(-0.0302336 0.00522415 0)
(-0.0315039 0.00506497 0)
(-0.032732 0.00488634 0)
(-0.0339134 0.00468922 0)
(-0.0350437 0.00447456 0)
(-0.0361187 0.00424336 0)
(-0.0371345 0.00399662 0)
(-0.0380874 0.00373534 0)
(-0.0389741 0.00346055 0)
(-0.0397912 0.0031733 0)
(-0.0405361 0.00287463 0)
(-0.0412058 0.00256561 0)
(-0.0417982 0.00224732 0)
(-0.042311 0.00192085 0)
(-0.0427423 0.00158729 0)
(-0.0430907 0.00124778 0)
(-0.0433548 0.000903431 0)
(-0.0435335 0.0005554 0)
(-0.0436262 0.000204844 0)
(-0.0436323 -0.000147061 0)
(-0.0435518 -0.000499129 0)
(-0.0433846 -0.000850156 0)
(-0.0431314 -0.00119893 0)
(-0.0427927 -0.00154422 0)
(-0.0423696 -0.00188479 0)
(-0.0418634 -0.00221939 0)
(-0.0412758 -0.00254676 0)
(-0.0406087 -0.00286565 0)
(-0.0398643 -0.00317479 0)
(-0.0390452 -0.00347291 0)
(-0.0381542 -0.00375874 0)
(-0.0371946 -0.00403104 0)
(-0.0361696 -0.00428854 0)
(-0.0350832 -0.00453001 0)
(-0.0339393 -0.00475424 0)
(-0.0327423 -0.00496002 0)
(-0.0314968 -0.00514619 0)
(-0.0302077 -0.00531162 0)
(-0.02888 -0.00545521 0)
(-0.0275193 -0.00557592 0)
(-0.026131 -0.00567276 0)
(-0.024721 -0.00574479 0)
(-0.0232955 -0.00579117 0)
(-0.0218604 -0.00581112 0)
(-0.0204223 -0.00580395 0)
(-0.0189876 -0.0057691 0)
(-0.0175629 -0.00570608 0)
(-0.0161549 -0.00561458 0)
(-0.0147702 -0.0054944 0)
(-0.0134155 -0.00534553 0)
(-0.0120975 -0.00516812 0)
(-0.0108226 -0.00496257 0)
(-0.00959723 -0.0047295 0)
(-0.00842753 -0.00446984 0)
(-0.00731933 -0.00418483 0)
(-0.00627811 -0.00387613 0)
(-0.00530888 -0.00354585 0)
(-0.00441611 -0.00319665 0)
(-0.00360359 -0.00283188 0)
(-0.00287434 -0.00245569 0)
(-0.00223046 -0.00207321 0)
(-0.00167304 -0.00169074 0)
(-0.00120193 -0.00131608 0)
(-0.000815709 -0.000958734 0)
(-0.000511486 -0.000630389 0)
(-0.000284698 -0.000345317 0)
(-0.00012887 -0.000120833 0)
(-3.69964e-05 2.20339e-05 0)
(-3.11264e-06 5.56872e-05 0)
(-7.4069e-06 -1.86147e-05 0)
(-6.32525e-05 9.60703e-05 0)
(-0.000200468 0.000326339 0)
(-0.000419088 0.000643229 0)
(-0.000722726 0.00102357 0)
(-0.0011159 0.00144806 0)
(-0.00160139 0.0019007 0)
(-0.00218051 0.00236837 0)
(-0.00285331 0.00284037 0)
(-0.00361871 0.00330798 0)
(-0.00447456 0.00376412 0)
(-0.00541779 0.00420311 0)
(-0.00644451 0.00462042 0)
(-0.00755015 0.00501246 0)
(-0.00872954 0.00537643 0)
(-0.00997704 0.00571018 0)
(-0.0112866 0.00601212 0)
(-0.0126519 0.00628112 0)
(-0.0140664 0.00651642 0)
(-0.0155233 0.00671759 0)
(-0.0170157 0.00688446 0)
(-0.0185368 0.00701709 0)
(-0.0200797 0.00711575 0)
(-0.0216374 0.00718084 0)
(-0.0232031 0.00721294 0)
(-0.0247702 0.00721269 0)
(-0.0263319 0.00718089 0)
(-0.0278818 0.00711837 0)
(-0.0294136 0.00702608 0)
(-0.0309211 0.00690498 0)
(-0.0323986 0.00675613 0)
(-0.0338401 0.00658061 0)
(-0.0352402 0.00637952 0)
(-0.0365936 0.00615404 0)
(-0.0378953 0.00590535 0)
(-0.0391405 0.00563465 0)
(-0.0403246 0.00534317 0)
(-0.0414434 0.00503216 0)
(-0.0424929 0.0047029 0)
(-0.0434692 0.00435667 0)
(-0.0443689 0.00399478 0)
(-0.0451889 0.00361855 0)
(-0.0459262 0.00322933 0)
(-0.0465783 0.00282845 0)
(-0.0471427 0.00241731 0)
(-0.0476174 0.00199728 0)
(-0.0480008 0.00156977 0)
(-0.0482913 0.00113621 0)
(-0.048488 0.000698041 0)
(-0.0485898 0.00025672 0)
(-0.0485965 -0.000186274 0)
(-0.0485077 -0.000629449 0)
(-0.0483237 -0.00107129 0)
(-0.0480449 -0.00151028 0)
(-0.047672 -0.00194486 0)
(-0.0472063 -0.00237349 0)
(-0.0466492 -0.0027946 0)
(-0.0460024 -0.0032066 0)
(-0.0452681 -0.00360793 0)
(-0.0444487 -0.003997 0)
(-0.0435471 -0.00437221 0)
(-0.0425663 -0.00473199 0)
(-0.0415098 -0.00507476 0)
(-0.0403814 -0.00539896 0)
(-0.0391852 -0.00570304 0)
(-0.0379255 -0.00598549 0)
(-0.0366072 -0.00624481 0)
(-0.0352352 -0.00647955 0)
(-0.0338149 -0.00668831 0)
(-0.0323519 -0.00686972 0)
(-0.030852 -0.00702249 0)
(-0.0293213 -0.00714541 0)
(-0.0277662 -0.00723732 0)
(-0.0261933 -0.00729718 0)
(-0.0246093 -0.00732405 0)
(-0.023021 -0.00731709 0)
(-0.0214356 -0.00727561 0)
(-0.0198602 -0.00719906 0)
(-0.0183019 -0.00708707 0)
(-0.0167681 -0.00693943 0)
(-0.0152659 -0.00675616 0)
(-0.0138025 -0.00653752 0)
(-0.012385 -0.00628404 0)
(-0.0110201 -0.00599653 0)
(-0.00971455 -0.0056762 0)
(-0.00847462 -0.00532464 0)
(-0.00730622 -0.00494392 0)
(-0.00621478 -0.00453668 0)
(-0.00520515 -0.00410622 0)
(-0.00428153 -0.00365659 0)
(-0.00344732 -0.00319279 0)
(-0.00270502 -0.00272093 0)
(-0.00205614 -0.0022484 0)
(-0.00150107 -0.00178421 0)
(-0.00103896 -0.00133921 0)
(-0.000667698 -0.000926524 0)
(-0.000383637 -0.00056194 0)
(-0.000181406 -0.000264332 0)
(-5.62205e-05 -5.62808e-05 0)
(-6.23477e-06 3.3113e-05 0)
(-1.05362e-05 1.75542e-05 0)
(-8.30107e-05 0.000210645 0)
(-0.000255014 0.00052505 0)
(-0.000522281 0.000931019 0)
(-0.000886006 0.00140434 0)
(-0.00134938 0.00192451 0)
(-0.00191406 0.00247433 0)
(-0.00258038 0.00303948 0)
(-0.0033476 0.00360811 0)
(-0.00421399 0.00417044 0)
(-0.00517684 0.00471845 0)
(-0.00623256 0.00524561 0)
(-0.00737682 0.00574665 0)
(-0.00860461 0.00621733 0)
(-0.00991034 0.00665433 0)
(-0.0112879 0.00705507 0)
(-0.0127309 0.00741759 0)
(-0.0142326 0.00774049 0)
(-0.0157858 0.0080228 0)
(-0.0173835 0.00826394 0)
(-0.0190182 0.00846367 0)
(-0.0206827 0.008622 0)
(-0.0223696 0.00873921 0)
(-0.0240713 0.00881575 0)
(-0.0257808 0.00885225 0)
(-0.0274907 0.00884949 0)
(-0.0291939 0.00880838 0)
(-0.0308836 0.00872993 0)
(-0.0325528 0.00861523 0)
(-0.0341951 0.00846546 0)
(-0.0358041 0.00828188 0)
(-0.0373736 0.00806578 0)
(-0.0388976 0.00781852 0)
(-0.0403705 0.00754149 0)
(-0.0417868 0.00723612 0)
(-0.0431415 0.00690389 0)
(-0.0444295 0.00654629 0)
(-0.0456463 0.00616485 0)
(-0.0467875 0.00576111 0)
(-0.0478491 0.00533665 0)
(-0.0488273 0.00489305 0)
(-0.0497187 0.00443194 0)
(-0.0505202 0.00395496 0)
(-0.051229 0.00346375 0)
(-0.0518424 0.00296 0)
(-0.0523584 0.00244541 0)
(-0.0527751 0.0019217 0)
(-0.0530909 0.00139061 0)
(-0.0533046 0.000853913 0)
(-0.0534153 0.000313383 0)
(-0.0534226 -0.00022917 0)
(-0.0533262 -0.000771917 0)
(-0.0531263 -0.00131301 0)
(-0.0528234 -0.00185059 0)
(-0.0524183 -0.00238277 0)
(-0.0519123 -0.00290765 0)
(-0.051307 -0.00342331 0)
(-0.0506042 -0.00392785 0)
(-0.0498063 -0.00441932 0)
(-0.0489159 -0.00489579 0)
(-0.047936 -0.00535534 0)
(-0.04687 -0.00579603 0)
(-0.0457216 -0.00621595 0)
(-0.0444949 -0.0066132 0)
(-0.0431943 -0.00698591 0)
(-0.0418245 -0.00733222 0)
(-0.0403907 -0.00765033 0)
(-0.0388983 -0.00793849 0)
(-0.0373529 -0.00819498 0)
(-0.0357607 -0.00841817 0)
(-0.0341278 -0.00860651 0)
(-0.0324609 -0.00875851 0)
(-0.0307668 -0.00887282 0)
(-0.0290526 -0.00894816 0)
(-0.0273254 -0.00898343 0)
(-0.0255926 -0.00897764 0)
(-0.0238619 -0.00892997 0)
(-0.0221409 -0.00883979 0)
(-0.0204372 -0.00870668 0)
(-0.0187587 -0.00853044 0)
(-0.0171131 -0.00831112 0)
(-0.0155079 -0.00804908 0)
(-0.0139508 -0.007745 0)
(-0.012449 -0.00739993 0)
(-0.0110097 -0.00701533 0)
(-0.00963959 -0.00659318 0)
(-0.008345 -0.00613599 0)
(-0.00713181 -0.00564693 0)
(-0.0060053 -0.00512991 0)
(-0.00497008 -0.00458973 0)
(-0.00403001 -0.00403221 0)
(-0.00318806 -0.00346438 0)
(-0.00244628 -0.00289469 0)
(-0.00180565 -0.00233325 0)
(-0.00126608 -0.00179212 0)
(-0.00082632 -0.00128568 0)
(-0.000483779 -0.000831001 0)
(-0.000234303 -0.000448186 0)
(-7.53897e-05 -0.000160942 0)
(-9.28116e-06 6.90231e-07 0)
(-1.35609e-05 6.37252e-05 0)
(-0.000102452 0.000352352 0)
(-0.000309102 0.000765598 0)
(-0.000625142 0.00127333 0)
(-0.00104933 0.00185064 0)
(-0.0015835 0.00247615 0)
(-0.00222809 0.00313168 0)
(-0.00298238 0.00380191 0)
(-0.00384476 0.00447399 0)
(-0.00481273 0.00513721 0)
(-0.00588294 0.0057827 0)
(-0.00705125 0.00640312 0)
(-0.0083128 0.00699249 0)
(-0.00966212 0.00754599 0)
(-0.0110931 0.00805977 0)
(-0.0125994 0.0085308 0)
(-0.0141739 0.00895678 0)
(-0.0158095 0.00933602 0)
(-0.0174988 0.00966735 0)
(-0.0192342 0.00995003 0)
(-0.0210077 0.0101837 0)
(-0.0228118 0.0103684 0)
(-0.0246385 0.0105044 0)
(-0.0264799 0.0105921 0)
(-0.0283284 0.0106323 0)
(-0.0301764 0.0106258 0)
(-0.0320161 0.0105738 0)
(-0.0338404 0.0104773 0)
(-0.0356419 0.0103377 0)
(-0.0374137 0.0101563 0)
(-0.0391489 0.00993457 0)
(-0.0408411 0.0096741 0)
(-0.0424839 0.00937646 0)
(-0.0440712 0.00904331 0)
(-0.0455973 0.00867634 0)
(-0.0470565 0.0082773 0)
(-0.0484439 0.00784796 0)
(-0.0497542 0.00739015 0)
(-0.0509831 0.00690571 0)
(-0.0521261 0.00639651 0)
(-0.0531793 0.00586447 0)
(-0.0541389 0.0053115 0)
(-0.0550017 0.00473957 0)
(-0.0557646 0.00415065 0)
(-0.0564249 0.00354676 0)
(-0.0569803 0.00292993 0)
(-0.0574288 0.00230222 0)
(-0.0577687 0.0016657 0)
(-0.0579989 0.0010225 0)
(-0.0581182 0.000374747 0)
(-0.0581263 -0.000275403 0)
(-0.0580228 -0.000925762 0)
(-0.057808 -0.00157412 0)
(-0.0574823 -0.00221826 0)
(-0.0570468 -0.00285592 0)
(-0.0565026 -0.00348484 0)
(-0.0558515 -0.00410273 0)
(-0.0550956 -0.0047073 0)
(-0.0542373 -0.00529626 0)
(-0.0532794 -0.00586729 0)
(-0.0522251 -0.00641809 0)
(-0.051078 -0.00694638 0)
(-0.049842 -0.00744986 0)
(-0.0485216 -0.00792628 0)
(-0.0471215 -0.00837341 0)
(-0.0456466 -0.00878905 0)
(-0.0441024 -0.00917107 0)
(-0.0424947 -0.00951738 0)
(-0.0408295 -0.00982595 0)
(-0.0391134 -0.0100949 0)
(-0.0373529 -0.0103222 0)
(-0.0355551 -0.0105064 0)