/*--------------------------------*- C++ -*----------------------------------*\
  =========                 |
  \\      /  F ield         | OpenFOAM: The Open Source CFD Toolbox
   \\    /   O peration     | Website:  https://openfoam.org
    \\  /    A nd           | Version:  11
     \\/     M anipulation  |
\*---------------------------------------------------------------------------*/
FoamFile
{
    format      ascii;
    class       surfaceScalarField;
    location    "2.3";
    object      phi;
}
// * * * * * * * * * * * * * * * * * * * * * * * * * * * * * * * * * * * * * //

dimensions      [0 3 -1 0 0 0 0];

internalField   nonuniform List<scalar> 
19980
(
6.95789e-07
-6.95751e-07
1.75881e-06
-1.06292e-06
2.31685e-06
-5.57977e-07
2.24952e-06
6.72094e-08
1.55509e-06
6.9449e-07
2.1028e-07
1.34468e-06
-1.79257e-06
2.00269e-06
-4.46313e-06
2.67049e-06
-7.78978e-06
3.32666e-06
-1.17561e-05
3.9664e-06
-1.63334e-05
4.57744e-06
-2.14913e-05
5.15792e-06
-2.71932e-05
5.70192e-06
-3.34004e-05
6.20706e-06
-4.00703e-05
6.66982e-06
-4.71608e-05
7.09052e-06
-5.46268e-05
7.46593e-06
-6.24197e-05
7.79308e-06
-7.04927e-05
8.0731e-06
-7.87954e-05
8.30256e-06
-8.72806e-05
8.48524e-06
-9.59017e-05
8.62116e-06
-0.000104611
8.70912e-06
-0.000113363
8.75204e-06
-0.000122115
8.75257e-06
-0.000130825
8.71024e-06
-0.000139456
8.63103e-06
-0.000147976
8.51968e-06
-0.00015635
8.37416e-06
-0.000164546
8.19551e-06
-0.000172533
7.98772e-06
-0.000180285
7.75132e-06
-0.000187772
7.48683e-06
-0.000194968
7.19625e-06
-0.00020185
6.88204e-06
-0.000208395
6.54472e-06
-0.000214579
6.18405e-06
-0.000220381
5.80247e-06
-0.000225784
5.40262e-06
-0.00023077
4.98655e-06
-0.000235327
4.55662e-06
-0.000239442
4.1149e-06
-0.000243106
3.66373e-06
-0.00024631
3.20438e-06
-0.000249046
2.73641e-06
-0.000251307
2.26055e-06
-0.000253086
1.77904e-06
-0.00025438
1.29406e-06
-0.000255188
8.07463e-07
-0.000255509
3.21018e-07
-0.000255344
-1.64245e-07
-0.000254696
-6.48794e-07
-0.000253562
-1.13334e-06
-0.000251945
-1.61692e-06
-0.000249847
-2.09779e-06
-0.000247273
-2.57473e-06
-0.000244226
-3.04665e-06
-0.000240714
-3.51208e-06
-0.000236745
-3.96925e-06
-0.000232329
-4.41633e-06
-0.000227476
-4.85215e-06
-0.0002222
-5.27647e-06
-0.000216511
-5.68888e-06
-0.000210423
-6.08787e-06
-0.000203952
-6.47109e-06
-0.000197116
-6.83604e-06
-0.000189935
-7.18082e-06
-0.000182431
-7.50436e-06
-0.000174625
-7.80561e-06
-0.000166543
-8.08268e-06
-0.00015821
-8.33304e-06
-0.000149655
-8.55426e-06
-0.000140911
-8.74407e-06
-0.000132011
-8.89967e-06
-0.000122994
-9.01759e-06
-0.000113899
-9.09449e-06
-0.000104772
-9.12773e-06
-9.56566e-05
-9.11501e-06
-8.6603e-05
-9.0535e-06
-7.76633e-05
-8.93971e-06
-6.88935e-05
-8.7697e-06
-6.03537e-05
-8.53991e-06
-5.21053e-05
-8.24846e-06
-4.42093e-05
-7.89597e-06
-3.67244e-05
-7.48492e-06
-2.97068e-05
-7.01768e-06
-2.32116e-05
-6.49534e-06
-1.72932e-05
-5.91838e-06
-1.20054e-05
-5.2877e-06
-7.40032e-06
-4.6051e-06
-3.52639e-06
-3.87395e-06
-4.26138e-07
-3.10022e-06
1.86751e-06
-2.29361e-06
3.33671e-06
-1.46924e-06
3.98676e-06
-6.50114e-07
3.86098e-06
1.25814e-07
3.06878e-06
7.92234e-07
1.83492e-06
1.23376e-06
5.88875e-07
1.2459e-06
5.88765e-07
1.71276e-06
-2.40842e-06
3.79501e-06
-3.14547e-06
4.71899e-06
-1.48172e-06
4.08936e-06
6.96886e-07
1.71498e-06
3.06921e-06
-2.52799e-06
5.58768e-06
-8.70788e-06
8.18282e-06
-1.68318e-05
1.07945e-05
-2.68719e-05
1.33667e-05
-3.87635e-05
1.5858e-05
-5.24209e-05
1.82348e-05
-6.7739e-05
2.04761e-05
-8.46025e-05
2.25655e-05
-0.000102884
2.4489e-05
-0.000122456
2.62417e-05
-0.00014318
2.78141e-05
-0.000164919
2.92053e-05
-0.000187539
3.04126e-05
-0.0002109
3.14348e-05
-0.000234868
3.22703e-05
-0.00025931
3.2927e-05
-0.000284095
3.34054e-05
-0.000309096
3.37105e-05
-0.000334193
3.38486e-05
-0.000359266
3.38253e-05
-0.000384204
3.36485e-05
-0.000408902
3.33294e-05
-0.000433259
3.28763e-05
-0.00045718
3.22948e-05
-0.000480576
3.15921e-05
-0.000503364
3.07755e-05
-0.000525462
2.98491e-05
-0.000546794
2.88189e-05
-0.00056729
2.76924e-05
-0.000586882
2.64747e-05
-0.000605508
2.51703e-05
-0.000623108
2.3784e-05
-0.000639628
2.2323e-05
-0.00065502
2.07948e-05
-0.00066924
1.92058e-05
-0.000682247
1.75634e-05
-0.000694006
1.58743e-05
-0.000704486
1.4144e-05
-0.000713659
1.23766e-05
-0.000721498
1.05762e-05
-0.000727985
8.74753e-06
-0.000733102
6.89605e-06
-0.000736836
5.02766e-06
-0.000739177
3.14855e-06
-0.000740119
1.2636e-06
-0.00073966
-6.23817e-07
-0.000737798
-2.51079e-06
-0.000734537
-4.39462e-06
-0.000729882
-6.27195e-06
-0.000723842
-8.13795e-06
-0.000716429
-9.98761e-06
-0.000707659
-1.18163e-05
-0.000697553
-1.36187e-05
-0.000686134
-1.53879e-05
-0.000673432
-1.71181e-05
-0.000659479
-1.88049e-05
-0.000644311
-2.04449e-05
-0.000627967
-2.20333e-05
-0.000610491
-2.35635e-05
-0.000591934
-2.50281e-05
-0.00057235
-2.64199e-05
-0.000551799
-2.77323e-05
-0.000530344
-2.89591e-05
-0.000508055
-3.0094e-05
-0.000485008
-3.11298e-05
-0.000461283
-3.20581e-05
-0.000436968
-3.28701e-05
-0.000412154
-3.35572e-05
-0.000386943
-3.41105e-05
-0.000361441
-3.45203e-05
-0.000335759
-3.47764e-05
-0.000310017
-3.48692e-05
-0.000284342
-3.47899e-05
-0.000258866
-3.45299e-05
-0.000233726
-3.40795e-05
-0.000209067
-3.34287e-05
-0.000185038
-3.25689e-05
-0.000161791
-3.14954e-05
-0.00013948
-3.02073e-05
-0.000118258
-2.87066e-05
-9.82791e-05
-2.69967e-05
-7.96929e-05
-2.50816e-05
-6.26457e-05
-2.29656e-05
-4.72787e-05
-2.06547e-05
-3.37252e-05
-1.81586e-05
-2.21051e-05
-1.54941e-05
-1.25175e-05
-1.26878e-05
-5.03083e-06
-9.78026e-06
3.30938e-07
-6.83103e-06
3.6095e-06
-3.92864e-06
4.94392e-06
-1.2086e-06
4.61803e-06
1.1181e-06
3.12378e-06
2.7282e-06
1.21936e-06
3.15061e-06
1.80803e-06
2.03817e-06
-4.44655e-06
4.20122e-06
-5.30839e-06
4.58978e-06
-1.87038e-06
2.60796e-06
2.67842e-06
-2.09624e-06
7.77337e-06
-9.74442e-06
1.32359e-05
-2.04525e-05
1.8891e-05
-3.42405e-05
2.45828e-05
-5.10664e-05
3.01926e-05
-7.08256e-05
3.56172e-05
-9.33804e-05
4.07895e-05
-0.000118558
4.56535e-05
-0.000146168
5.01753e-05
-0.000176007
5.43281e-05
-0.000207858
5.80929e-05
-0.000241506
6.14623e-05
-0.000276729
6.44285e-05
-0.000313306
6.69887e-05
-0.000351018
6.91475e-05
-0.000389656
7.09084e-05
-0.000429007
7.22781e-05
-0.00046887
7.32678e-05
-0.000509045
7.38859e-05
-0.000549344
7.41473e-05
-0.000589584
7.40655e-05
-0.000629591
7.36555e-05
-0.000669197
7.2936e-05
-0.000708244
7.19236e-05
-0.000746582
7.06327e-05
-0.000784068
6.90776e-05
-0.000820566
6.72732e-05
-0.000855949
6.52327e-05
-0.000890099
6.29691e-05
-0.000922904
6.04966e-05
-0.000954257
5.78279e-05
-0.000984061
5.49749e-05
-0.00101223
5.19505e-05
-0.00103867
4.87674e-05
-0.00106332
4.54392e-05
-0.00108609
4.19802e-05
-0.00110693
3.84035e-05
-0.00112578
3.47214e-05
-0.00114258
3.09461e-05
-0.00115729
2.70877e-05
-0.00116987
2.31557e-05
-0.00118028
1.91608e-05
-0.0011885
1.51142e-05
-0.0011945
1.1027e-05
-0.00119826
6.91065e-06
-0.00119978
2.77588e-06
-0.00119903
-1.36829e-06
-0.00119603
-5.51416e-06
-0.00119077
-9.65309e-06
-0.00118327
-1.37751e-05
-0.00117353
-1.78701e-05
-0.00116159
-2.19279e-05
-0.00114747
-2.59376e-05
-0.00113121
-2.98867e-05
-0.00111283
-3.37625e-05
-0.0010924
-3.75534e-05
-0.00106995
-4.12483e-05
-0.00104556
-4.48355e-05
-0.00101929
-4.83033e-05
-0.000991216
-5.16385e-05
-0.000961419
-5.48256e-05
-0.000929989
-5.78494e-05
-0.000897026
-6.06954e-05
-0.000862635
-6.33498e-05
-0.000826932
-6.57975e-05
-0.00079004
-6.80216e-05
-0.000752093
-7.00049e-05
-0.000713233
-7.17306e-05
-0.000673609
-7.31811e-05
-0.000633381
-7.4338e-05
-0.000592719
-7.51824e-05
-0.0005518
-7.56954e-05
-0.00051081
-7.5859e-05
-0.000469944
-7.5656e-05
-0.000429405
-7.50691e-05
-0.000389403
-7.40815e-05
-0.000350154
-7.26772e-05
-0.000311881
-7.08422e-05
-0.00027481
-6.8567e-05
-0.00023917
-6.58472e-05
-0.000205193
-6.26831e-05
-0.000173112
-5.90785e-05
-0.000143154
-5.50398e-05
-0.000115541
-5.05777e-05
-9.04867e-05
-4.57093e-05
-6.81849e-05
-4.04606e-05
-4.8807e-05
-3.48719e-05
-3.24906e-05
-2.90042e-05
-1.93252e-05
-2.29457e-05
-9.33274e-06
-1.68235e-05
-2.44081e-06
-1.08206e-05
1.5535e-06
-5.20298e-06
3.03022e-06
-3.58733e-07
2.60064e-06
3.15771e-06
1.16297e-06
4.58839e-06
2.97098e-06
1.65976e-06
-6.10637e-06
2.83592e-06
-6.48449e-06
1.56951e-06
-6.04261e-07
-2.8249e-06
7.07309e-06
-1.07677e-05
1.5716e-05
-2.25336e-05
2.50015e-05
-3.82715e-05
3.46288e-05
-5.80168e-05
4.43278e-05
-8.17105e-05
5.38863e-05
-0.000109234
6.31411e-05
-0.000140406
7.19616e-05
-0.000175013
8.02596e-05
-0.000212805
8.79678e-05
-0.000253517
9.50397e-05
-0.00029687
0.000101446
-0.000342577
0.000107169
-0.000390344
0.000112196
-0.000439887
0.000116532
-0.000490917
0.000120177
-0.000543149
0.000123141
-0.000596309
0.000125438
-0.000650128
0.000127087
-0.000704346
0.000128104
-0.000758712
0.000128513
-0.000812983
0.000128337
-0.000866928
0.000127601
-0.000920326
0.000126333
-0.000972961
0.000124559
-0.00102463
0.000122306
-0.00107515
0.000119598
-0.00112434
0.00011646
-0.00117202
0.000112915
-0.00121804
0.000108987
-0.00126224
0.000104699
-0.00130449
0.000100075
-0.00134465
9.51363e-05
-0.00138261
8.99047e-05
-0.00141824
8.44032e-05
-0.00145146
7.86529e-05
-0.00148215
7.26756e-05
-0.00151024
6.64937e-05
-0.00153565
6.01272e-05
-0.0015583
5.35955e-05
-0.00157813
4.69178e-05
-0.00159508
4.01122e-05
-0.00160912
3.31962e-05
-0.00162019
2.61879e-05
-0.00162827
1.91063e-05
-0.00163333
1.19705e-05
-0.00163535
4.79744e-06
-0.00163433
-2.39605e-06
-0.00163025
-9.59284e-06
-0.00162312
-1.67764e-05
-0.00161297
-2.39302e-05
-0.0015998
-3.10357e-05
-0.00158366
-3.80738e-05
-0.00156457
-4.50256e-05
-0.00154258
-5.18713e-05
-0.00151776
-5.8589e-05
-0.00149015
-6.51574e-05
-0.00145985
-7.15565e-05
-0.00142692
-7.77658e-05
-0.00139146
-8.37629e-05
-0.00135357
-8.95234e-05
-0.00131337
-9.50227e-05
-0.00127099
-0.000100236
-0.00122655
-0.000105138
-0.00118019
-0.000109702
-0.00113209
-0.000113903
-0.0010824
-0.000117711
-0.0010313
-0.000121099
-0.000978996
-0.000124039
-0.000925677
-0.0001265
-0.000871561
-0.000128454
-0.000816873
-0.00012987
-0.000761849
-0.000130719
-0.000706736
-0.000130972
-0.00065179
-0.000130602
-0.000597277
-0.000129582
-0.000543472
-0.000127887
-0.000490656
-0.000125494
-0.000439116
-0.000122382
-0.000389145
-0.000118538
-0.000341039
-0.000113953
-0.000295096
-0.000108626
-0.000251613
-0.000102561
-0.000210883
-9.57704e-05
-0.000173186
-8.82742e-05
-0.00013879
-8.0106e-05
-0.000107935
-7.13153e-05
-8.08312e-05
-6.19755e-05
-5.76429e-05
-5.21925e-05
-3.84727e-05
-4.2116e-05
-2.33413e-05
-3.19548e-05
-1.21605e-05
-2.20013e-05
-4.69899e-06
-1.26645e-05
-5.42316e-07
-4.51539e-06
9.52059e-07
1.66316e-06
7.06434e-07
4.83411e-06
3.67743e-06
8.83098e-07
-6.98942e-06
3.68152e-07
-5.96933e-06
-3.32656e-06
3.09047e-06
-1.08974e-05
1.46438e-05
-2.27694e-05
2.75881e-05
-3.92275e-05
4.14599e-05
-6.04184e-05
5.58195e-05
-8.63768e-05
7.02863e-05
-0.000117044
8.45531e-05
-0.000152271
9.83683e-05
-0.00019186
0.000111551
-0.000235557
0.000123956
-0.000283072
0.000135483
-0.000334093
0.000146062
-0.00038829
0.000155643
-0.000445318
0.000164197
-0.000504834
0.000171712
-0.000566485
0.000178183
-0.000629926
0.000183618
-0.000694816
0.000188031
-0.000760821
0.000191443
-0.000827612
0.000193878
-0.000894873
0.000195365
-0.000962299
0.000195938
-0.00102959
0.000195631
-0.00109647
0.00019448
-0.00116266
0.000192524
-0.00122791
0.000189802
-0.00129195
0.000186352
-0.00135457
0.000182212
-0.00141552
0.000177418
-0.00147462
0.000172008
-0.00153165
0.000166018
-0.00158643
0.000159482
-0.00163879
0.000152435
-0.00168857
0.000144912
-0.00173561
0.000136946
-0.00177977
0.000128569
-0.00182094
0.000119816
-0.00185898
0.000110718
-0.00189379
0.000101306
-0.00192528
9.16116e-05
-0.00195334
8.16634e-05
-0.00197792
7.14901e-05
-0.00199892
6.11191e-05
-0.00201631
5.0579e-05
-0.00203001
3.98974e-05
-0.00204001
2.91012e-05
-0.00204626
1.82183e-05
-0.00204874
7.27665e-06
-0.00204743
-3.69817e-06
-0.00204235
-1.46804e-05
-0.00203348
-2.56423e-05
-0.00202086
-3.65559e-05
-0.0020045
-4.73936e-05
-0.00198444
-5.81279e-05
-0.00196074
-6.87286e-05
-0.00193345
-7.91637e-05
-0.00190264
-8.94016e-05
-0.00186838
-9.94113e-05
-0.00183078
-0.00010916
-0.00178993
-0.000118615
-0.00174595
-0.00012774
-0.00169897
-0.000136501
-0.00164914
-0.00014486
-0.00159659
-0.000152779
-0.00154151
-0.000160218
-0.00148407
-0.00016714
-0.00142447
-0.000173503
-0.00136292
-0.000179266
-0.00129963
-0.000184386
-0.00123485
-0.000188821
-0.00116882
-0.000192529
-0.00110181
-0.000195466
-0.00103409
-0.00019759
-0.000965952
-0.000198857
-0.000897696
-0.000199229
-0.000829633
-0.000198664
-0.000762087
-0.000197128
-0.00069539
-0.000194584
-0.000629882
-0.000191002
-0.000565909
-0.000186355
-0.000503823
-0.000180625
-0.000443976
-0.0001738
-0.000386724
-0.000165878
-0.000332419
-0.000156866
-0.000281405
-0.000146785
-0.000234011
-0.000135668
-0.000190546
-0.000123571
-0.00015129
-0.000110572
-0.000116481
-9.67846e-05
-8.63046e-05
-8.23685e-05
-6.08786e-05
-6.75419e-05
-4.02298e-05
-5.26036e-05
-2.42714e-05
-3.79598e-05
-1.27745e-05
-2.41613e-05
-5.33709e-06
-1.19528e-05
-1.34824e-06
-2.3258e-06
4.88027e-08
3.43717e-06
3.72623e-06
-5.39296e-08
-6.93554e-06
-2.64162e-06
-3.38174e-06
-9.23377e-06
9.6826e-06
-2.04658e-05
2.58756e-05
-3.67232e-05
4.38455e-05
-5.82633e-05
6.3e-05
-8.52134e-05
8.27697e-05
-0.000117592
0.000102665
-0.000155314
0.000122275
-0.000198223
0.000141277
-0.000246086
0.000159414
-0.000298623
0.000176493
-0.000355513
0.000192373
-0.000416403
0.000206952
-0.000480921
0.000220161
-0.000548679
0.000231955
-0.000619282
0.000242315
-0.000692332
0.000251233
-0.000767433
0.000258719
-0.00084419
0.000264789
-0.000922218
0.000269471
-0.00100114
0.000272799
-0.00108059
0.000274813
-0.0011602
0.000275555
-0.00123965
0.000275073
-0.00131858
0.000273418
-0.0013967
0.000270639
-0.00147369
0.000266789
-0.00154925
0.000261921
-0.00162313
0.000256087
-0.00169505
0.000249338
-0.00176477
0.000241726
-0.00183205
0.0002333
-0.00189668
0.000224111
-0.00195845
0.000214207
-0.00201718
0.000203634
-0.00207267
0.000192442
-0.00212478
0.000180674
-0.00217334
0.000168376
-0.00221821
0.000155594
-0.00225928
0.00014237
-0.00229641
0.000128747
-0.00232951
0.000114766
-0.00235849
0.000100466
-0.00238326
8.5888e-05
-0.00240375
7.10692e-05
-0.0024199
5.60492e-05
-0.00243167
4.0868e-05
-0.00243901
2.55637e-05
-0.00244191
1.01729e-05
-0.00244034
-5.26641e-06
-0.00243431
-2.07146e-05
-0.00242382
-3.61335e-05
-0.00240889
-5.14848e-05
-0.00238955
-6.67284e-05
-0.00236586
-8.18225e-05
-0.00233786
-9.67258e-05
-0.00230563
-0.000111395
-0.00226925
-0.000125786
-0.0022288
-0.000139852
-0.00218442
-0.000153548
-0.00213621
-0.000166827
-0.00208431
-0.00017964
-0.00202887
-0.000191935
-0.00197007
-0.000203661
-0.00190809
-0.000214765
-0.00184311
-0.000225193
-0.00177536
-0.00023489
-0.00170506
-0.000243799
-0.00163247
-0.000251862
-0.00155783
-0.000259022
-0.00148143
-0.000265221
-0.00140356
-0.000270401
-0.00132452
-0.000274503
-0.00124464
-0.000277469
-0.00116426
-0.000279243
-0.00108372
-0.000279771
-0.00100338
-0.000279002
-0.000923619
-0.000276887
-0.000844822
-0.000273381
-0.000767379
-0.000268444
-0.000691689
-0.000262045
-0.000618155
-0.000254159
-0.000547181
-0.000244774
-0.000479171
-0.000233888
-0.000414523
-0.000221515
-0.000353624
-0.000207684
-0.000296845
-0.000192448
-0.00024453
-0.000175886
-0.00019699
-0.000158111
-0.000154491
-0.000139284
-0.00011724
-0.000119619
-8.53734e-05
-9.94088e-05
-5.89343e-05
-7.90427e-05
-3.78563e-05
-5.90379e-05
-2.194e-05
-4.00776e-05
-1.08312e-05
-2.30615e-05
-3.99611e-06
-9.1609e-06
-7.02487e-07
1.43559e-07
3.02373e-06
-1.04577e-06
-5.88987e-06
-5.87268e-06
1.44527e-06
-1.56104e-05
1.94203e-05
-3.07796e-05
4.10449e-05
-5.17032e-05
6.47689e-05
-7.85782e-05
8.98749e-05
-0.000111489
0.000115681
-0.000150419
0.000141594
-0.000195258
0.000167115
-0.000245818
0.000191837
-0.000301844
0.00021544
-0.000363029
0.000237678
-0.000429019
0.000258363
-0.000499428
0.000277361
-0.000573846
0.000294579
-0.00065185
0.000309958
-0.000733002
0.000323467
-0.000816862
0.000335093
-0.000902989
0.000344845
-0.000990946
0.000352746
-0.0010803
0.000358827
-0.00117063
0.000363131
-0.00126153
0.000365708
-0.00135259
0.000366613
-0.00144342
0.000365907
-0.00153365
0.000363653
-0.00162293
0.000359917
-0.00171091
0.000354766
-0.00179726
0.000348269
-0.00188166
0.000340492
-0.00196383
0.000331505
-0.00204348
0.000321373
-0.00212034
0.000310162
-0.00219417
0.000297939
-0.00226473
0.000284768
-0.0023318
0.000270712
-0.00239519
0.000255831
-0.00245471
0.000240187
-0.00251017
0.00022384
-0.00256142
0.000206847
-0.00260832
0.000189266
-0.00265072
0.000171153
-0.00268852
0.000152563
-0.0027216
0.000133548
-0.00274988
0.00011416
-0.00277326
9.44528e-05
-0.00279169
7.44774e-05
-0.0028051
5.42844e-05
-0.00281347
3.39256e-05
-0.00281675
1.34525e-05
-0.00281493
-7.08487e-06
-0.00280801
-2.76357e-05
-0.00279599
-4.81472e-05
-0.00277891
-6.85663e-05
-0.0027568
-8.88401e-05
-0.00272971
-0.000108914
-0.0026977
-0.000128732
-0.00266086
-0.000148236
-0.00261928
-0.000167366
-0.00257307
-0.000186063
-0.00252235
-0.000204265
-0.00246727
-0.000221909
-0.00240798
-0.000238928
-0.00234466
-0.000255257
-0.00227749
-0.000270826
-0.00220669
-0.000285565
-0.00213248
-0.000299404
-0.00205511
-0.000312268
-0.00197482
-0.000324083
-0.00189191
-0.000334775
-0.00180666
-0.000344269
-0.00171939
-0.000352488
-0.00163044
-0.000359357
-0.00154014
-0.000364802
-0.00144886
-0.000368747
-0.00135698
-0.000371121
-0.0012649
-0.000371856
-0.00117301
-0.000370887
-0.00108175
-0.000368152
-0.000991533
-0.000363596
-0.000902806
-0.000357172
-0.000816011
-0.000348839
-0.000731597
-0.000338573
-0.000650013
-0.000326358
-0.000571705
-0.000312196
-0.000497112
-0.000296107
-0.00042666
-0.000278136
-0.000360753
-0.000258354
-0.000299769
-0.000236869
-0.000244048
-0.000213833
-0.000193883
-0.00018945
-0.000149506
-0.000163996
-0.000111078
-0.000137837
-7.86707e-05
-0.00011145
-5.22546e-05
-8.54539e-05
-3.16814e-05
-6.06508e-05
-1.66704e-05
-3.80724e-05
-6.79678e-06
-1.90345e-05
-1.48521e-06
-5.16801e-06
1.53854e-06
-2.01653e-06
-3.87334e-06
-9.1339e-06
8.56265e-06
-2.21273e-05
3.24137e-05
-4.13742e-05
6.02917e-05
-6.71099e-05
9.05046e-05
-9.94535e-05
0.000122219
-0.000138435
0.000154662
-0.000183988
0.000187147
-0.000235964
0.00021909
-0.000294141
0.000250014
-0.000358233
0.000279533
-0.000427901
0.000307346
-0.000502764
0.000333225
-0.000582404
0.000357001
-0.000666379
0.000378554
-0.00075423
0.000397809
-0.000845482
0.00041472
-0.000939662
0.000429272
-0.00103629
0.00044147
-0.00113488
0.00045134
-0.00123497
0.000458918
-0.0013361
0.000464257
-0.00143781
0.000467417
-0.00153966
0.000468466
-0.00164123
0.000467476
-0.0017421
0.000464527
-0.00184189
0.000459699
-0.0019402
0.000453076
-0.00203667
0.000444744
-0.00213096
0.000434786
-0.00222275
0.000423288
-0.00231171
0.000410334
-0.00239756
0.000396009
-0.00248001
0.000380393
-0.00255881
0.000363569
-0.00263372
0.000345617
-0.0027045
0.000326615
-0.00277095
0.00030664
-0.00283288
0.000285766
-0.0028901
0.000264069
-0.00294246
0.000241622
-0.0029898
0.000218493
-0.00303199
0.000194753
-0.00306891
0.00017047
-0.00310046
0.000145712
-0.00312655
0.000120543
-0.00314711
9.50312e-05
-0.00316206
6.92421e-05
-0.00317138
4.32405e-05
-0.00317502
1.70907e-05
-0.00317296
-9.14125e-06
-0.00316521
-3.53882e-05
-0.00315177
-6.15838e-05
-0.00313268
-8.76616e-05
-0.00310796
-0.000113553
-0.00307769
-0.000139185
-0.00304194
-0.000164488
-0.00300078
-0.000189388
-0.00295434
-0.000213809
-0.00290273
-0.000237675
-0.00284609
-0.000260906
-0.00278458
-0.00028342
-0.00271837
-0.000305135
-0.00264766
-0.000325965
-0.00257266
-0.000345824
-0.0024936
-0.000364623
-0.00241074
-0.00038227
-0.00232433
-0.000398673
-0.00223468
-0.000413738
-0.00214208
-0.000427371
-0.00204687
-0.000439479
-0.0019494
-0.000449965
-0.00185002
-0.000458737
-0.00174912
-0.0004657
-0.0016471
-0.000470763
-0.00154438
-0.000473837
-0.0014414
-0.00047484
-0.0013386
-0.00047369
-0.00123644
-0.000470314
-0.00113539
-0.000464646
-0.00103593
-0.000456629
-0.000938548
-0.00044622
-0.000843734
-0.000433386
-0.000751976
-0.000418116
-0.000663758
-0.000400414
-0.000579554
-0.000380311
-0.000499826
-0.000357865
-0.00042501
-0.00033317
-0.000355515
-0.000306365
-0.00029171
-0.000277638
-0.000233917
-0.000247243
-0.000182398
-0.000215514
-0.000137348
-0.000182888
-9.88763e-05
-0.000149921
-6.70041e-05
-0.000117326
-4.16498e-05
-8.60051e-05
-2.26243e-05
-5.70979e-05
-9.63049e-06
-3.20284e-05
-2.26319e-06
-1.25353e-05
-7.24646e-07
-2.95035e-06
-9.23013e-07
-1.23291e-05
1.79413e-05
-2.85838e-05
4.86685e-05
-5.19503e-05
8.36583e-05
-8.25459e-05
0.0001211
-0.000120415
0.000160087
-0.000165506
0.000199754
-0.000217699
0.00023934
-0.000276797
0.000278188
-0.000342536
0.000315754
-0.000414597
0.000351593
-0.000492605
0.000385355
-0.000576149
0.000416768
-0.000664779
0.000445631
-0.000758023
0.000471798
-0.000855388
0.000495174
-0.00095637
0.000515702
-0.00106046
0.000533359
-0.00116713
0.000548148
-0.00127589
0.000560095
-0.00138622
0.000569246
-0.00149762
0.000575657
-0.0016096
0.000579401
-0.0017217
0.000580559
-0.00183344
0.000579217
-0.00194438
0.000575469
-0.00205409
0.000569413
-0.00216217
0.000561149
-0.0022682
0.000550779
-0.00237182
0.000538409
-0.00247267
0.000524139
-0.00257041
0.000508074
-0.00266472
0.000490316
-0.00275529
0.000470966
-0.00284185
0.000450125
-0.00292412
0.000427889
-0.00300186
0.000404354
-0.00307484
0.000379617
-0.00314284
0.000353771
-0.00320568
0.000326904
-0.00326316
0.000299107
-0.00331514
0.000270468
-0.00336146
0.000241072
-0.00340199
0.000211002
-0.00343662
0.000180342
-0.00346525
0.000149176
-0.0034878
0.000117585
-0.00350421
8.5649e-05
-0.00351442
5.3449e-05
-0.0035184
2.10667e-05
-0.00351612
-1.14163e-05
-0.00350759
-4.39181e-05
-0.00349282
-7.63561e-05
-0.00347183
-0.000108646
-0.00344468
-0.000140703
-0.00341143
-0.000172439
-0.00337216
-0.000203764
-0.00332696
-0.000234588
-0.00327595
-0.000264818
-0.00321927
-0.000294357
-0.00315706
-0.000323109
-0.00308951
-0.000350972
-0.0030168
-0.000377843
-0.00293915
-0.000403618
-0.00285679
-0.000428189
-0.00276996
-0.000451448
-0.00267895
-0.000473282
-0.00258404
-0.000493578
-0.00248556
-0.00051222
-0.00238384
-0.000529096
-0.00227923
-0.000544089
-0.00217211
-0.000557084
-0.00206288
-0.000567967
-0.00195195
-0.000576625
-0.00183977
-0.000582947
-0.00172677
-0.00058683
-0.00161344
-0.00058817
-0.00150026
-0.000586874
-0.00138772
-0.000582855
-0.00127633
-0.000576034
-0.00116661
-0.000566348
-0.00105909
-0.000553746
-0.000954277
-0.000538195
-0.000852711
-0.000519682
-0.000754907
-0.000498218
-0.000661375
-0.000473843
-0.000572606
-0.000446634
-0.00048907
-0.000416707
-0.000411206
-0.000384229
-0.000339414
-0.000349429
-0.00027405
-0.000312607
-0.000215409
-0.000274155
-0.000163725
-0.000234571
-0.000119159
-0.000194487
-8.17903e-05
-0.000154695
-5.16159e-05
-0.000116179
-2.85489e-05
-8.01648e-05
-1.24273e-05
-4.815e-05
-3.01813e-06
-2.19445e-05
-3.7428e-06
-3.82905e-06
2.90615e-06
-1.54045e-05
2.95167e-05
-3.48783e-05
6.81422e-05
-6.23304e-05
0.00011111
-9.77755e-05
0.000156545
-0.00014115
0.000203462
-0.000192337
0.00025094
-0.000251143
0.000298146
-0.000317317
0.000344363
-0.00039055
0.000388987
-0.000470479
0.000431522
-0.000556695
0.00047157
-0.00064875
0.000508823
-0.000746165
0.000543046
-0.000848435
0.000574069
-0.000955037
0.000601776
-0.00106544
0.0006261
-0.00117908
0.000647008
-0.00129544
0.000664504
-0.00141396
0.000678613
-0.0015341
0.000689385
-0.00165533
0.000696888
-0.00177713
0.000701202
-0.00189899
0.000702421
-0.00202042
0.000700649
-0.00214095
0.000695992
-0.0022601
0.000688566
-0.00237744
0.00067849
-0.00249255
0.000665886
-0.00260501
0.000650875
-0.00271445
0.000633579
-0.0028205
0.000614124
-0.00292282
0.000592631
-0.00302107
0.000569219
-0.00311495
0.000544009
-0.00320418
0.000517119
-0.00328849
0.000488665
-0.00336763
0.000458758
-0.00344137
0.000427511
-0.00350951
0.000395035
-0.00357183
0.000361435
-0.00362818
0.000326818
-0.0036784
0.000291285
-0.00372233
0.000254939
-0.00375987
0.000217882
-0.00379091
0.000180211
-0.00381535
0.000142026
-0.00383312
0.000103425
-0.00384418
6.4506e-05
-0.00384848
2.53667e-05
-0.003846
-1.3894e-05
-0.00383675
-5.31766e-05
-0.00382072
-9.2381e-05
-0.00379796
-0.000131406
-0.00376852
-0.000170147
-0.00373246
-0.000208498
-0.00368987
-0.000246352
-0.00364086
-0.000283598
-0.00358555
-0.000320126
-0.00352409
-0.000355818
-0.00345665
-0.000390556
-0.0033834
-0.000424219
-0.00330456
-0.000456684
-0.00322035
-0.000487824
-0.00313103
-0.000517511
-0.00303686
-0.000545613
-0.00293815
-0.000571996
-0.0028352
-0.000596524
-0.00272837
-0.00061906
-0.00261799
-0.000639469
-0.00250447
-0.000657612
-0.0023882
-0.000673352
-0.00226962
-0.000686554
-0.00214916
-0.000697084
-0.00202729
-0.000704813
-0.0019045
-0.000709617
-0.0017813
-0.000711378
-0.00165819
-0.000709984
-0.00153571
-0.000705335
-0.0014144
-0.000697343
-0.00129481
-0.000685933
-0.00117751
-0.000671051
-0.00106304
-0.00065266
-0.000951977
-0.000630748
-0.000844861
-0.000605333
-0.000742238
-0.000576467
-0.000644631
-0.000544241
-0.000552541
-0.000508797
-0.000466439
-0.00047033
-0.000386761
-0.000429107
-0.000313895
-0.000385473
-0.00024818
-0.00033987
-0.000189894
-0.000292857
-0.000139254
-0.000245128
-9.6407e-05
-0.000197541
-6.14354e-05
-0.000151151
-3.43594e-05
-0.000107241
-1.51512e-05
-6.73582e-05
-3.7446e-06
-3.33511e-05
-7.48741e-06
-4.65701e-06
7.56319e-06
-1.83415e-05
4.32013e-05
-4.0948e-05
9.07485e-05
-7.24172e-05
0.00014258
-0.000112643
0.000196771
-0.000161471
0.000252291
-0.000218696
0.000308165
-0.000284056
0.000363505
-0.000357237
0.000417544
-0.000437879
0.000469628
-0.000525573
0.000519216
-0.000619871
0.000565868
-0.000720287
0.00060924
-0.000826309
0.000649068
-0.000937399
0.000685159
-0.001053
0.000717381
-0.00117256
0.000745651
-0.00129548
0.000769933
-0.0014212
0.000790226
-0.00154915
0.000806557
-0.00167874
0.000818982
-0.00180943
0.000827576
-0.00194066
0.000832431
-0.00207189
0.000833653
-0.0022026
0.000831359
-0.00233229
0.000825678
-0.00246046
0.000816738
-0.00258665
0.000804679
-0.0027104
0.00078964
-0.00283129
0.000771765
-0.00294891
0.000751198
-0.00306287
0.00072808
-0.00317279
0.000702555
-0.00327834
0.000674768
-0.00337919
0.000644856
-0.00347503
0.000612957
-0.00356557
0.000579208
-0.00365056
0.000543744
-0.00372974
0.000506695
-0.00380289
0.000468189
-0.00386981
0.000428354
-0.00393031
0.000387314
-0.00398422
0.000345192
-0.00403138
0.000302107
-0.00407168
0.000258178
-0.00410499
0.000213524
-0.00413123
0.000168261
-0.00415031
0.000122505
-0.00416217
7.63725e-05
-0.00416679
2.99803e-05
-0.00416413
-1.65551e-05
-0.00415419
-6.31159e-05
-0.00413698
-0.000109583
-0.00411255
-0.000155836
-0.00408095
-0.000201752
-0.00404224
-0.000247204
-0.00399653
-0.000292067
-0.00394391
-0.00033621
-0.00388454
-0.000379499
-0.00381856
-0.000421797
-0.00374615
-0.000462965
-0.00366751
-0.00050286
-0.00358286
-0.000541336
-0.00349244
-0.000578244
-0.00339652
-0.000613432
-0.00329539
-0.000646744
-0.00318936
-0.000678024
-0.00307877
-0.000707113
-0.00296398
-0.000733851
-0.00284537
-0.000758076
-0.00272336
-0.000779628
-0.00259836
-0.000798347
-0.00247084
-0.000814076
-0.00234127
-0.000826658
-0.00221013
-0.000835946
-0.00207796
-0.000841794
-0.00194527
-0.000844066
-0.00181262
-0.000842635
-0.00168056
-0.000837387
-0.00154969
-0.000828221
-0.00142056
-0.000815056
-0.00129379
-0.000797827
-0.00116995
-0.000776498
-0.00104964
-0.000751059
-0.00093344
-0.000721531
-0.000821927
-0.00068798
-0.000715655
-0.000650513
-0.000615159
-0.000609293
-0.000520943
-0.000564546
-0.000433478
-0.000516572
-0.000353194
-0.000465757
-0.000280473
-0.000412591
-0.000215646
-0.000357684
-0.00015899
-0.000301784
-0.000110726
-0.000245806
-7.10234e-05
-0.000190854
-4.001e-05
-0.000138254
-1.7787e-05
-8.95812e-05
-4.44352e-06
-4.66947e-05
-1.19309e-05
-5.43015e-06
1.29933e-05
-2.11306e-05
5.89019e-05
-4.67721e-05
0.00011639
-8.21576e-05
0.000177965
-0.000127074
0.000241687
-0.000181269
0.000306486
-0.000244448
0.000371344
-0.000316278
0.000435336
-0.000396381
0.000497648
-0.000484339
0.000557586
-0.000579694
0.000614571
-0.000681954
0.000668128
-0.000790596
0.000717881
-0.000905069
0.000763541
-0.0010248
0.000804893
-0.00114921
0.00084179
-0.0012777
0.000874138
-0.00140966
0.000901894
-0.00154449
0.000925052
-0.00168158
0.000943648
-0.00182033
0.00095774
-0.00196017
0.000967409
-0.0021005
0.000972761
-0.00224076
0.000973916
-0.00238041
0.000971007
-0.00251891
0.000964175
-0.00265574
0.000953572
-0.00279042
0.000939355
-0.00292246
0.000921685
-0.00305142
0.000900724
-0.00317686
0.000876638
-0.00329838
0.000849594
-0.00341558
0.000819756
-0.00352809
0.000787285
-0.00363558
0.000752346
-0.00373772
0.000715098
-0.00383421
0.000675699
-0.00392477
0.000634303
-0.00400914
0.000591063
-0.00408708
0.000546129
-0.00415838
0.000499648
-0.00422283
0.000451764
-0.00428025
0.000402618
-0.0043305
0.000352352
-0.00437342
0.000301104
-0.00440891
0.000249011
-0.00443686
0.000196209
-0.00445719
0.000142833
-0.00446983
8.90189e-05
-0.00447476
3.49027e-05
-0.00447193
-1.93798e-05
-0.00446136
-7.36916e-05
-0.00444304
-0.000127893
-0.00441704
-0.000181844
-0.00438339
-0.000235401
-0.00434217
-0.000288418
-0.0042935
-0.000340746
-0.00423747
-0.000392235
-0.00417424
-0.000442729
-0.00410397
-0.000492068
-0.00402684
-0.00054009
-0.00394307
-0.00058663
-0.00385289
-0.000631517
-0.00375656
-0.000674579
-0.00365435
-0.00071564
-0.00354657
-0.000754519
-0.00343356
-0.000791036
-0.00331567
-0.000825005
-0.00319328
-0.000856243
-0.00306679
-0.000884564
-0.00293664
-0.000909782
-0.00280327
-0.000931713
-0.00266717
-0.000950177
-0.00252883
-0.000964995
-0.00238878
-0.000975998
-0.00224755
-0.000983019
-0.00210571
-0.000985905
-0.00196384
-0.000984511
-0.00182252
-0.000978707
-0.00168236
-0.000968382
-0.00154397
-0.000953444
-0.00140797
-0.000933823
-0.00127499
-0.000909478
-0.00114565
-0.000880402
-0.00102056
-0.000846622
-0.000900327
-0.000808214
-0.000785539
-0.000765301
-0.000676766
-0.000718066
-0.000574549
-0.000666763