/*--------------------------------*- C++ -*----------------------------------*\
  =========                 |
  \\      /  F ield         | OpenFOAM: The Open Source CFD Toolbox
   \\    /   O peration     | Website:  https://openfoam.org
    \\  /    A nd           | Version:  11
     \\/     M anipulation  |
\*---------------------------------------------------------------------------*/
FoamFile
{
    format      ascii;
    class       volVectorField;
    location    "2.3";
    object      U;
}
// * * * * * * * * * * * * * * * * * * * * * * * * * * * * * * * * * * * * * //

dimensions      [0 1 -1 0 0 0 0];

internalField   nonuniform List<vector> 
10100
(
(3.89382e-06 -2.84613e-06 0)
(1.2845e-05 -3.62951e-06 0)
(2.1529e-05 -1.09011e-06 0)
(2.42932e-05 1.23584e-06 0)
(2.05018e-05 3.2006e-06 0)
(1.03522e-05 4.89586e-06 0)
(-6.37709e-06 6.55314e-06 0)
(-2.97634e-05 8.16266e-06 0)
(-5.97386e-05 9.73731e-06 0)
(-9.62664e-05 1.13465e-05 0)
(-0.000139033 1.28535e-05 0)
(-0.000187803 1.43848e-05 0)
(-0.000242174 1.58233e-05 0)
(-0.000301836 1.71537e-05 0)
(-0.000366304 1.84668e-05 0)
(-0.000435209 1.96714e-05 0)
(-0.00050814 2.07516e-05 0)
(-0.000584517 2.17578e-05 0)
(-0.00066395 2.25921e-05 0)
(-0.000745963 2.32843e-05 0)
(-0.000829978 2.38821e-05 0)
(-0.000915628 2.43587e-05 0)
(-0.00100242 2.4664e-05 0)
(-0.00108981 2.48373e-05 0)
(-0.00117743 2.48971e-05 0)
(-0.00126485 2.48321e-05 0)
(-0.00135165 2.46825e-05 0)
(-0.00143748 2.44594e-05 0)
(-0.00152203 2.41118e-05 0)
(-0.00160495 2.3635e-05 0)
(-0.00168593 2.30615e-05 0)
(-0.00176469 2.24066e-05 0)
(-0.00184095 2.16628e-05 0)
(-0.00191443 2.0844e-05 0)
(-0.00198488 1.99768e-05 0)
(-0.00205208 1.90351e-05 0)
(-0.00211577 1.79983e-05 0)
(-0.00217575 1.6884e-05 0)
(-0.00223181 1.56977e-05 0)
(-0.00228378 1.44547e-05 0)
(-0.00233153 1.31748e-05 0)
(-0.00237492 1.18694e-05 0)
(-0.00241384 1.05565e-05 0)
(-0.00244821 9.23061e-06 0)
(-0.00247793 7.86898e-06 0)
(-0.00250292 6.47076e-06 0)
(-0.00252312 5.05103e-06 0)
(-0.00253849 3.62893e-06 0)
(-0.00254901 2.22256e-06 0)
(-0.00255466 8.37449e-07 0)
(-0.00255545 -5.30609e-07 0)
(-0.00255138 -1.89223e-06 0)
(-0.00254246 -3.26251e-06 0)
(-0.0025287 -4.6442e-06 0)
(-0.00251013 -6.02131e-06 0)
(-0.00248676 -7.37784e-06 0)
(-0.00245863 -8.71217e-06 0)
(-0.00242582 -1.00309e-05 0)
(-0.00238839 -1.13354e-05 0)
(-0.00234644 -1.26177e-05 0)
(-0.00230007 -1.38707e-05 0)
(-0.0022494 -1.50935e-05 0)
(-0.00219453 -1.62869e-05 0)
(-0.00213562 -1.74493e-05 0)
(-0.00207278 -1.8576e-05 0)
(-0.0020062 -1.96569e-05 0)
(-0.00193606 -2.06811e-05 0)
(-0.00186258 -2.16479e-05 0)
(-0.00178598 -2.25647e-05 0)
(-0.00170647 -2.34318e-05 0)
(-0.00162433 -2.42349e-05 0)
(-0.00153981 -2.49566e-05 0)
(-0.00145324 -2.55884e-05 0)
(-0.00136493 -2.61254e-05 0)
(-0.00127526 -2.65552e-05 0)
(-0.0011846 -2.68591e-05 0)
(-0.00109338 -2.70229e-05 0)
(-0.00100204 -2.70412e-05 0)
(-0.000911072 -2.69075e-05 0)
(-0.000820977 -2.66061e-05 0)
(-0.000732299 -2.61122e-05 0)
(-0.000645617 -2.54028e-05 0)
(-0.000561537 -2.4468e-05 0)
(-0.000480674 -2.33187e-05 0)
(-0.000403631 -2.19792e-05 0)
(-0.000330985 -2.04689e-05 0)
(-0.000263293 -1.87925e-05 0)
(-0.000201102 -1.6949e-05 0)
(-0.000144955 -1.49371e-05 0)
(-9.53804e-05 -1.27571e-05 0)
(-5.28861e-05 -1.04138e-05 0)
(-1.79325e-05 -7.91665e-06 0)
(9.08585e-06 -5.29176e-06 0)
(2.78949e-05 -2.59169e-06 0)
(3.84122e-05 1.15759e-07 0)
(4.08507e-05 2.7167e-06 0)
(3.58793e-05 4.96917e-06 0)
(2.5026e-05 6.37535e-06 0)
(1.18594e-05 5.98102e-06 0)
(2.67985e-06 2.70158e-06 0)
(9.94659e-06 -1.46264e-05 0)
(2.9175e-05 -2.00721e-05 0)
(4.5664e-05 -1.06089e-05 0)
(4.8113e-05 1.44931e-06 0)
(3.34385e-05 1.38756e-05 0)
(5.51807e-07 2.6966e-05 0)
(-5.14458e-05 4.01311e-05 0)
(-0.000123032 5.35353e-05 0)
(-0.00021393 6.66508e-05 0)
(-0.000323755 7.939e-05 0)
(-0.000451736 9.15993e-05 0)
(-0.000596849 0.000103144 0)
(-0.000758115 0.000113935 0)
(-0.000934115 0.000123957 0)
(-0.00112371 0.000133087 0)
(-0.00132557 0.000141339 0)
(-0.00153817 0.000148718 0)
(-0.00176032 0.000155121 0)
(-0.00199058 0.000160571 0)
(-0.0022275 0.000165067 0)
(-0.00246988 0.000168632 0)
(-0.00271633 0.000171239 0)
(-0.00296556 0.000172955 0)
(-0.00321637 0.000173774 0)
(-0.00346749 0.000173723 0)
(-0.0037178 0.000172872 0)
(-0.00396625 0.000171299 0)
(-0.00421178 0.000169053 0)
(-0.00445338 0.000166141 0)
(-0.00469018 0.000162591 0)
(-0.00492131 0.000158444 0)
(-0.00514592 0.000153713 0)
(-0.00536325 0.000148443 0)
(-0.00557257 0.000142666 0)
(-0.00577317 0.000136413 0)
(-0.00596442 0.000129716 0)
(-0.00614568 0.000122572 0)
(-0.0063164 0.000115024 0)
(-0.00647607 0.000107122 0)
(-0.00662423 9.88918e-05 0)
(-0.00676046 9.03848e-05 0)
(-0.00688438 8.1646e-05 0)
(-0.00699566 7.27084e-05 0)
(-0.00709399 6.36007e-05 0)
(-0.0071791 5.43279e-05 0)
(-0.00725077 4.4903e-05 0)
(-0.00730883 3.53626e-05 0)
(-0.00735311 2.5741e-05 0)
(-0.00738351 1.60751e-05 0)
(-0.00739995 6.40524e-06 0)
(-0.00740237 -3.24959e-06 0)
(-0.00739075 -1.28945e-05 0)
(-0.00736512 -2.25329e-05 0)
(-0.00732553 -3.21488e-05 0)
(-0.00727203 -4.1714e-05 0)
(-0.00720473 -5.12006e-05 0)
(-0.00712376 -6.05804e-05 0)
(-0.00702932 -6.98231e-05 0)
(-0.00692164 -7.88999e-05 0)
(-0.00680097 -8.7784e-05 0)
(-0.00666761 -9.64508e-05 0)
(-0.0065219 -0.000104882 0)
(-0.00636423 -0.000113063 0)
(-0.00619501 -0.000120966 0)
(-0.00601473 -0.000128548 0)
(-0.00582388 -0.000135762 0)
(-0.00562305 -0.000142575 0)
(-0.00541285 -0.000148961 0)
(-0.00519396 -0.000154895 0)
(-0.00496709 -0.000160338 0)
(-0.00473302 -0.000165245 0)
(-0.00449259 -0.000169568 0)
(-0.00424669 -0.000173259 0)
(-0.00399633 -0.000176265 0)
(-0.0037425 -0.000178524 0)
(-0.0034863 -0.000179976 0)
(-0.00322887 -0.000180569 0)
(-0.00297146 -0.000180255 0)
(-0.00271537 -0.000178983 0)
(-0.00246194 -0.000176692 0)
(-0.0022126 -0.000173315 0)
(-0.0019688 -0.000168794 0)
(-0.00173205 -0.000163094 0)
(-0.00150388 -0.000156215 0)
(-0.00128584 -0.000148185 0)
(-0.00107947 -0.000139043 0)
(-0.000886286 -0.000128817 0)
(-0.000707776 -0.000117524 0)
(-0.000545376 -0.000105185 0)
(-0.000400468 -9.18347e-05 0)
(-0.000274333 -7.75467e-05 0)
(-0.000168089 -6.24513e-05 0)
(-8.26082e-05 -4.6753e-05 0)
(-1.83987e-05 -3.07588e-05 0)
(2.45814e-05 -1.4936e-05 0)
(4.71677e-05 -3.2824e-08 0)
(5.12931e-05 1.26929e-05 0)
(4.05472e-05 2.11713e-05 0)
(2.18005e-05 2.2174e-05 0)
(5.74112e-06 1.18092e-05 0)
(1.24807e-05 -3.43907e-05 0)
(3.39554e-05 -4.33925e-05 0)
(4.89036e-05 -1.94643e-05 0)
(4.23564e-05 1.21054e-05 0)
(9.55492e-06 4.71272e-05 0)
(-5.17914e-05 8.43981e-05 0)
(-0.000143459 0.000123062 0)
(-0.000265896 0.000161821 0)
(-0.000419208 0.000200085 0)
(-0.000602383 0.000237058 0)
(-0.000814315 0.000272316 0)
(-0.00105347 0.000305486 0)
(-0.00131785 0.000336402 0)
(-0.00160565 0.000364795 0)
(-0.00191467 0.000390591 0)
(-0.00224265 0.000413727 0)
(-0.00258759 0.00043413 0)
(-0.00294713 0.000451775 0)
(-0.00331908 0.000466739 0)
(-0.00370136 0.00047892 0)
(-0.0040918 0.000488449 0)
(-0.00448835 0.000495404 0)
(-0.00488903 0.000499778 0)
(-0.00529188 0.0005017 0)
(-0.00569501 0.000501275 0)
(-0.00609666 0.000498572 0)
(-0.00649514 0.000493756 0)
(-0.00688879 0.000486974 0)
(-0.00727608 0.000478303 0)
(-0.00765554 0.000467837 0)
(-0.00802578 0.000455695 0)
(-0.00838549 0.00044194 0)
(-0.00873345 0.000426645 0)
(-0.0090685 0.000409926 0)
(-0.00938953 0.000391863 0)
(-0.00969555 0.000372528 0)
(-0.00998562 0.00035202 0)
(-0.0102589 0.000330424 0)
(-0.0105145 0.000307844 0)
(-0.0107517 0.000284377 0)
(-0.01097 0.000260103 0)
(-0.0111686 0.000235118 0)
(-0.0113469 0.000209509 0)
(-0.0115046 0.000183345 0)
(-0.0116411 0.000156701 0)
(-0.0117562 0.000129644 0)
(-0.0118494 0.000102239 0)
(-0.0119206 7.45708e-05 0)
(-0.0119694 4.67195e-05 0)
(-0.0119958 1.87541e-05 0)
(-0.0119996 -9.25763e-06 0)
(-0.0119809 -3.72597e-05 0)
(-0.0119396 -6.52124e-05 0)
(-0.0118757 -9.30667e-05 0)
(-0.0117895 -0.00012075 0)
(-0.0116811 -0.000148184 0)
(-0.0115507 -0.000175298 0)
(-0.0113987 -0.000202015 0)
(-0.0112254 -0.000228242 0)
(-0.0110312 -0.000253891 0)
(-0.0108167 -0.000278893 0)
(-0.0105823 -0.000303186 0)
(-0.0103288 -0.000326694 0)
(-0.0100569 -0.000349321 0)
(-0.00976734 -0.000370965 0)
(-0.00946096 -0.000391523 0)
(-0.00913875 -0.000410896 0)
(-0.00880171 -0.000428986 0)
(-0.00845094 -0.000445695 0)
(-0.00808764 -0.000460912 0)
(-0.00771311 -0.00047452 0)
(-0.0073287 -0.000486393 0)
(-0.00693588 -0.000496407 0)
(-0.00653622 -0.000504433 0)
(-0.00613136 -0.000510336 0)
(-0.00572302 -0.000513978 0)
(-0.00531299 -0.000515225 0)
(-0.0049032 -0.000513946 0)
(-0.00449566 -0.00051002 0)
(-0.00409244 -0.000503322 0)
(-0.00369566 -0.000493723 0)
(-0.00330751 -0.000481109 0)
(-0.00293022 -0.000465406 0)
(-0.00256608 -0.000446586 0)
(-0.00221743 -0.000424668 0)
(-0.00188657 -0.000399693 0)
(-0.00157583 -0.000371713 0)
(-0.00128745 -0.000340796 0)
(-0.00102361 -0.00030704 0)
(-0.000786376 -0.000270603 0)
(-0.00057759 -0.000231742 0)
(-0.00039883 -0.000190864 0)
(-0.000251282 -0.000148574 0)
(-0.000135557 -0.000105755 0)
(-5.14615e-05 -6.37045e-05 0)
(2.29838e-06 -2.4368e-05 0)
(2.84462e-05 9.31746e-06 0)
(3.16683e-05 3.30104e-05 0)
(2.00651e-05 4.06133e-05 0)
(5.8793e-06 2.44341e-05 0)
(1.14312e-05 -5.39351e-05 0)
(2.69163e-05 -6.21534e-05 0)
(2.88216e-05 -1.7377e-05 0)
(2.12533e-06 4.18779e-05 0)
(-5.88696e-05 0.000108548 0)
(-0.00015686 0.000180273 0)
(-0.000294115 0.000254574 0)
(-0.000471631 0.000329454 0)
(-0.00068897 0.000403215 0)
(-0.000945453 0.000474594 0)
(-0.00123944 0.000542578 0)
(-0.00156885 0.000606548 0)
(-0.00193153 0.000665951 0)
(-0.00232473 0.000720461 0)
(-0.00274575 0.000769883 0)
(-0.00319181 0.000814024 0)
(-0.00365986 0.000852826 0)
(-0.00414711 0.000886348 0)
(-0.00465071 0.000914521 0)
(-0.0051677 0.000937492 0)
(-0.00569531 0.000955317 0)
(-0.00623086 0.000968139 0)
(-0.0067717 0.000976115 0)
(-0.00731524 0.00097943 0)
(-0.00785902 0.000978238 0)
(-0.00840066 0.000972741 0)
(-0.00893791 0.000963161 0)
(-0.00946858 0.000949699 0)
(-0.00999062 0.000932571 0)
(-0.010502 0.000911978 0)
(-0.011001 0.000888101 0)
(-0.0114858 0.000861119 0)
(-0.0119547 0.000831202 0)
(-0.0124061 0.000798535 0)
(-0.0128387 0.00076329 0)
(-0.0132511 0.000725614 0)
(-0.0136419 0.000685692 0)
(-0.0140101 0.000643706 0)
(-0.0143546 0.000599818 0)
(-0.0146744 0.000554208 0)
(-0.0149686 0.000507041 0)
(-0.0152362 0.000458469 0)
(-0.0154767 0.000408648 0)
(-0.0156892 0.000357711 0)
(-0.0158732 0.000305797 0)
(-0.0160283 0.000253064 0)
(-0.016154 0.000199649 0)
(-0.0162498 0.000145676 0)
(-0.0163156 9.12973e-05 0)
(-0.016351 3.66586e-05 0)
(-0.016356 -1.81257e-05 0)
(-0.0163304 -7.29417e-05 0)
(-0.0162744 -0.000127658 0)
(-0.016188 -0.000182139 0)
(-0.0160713 -0.000236255 0)
(-0.0159247 -0.000289872 0)
(-0.0157484 -0.000342849 0)
(-0.0155429 -0.000395022 0)
(-0.0153087 -0.000446225 0)
(-0.0150464 -0.000496298 0)
(-0.0147566 -0.00054509 0)
(-0.0144402 -0.000592446 0)
(-0.014098 -0.000638205 0)
(-0.013731 -0.000682189 0)
(-0.0133403 -0.000724203 0)
(-0.0129271 -0.000764048 0)
(-0.0124926 -0.000801534 0)
(-0.0120382 -0.000836471 0)
(-0.0115656 -0.000868654 0)
(-0.0110761 -0.000897864 0)
(-0.0105718 -0.000923878 0)
(-0.0100542 -0.000946472 0)
(-0.00952559 -0.000965421 0)
(-0.00898788 -0.000980495 0)
(-0.00844331 -0.000991457 0)
(-0.00789416 -0.000998069 0)
(-0.00734284 -0.0010001 0)
(-0.00679187 -0.000997325 0)
(-0.00624391 -0.000989534 0)
(-0.00570165 -0.000976516 0)
(-0.00516785 -0.000958071 0)
(-0.00464535 -0.000934031 0)
(-0.00413706 -0.000904282 0)
(-0.00364593 -0.000868765 0)
(-0.00317495 -0.00082747 0)
(-0.0027271 -0.000780434 0)
(-0.00230533 -0.000727741 0)
(-0.00191252 -0.000669542 0)
(-0.00155143 -0.000606073 0)
(-0.0012246 -0.000537693 0)
(-0.000934334 -0.000464949 0)
(-0.000682536 -0.000388654 0)
(-0.000470588 -0.00030997 0)
(-0.000299157 -0.000230549 0)
(-0.000167971 -0.000152745 0)
(-7.55227e-05 -7.99264e-05 0)
(-1.87384e-05 -1.69012e-05 0)
(7.49018e-06 2.96222e-05 0)
(1.13114e-05 5.05986e-05 0)
(4.41818e-06 3.44912e-05 0)
(8.5223e-06 -6.73506e-05 0)
(1.26389e-05 -6.68417e-05 0)
(-5.95708e-06 5.79696e-06 0)
(-6.08572e-05 9.99815e-05 0)
(-0.000157313 0.000206087 0)
(-0.000298409 0.000320051 0)
(-0.000486474 0.000438186 0)
(-0.000722165 0.000557274 0)
(-0.0010056 0.000674684 0)
(-0.00133548 0.000788374 0)
(-0.00171011 0.00089681 0)
(-0.00212725 0.000998779 0)
(-0.00258402 0.0010935 0)
(-0.00307753 0.00118044 0)
(-0.00360449 0.00125913 0)
(-0.00416145 0.00132945 0)
(-0.00474504 0.00139119 0)
(-0.00535173 0.00144438 0)
(-0.00597803 0.00148908 0)
(-0.00662053 0.00152542 0)
(-0.00727584 0.00155353 0)
(-0.00794061 0.00157364 0)
(-0.00861164 0.001586 0)
(-0.00928583 0.00159087 0)
(-0.00996016 0.00158855 0)
(-0.0106317 0.00157935 0)
(-0.0112977 0.00156359 0)
(-0.0119555 0.00154156 0)
(-0.0126026 0.0015136 0)
(-0.0132364 0.00148003 0)
(-0.0138548 0.00144113 0)
(-0.0144556 0.00139721 0)
(-0.0150367 0.00134858 0)
(-0.0155962 0.00129551 0)
(-0.0161324 0.00123828 0)
(-0.0166434 0.00117717 0)
(-0.0171278 0.00111245 0)
(-0.0175842 0.0010444 0)
(-0.0180111 0.000973262 0)
(-0.0184075 0.000899323 0)
(-0.018772 0.000822862 0)
(-0.0191037 0.00074411 0)
(-0.0194017 0.000663299 0)
(-0.0196651 0.000580676 0)
(-0.0198931 0.000496457 0)
(-0.0200852 0.000410852 0)
(-0.0202408 0.000324101 0)
(-0.0203594 0.000236445 0)
(-0.0204407 0.000148104 0)
(-0.0204844 5.92892e-05 0)
(-0.0204903 -2.97909e-05 0)
(-0.0204583 -0.000118926 0)
(-0.0203885 -0.000207904 0)
(-0.020281 -0.000296498 0)
(-0.020136 -0.000384478 0)
(-0.0199538 -0.000471616 0)
(-0.0197349 -0.000557683 0)
(-0.0194798 -0.000642426 0)
(-0.0191891 -0.00072558 0)
(-0.0188636 -0.00080688 0)
(-0.018504 -0.000886069 0)
(-0.0181115 -0.000962887 0)
(-0.017687 -0.00103706 0)
(-0.0172319 -0.0011083 0)
(-0.0167475 -0.00117628 0)
(-0.0162352 -0.00124069 0)
(-0.0156966 -0.00130123 0)
(-0.0151336 -0.00135759 0)
(-0.0145479 -0.00140943 0)
(-0.0139416 -0.0014564 0)
(-0.0133168 -0.00149814 0)
(-0.0126758 -0.00153432 0)
(-0.0120211 -0.0015646 0)
(-0.0113553 -0.00158859 0)
(-0.0106809 -0.00160595 0)
(-0.0100009 -0.00161632 0)
(-0.00931815 -0.00161936 0)
(-0.00863576 -0.00161474 0)
(-0.00795691 -0.00160215 0)
(-0.00728487 -0.00158127 0)
(-0.006623 -0.00155185 0)
(-0.00597472 -0.00151364 0)
(-0.00534353 -0.00146648 0)
(-0.00473298 -0.00141029 0)
(-0.00414662 -0.00134504 0)
(-0.00358798 -0.00127079 0)
(-0.00306056 -0.00118767 0)
(-0.00256772 -0.00109596 0)
(-0.0021127 -0.00099607 0)
(-0.00169843 -0.000888647 0)
(-0.00132757 -0.000774607 0)
(-0.00100226 -0.000655261 0)
(-0.000724067 -0.000532436 0)
(-0.000493754 -0.000408658 0)
(-0.000311087 -0.000287425 0)
(-0.000174577 -0.000173551 0)
(-8.11581e-05 -7.36519e-05 0)
(-2.58264e-05 3.34168e-06 0)
(-1.25314e-06 4.57024e-05 0)
(2.21034e-06 3.86169e-05 0)
(4.78372e-06 -7.17504e-05 0)
(-4.70816e-06 -5.19807e-05 0)
(-4.84687e-05 5.63986e-05 0)
(-0.00013632 0.000193118 0)
(-0.000273136 0.00034586 0)
(-0.000461664 0.000509245 0)
(-0.000703867 0.00067831 0)
(-0.00100066 0.00084852 0)
(-0.00135139 0.00101641 0)
(-0.00175503 0.00117907 0)
(-0.00220957 0.00133429 0)
(-0.00271231 0.00148043 0)
(-0.00326029 0.00161624 0)
(-0.0038501 0.00174086 0)
(-0.00447809 0.0018538 0)
(-0.00514046 0.00195459 0)
(-0.00583324 0.00204314 0)
(-0.00655247 0.00211938 0)
(-0.00729422 0.0021834 0)
(-0.00805448 0.00223533 0)
(-0.00882936 0.00227546 0)
(-0.00961503 0.00230405 0)
(-0.0104078 0.00232144 0)
(-0.011204 0.002328 0)
(-0.0120001 0.00232416 0)
(-0.0127928 0.00231035 0)
(-0.0135788 0.00228701 0)
(-0.0143551 0.0022546 0)
(-0.0151186 0.00221354 0)
(-0.0158665 0.00216431 0)
(-0.0165961 0.00210733 0)
(-0.0173049 0.00204303 0)
(-0.0179905 0.00197185 0)
(-0.0186505 0.00189419 0)
(-0.019283 0.00181048 0)
(-0.019886 0.00172114 0)
(-0.0204575 0.00162654 0)
(-0.0209959 0.00152707 0)
(-0.0214996 0.00142314 0)
(-0.0219671 0.00131509 0)
(-0.0223971 0.0012033 0)
(-0.0227884 0.00108816 0)
(-0.0231398 0.000970004 0)
(-0.0234504 0.000849163 0)
(-0.0237193 0.000725974 0)
(-0.0239458 0.000600768 0)
(-0.0241291 0.000473857 0)
(-0.0242688 0.000345576 0)
(-0.0243645 0.00021627 0)
(-0.0244157 8.62551e-05 0)
(-0.0244224 -4.41671e-05 0)
(-0.0243844 -0.000174677 0)
(-0.0243017 -0.000304943 0)
(-0.0241746 -0.000434635 0)
(-0.0240031 -0.00056342 0)
(-0.0237878 -0.000690958 0)
(-0.0235292 -0.0008169 0)
(-0.0232279 -0.000940873 0)
(-0.0228846 -0.00106249 0)
(-0.0225002 -0.00118138 0)
(-0.0220758 -0.00129716 0)
(-0.0216125 -0.00140943 0)
(-0.0211116 -0.00151778 0)
(-0.0205745 -0.00162177 0)
(-0.0200029 -0.00172097 0)
(-0.0193985 -0.00181492 0)
(-0.0187632 -0.00190317 0)
(-0.018099 -0.00198526 0)
(-0.0174082 -0.00206068 0)
(-0.0166931 -0.00212897 0)
(-0.0159562 -0.00218961 0)
(-0.0152003 -0.00224213 0)
(-0.0144282 -0.00228601 0)
(-0.0136429 -0.00232076 0)
(-0.0128475 -0.00234588 0)
(-0.0120454 -0.00236087 0)
(-0.0112398 -0.00236526 0)
(-0.0104345 -0.0023586 0)
(-0.00963308 -0.00234047 0)
(-0.00883935 -0.00231047 0)
(-0.00805716 -0.00226824 0)
(-0.00729048 -0.00221351 0)
(-0.00654335 -0.00214604 0)
(-0.00581981 -0.00206573 0)
(-0.0051239 -0.00197255 0)
(-0.00445964 -0.00186659 0)
(-0.00383097 -0.00174809 0)
(-0.00324169 -0.00161748 0)
(-0.00269539 -0.00147542 0)
(-0.00219539 -0.00132287 0)
(-0.0017446 -0.00116117 0)
(-0.00134541 -0.000992205 0)
(-0.000999597 -0.00081852 0)
(-0.00070808 -0.000643559 0)
(-0.000470806 -0.000471954 0)
(-0.00028652 -0.0003099 0)
(-0.00015248 -0.000165667 0)
(-6.41875e-05 -5.01629e-05 0)
(-1.56997e-05 2.26559e-05 0)
(-2.9921e-07 3.54823e-05 0)
(9.32858e-07 -6.63463e-05 0)
(-2.33809e-05 -1.51435e-05 0)
(-9.41409e-05 0.000137585 0)
(-0.000217894 0.000324669 0)
(-0.000397868 0.0005312 0)
(-0.000636443 0.000750903 0)
(-0.000935356 0.000977182 0)
(-0.00129465 0.00120483 0)
(-0.00171389 0.00142914 0)
(-0.00219143 0.00164647 0)
(-0.00272504 0.00185399 0)
(-0.00331196 0.00204945 0)
(-0.00394877 0.00223124 0)
(-0.00463173 0.00239817 0)
(-0.00535693 0.00254942 0)
(-0.00612012 0.00268449 0)
(-0.00691697 0.00280316 0)
(-0.00774313 0.00290527 0)
(-0.00859416 0.00299096 0)
(-0.00946566 0.00306042 0)
(-0.0103533 0.00311395 0)
(-0.0112528 0.00315194 0)
(-0.0121599 0.00317483 0)
(-0.0130707 0.0031831 0)
(-0.0139811 0.0031773 0)
(-0.0148873 0.00315799 0)
(-0.0157858 0.00312573 0)
(-0.0166729 0.00308116 0)
(-0.0175453 0.00302486 0)
(-0.0183998 0.00295741 0)
(-0.0192334 0.00287942 0)
(-0.0200431 0.00279148 0)
(-0.0208263 0.00269415 0)
(-0.0215804 0.00258802 0)
(-0.0223029 0.00247362 0)
(-0.0229916 0.00235152 0)
(-0.0236444 0.00222228 0)
(-0.0242594 0.0020864 0)
(-0.0248347 0.00194439 0)
(-0.0253687 0.0017968 0)
(-0.0258598 0.0016441 0)
(-0.0263066 0.00148677 0)
(-0.0267079 0.0013253 0)
(-0.0270625 0.00116016 0)
(-0.0273695 0.000991782 0)
(-0.0276279 0.000820626 0)
(-0.0278372 0.000647149 0)
(-0.0279965 0.000471794 0)
(-0.0281055 0.000295002 0)
(-0.0281637 0.000117212 0)
(-0.0281711 -6.11386e-05 0)
(-0.0281274 -0.0002396 0)
(-0.0280327 -0.000417717 0)
(-0.0278871 -0.000595037 0)
(-0.027691 -0.000771108 0)
(-0.0274449 -0.000945461 0)
(-0.0271492 -0.0011176 0)
(-0.0268048 -0.00128701 0)
(-0.0264124 -0.00145318 0)
(-0.0259731 -0.00161561 0)
(-0.0254882 -0.00177376 0)
(-0.0249588 -0.00192707 0)
(-0.0243865 -0.00207497 0)
(-0.023773 -0.00221688 0)
(-0.0231201 -0.0023522 0)
(-0.0224297 -0.00248033 0)
(-0.0217041 -0.00260064 0)
(-0.0209455 -0.00271249 0)
(-0.0201566 -0.00281523 0)
(-0.0193398 -0.00290821 0)
(-0.0184982 -0.00299075 0)
(-0.0176349 -0.00306222 0)
(-0.0167529 -0.00312193 0)
(-0.0158558 -0.00316923 0)
(-0.014947 -0.00320345 0)
(-0.0140302 -0.00322395 0)
(-0.0131094 -0.00323013 0)
(-0.0121885 -0.00322141 0)
(-0.0112717 -0.00319723 0)
(-0.0103633 -0.00315711 0)
(-0.00946745 -0.0031006 0)
(-0.00858871 -0.00302735 0)
(-0.00773154 -0.00293711 0)
(-0.00690045 -0.00282973 0)
(-0.0060999 -0.00270522 0)
(-0.00533432 -0.00256373 0)
(-0.00460806 -0.00240563 0)
(-0.00392529 -0.00223153 0)
(-0.00328993 -0.00204235 0)
(-0.00270561 -0.00183944 0)
(-0.00217552 -0.0016246 0)
(-0.00170231 -0.00140029 0)
(-0.00128799 -0.0011698 0)
(-0.000933743 -0.000937484 0)
(-0.000639835 -0.000709041 0)
(-0.000405426 -0.00049193 0)
(-0.000228351 -0.00029587 0)
(-0.000104896 -0.0001334 0)
(-3.08585e-05 -2.01983e-05 0)
(-2.8533e-06 2.45811e-05 0)
(-2.81996e-06 -5.10232e-05 0)
(-4.17914e-05 4.44957e-05 0)
(-0.000140691 0.000251175 0)
(-0.000301471 0.000496476 0)
(-0.000526129 0.000764372 0)
(-0.000816304 0.00104672 0)
(-0.00117295 0.00133653 0)
(-0.00159591 0.00162714 0)
(-0.00208402 0.00191322 0)
(-0.00263539 0.00219032 0)
(-0.00324754 0.00245483 0)
(-0.00391725 0.00270409 0)
(-0.00464089 0.00293602 0)
(-0.00541448 0.00314906 0)
(-0.0062337 0.00334216 0)
(-0.00709398 0.00351468 0)
(-0.00799068 0.00366619 0)
(-0.00891904 0.0037966 0)
(-0.00987425 0.00390595 0)
(-0.0108515 0.00399448 0)
(-0.0118461 0.00406256 0)
(-0.0128533 0.00411064 0)
(-0.0138686 0.0041393 0)
(-0.0148875 0.00414914 0)
(-0.0159057 0.00414082 0)
(-0.0169189 0.00411506 0)
(-0.0179232 0.00407258 0)
(-0.0189145 0.00401414 0)
(-0.0198893 0.0039405 0)
(-0.020844 0.00385241 0)
(-0.0217752 0.00375064 0)
(-0.0226797 0.00363596 0)
(-0.0235545 0.00350908 0)
(-0.0243966 0.00337076 0)
(-0.0252035 0.00322174 0)
(-0.0259726 0.00306269 0)
(-0.0267016 0.00289432 0)
(-0.0273883 0.00271733 0)
(-0.0280307 0.00253238 0)
(-0.0286268 0.00234012 0)
(-0.0291751 0.00214122 0)
(-0.029674 0.0019363 0)
(-0.0301219 0.00172596 0)
(-0.0305177 0.0015108 0)
(-0.0308604 0.00129143 0)
(-0.0311488 0.00106844 0)
(-0.0313822 0.000842402 0)
(-0.0315599 0.000613917 0)
(-0.0316813 0.000383548 0)
(-0.0317462 0.000151861 0)
(-0.0317541 -8.05539e-05 0)
(-0.031705 -0.0003131 0)
(-0.031599 -0.000545194 0)
(-0.0314363 -0.000776251 0)
(-0.0312171 -0.00100566 0)
(-0.0309421 -0.0012328 0)
(-0.0306117 -0.00145702 0)
(-0.0302269 -0.00167767 0)
(-0.0297887 -0.00189409 0)
(-0.0292981 -0.0021056 0)
(-0.0287564 -0.00231151 0)
(-0.0281653 -0.00251108 0)
(-0.0275262 -0.00270357 0)
(-0.0268411 -0.00288822 0)
(-0.026112 -0.00306427 0)
(-0.0253411 -0.00323093 0)
(-0.0245309 -0.00338739 0)
(-0.0236839 -0.00353282 0)
(-0.0228028 -0.00366639 0)
(-0.0218907 -0.00378725 0)
(-0.0209508 -0.00389456 0)
(-0.0199865 -0.00398749 0)
(-0.0190013 -0.00406517 0)
(-0.017999 -0.00412678 0)
(-0.0169834 -0.00417147 0)
(-0.0159586 -0.00419845 0)
(-0.014929 -0.00420697 0)
(-0.013899 -0.0041963 0)
(-0.012873 -0.00416578 0)
(-0.0118558 -0.00411478 0)
(-0.010852 -0.00404281 0)
(-0.00986659 -0.00394943 0)
(-0.0089044 -0.00383436 0)
(-0.00797034 -0.00369745 0)
(-0.00706927 -0.00353875 0)
(-0.00620599 -0.00335848 0)
(-0.00538521 -0.00315717 0)
(-0.00461143 -0.00293563 0)
(-0.0038889 -0.00269511 0)
(-0.00322154 -0.0024373 0)
(-0.00261281 -0.00216451 0)
(-0.00206568 -0.00187977 0)
(-0.00158244 -0.00158711 0)
(-0.00116466 -0.00129171 0)
(-0.000813001 -0.00100027 0)
(-0.000527217 -0.000721341 0)
(-0.000305892 -0.000465862 0)
(-0.000146249 -0.000247616 0)
(-4.60386e-05 -8.35407e-05 0)
(-5.30686e-06 5.8399e-06 0)
(-6.34094e-06 -2.6075e-05 0)
(-5.96917e-05 0.000127112 0)
(-0.000186451 0.000397404 0)
(-0.00038464 0.000709616 0)
(-0.000654423 0.00104595 0)
(-0.000996716 0.00139783 0)
(-0.00141172 0.00175687 0)
(-0.00189855 0.0021159 0)
(-0.00245555 0.0024687 0)
(-0.00308049 0.00281005 0)
(-0.00377036 0.00313586 0)
(-0.00452168 0.00344285 0)
(-0.00533051 0.00372849 0)
(-0.00619254 0.00399095 0)
(-0.00710312 0.00422892 0)
(-0.00805741 0.00444151 0)
(-0.00905042 0.0046282 0)
(-0.010077 0.00478885 0)
(-0.0111321 0.00492346 0)
(-0.0122106 0.00503231 0)
(-0.0133072 0.00511581 0)
(-0.0144171 0.00517448 0)
(-0.0155352 0.00520901 0)
(-0.0166568 0.00522015 0)
(-0.0177771 0.00520867 0)
(-0.0188916 0.00517545 0)
(-0.0199959 0.00512138 0)
(-0.0210859 0.00504737 0)
(-0.0221574 0.00495437 0)
(-0.0232066 0.0048433 0)
(-0.0242298 0.00471509 0)
(-0.0252236 0.00457071 0)
(-0.0261846 0.00441107 0)
(-0.0271098 0.00423707 0)
(-0.0279961 0.00404964 0)
(-0.0288409 0.00384966 0)
(-0.0296415 0.00363798 0)
(-0.0303956 0.00341545 0)
(-0.0311011 0.00318294 0)
(-0.0317557 0.00294125 0)
(-0.0323578 0.00269119 0)
(-0.0329054 0.00243356 0)
(-0.0333972 0.00216912 0)
(-0.0338318 0.00189862 0)
(-0.0342079 0.00162281 0)
(-0.0345244 0.00134244 0)
(-0.0347805 0.00105825 0)
(-0.0349755 0.000770949 0)
(-0.0351087 0.000481281 0)
(-0.0351797 0.000189975 0)
(-0.0351882 -0.000102244 0)
(-0.0351342 -0.000394638 0)
(-0.0350176 -0.000686459 0)
(-0.0348387 -0.000976953 0)
(-0.0345979 -0.00126536 0)
(-0.0342957 -0.00155088 0)
(-0.0339328 -0.00183272 0)
(-0.0335102 -0.00211006 0)
(-0.0330288 -0.00238205 0)
(-0.03249 -0.00264785 0)
(-0.0318952 -0.00290658 0)
(-0.031246 -0.00315731 0)
(-0.0305442 -0.00339912 0)
(-0.0297918 -0.00363106 0)
(-0.0289911 -0.00385218 0)
(-0.0281445 -0.00406149 0)
(-0.0272546 -0.00425797 0)
(-0.0263243 -0.0044406 0)
(-0.0253565 -0.00460833 0)
(-0.0243546 -0.00476014 0)
(-0.023322 -0.00489497 0)
(-0.0222624 -0.00501179 0)
(-0.0211797 -0.00510955 0)
(-0.0200778 -0.00518722 0)
(-0.0189612 -0.00524378 0)
(-0.0178341 -0.00527828 0)
(-0.0167013 -0.00528979 0)
(-0.0155675 -0.00527746 0)
(-0.0144377 -0.00524046 0)
(-0.0133168 -0.0051781 0)
(-0.0122099 -0.00508975 0)
(-0.0111224 -0.00497495 0)
(-0.0100594 -0.00483337 0)
(-0.00902622 -0.00466488 0)
(-0.00802809 -0.00446957 0)
(-0.00707015 -0.00424777 0)
(-0.00615743 -0.00400015 0)
(-0.00529477 -0.00372779 0)
(-0.00448673 -0.00343221 0)
(-0.00373752 -0.00311549 0)
(-0.00305092 -0.00278042 0)
(-0.00243021 -0.00243062 0)
(-0.00187809 -0.00207077 0)
(-0.00139653 -0.00170685 0)
(-0.000986745 -0.00134641 0)
(-0.000649172 -0.000998933 0)
(-0.000383245 -0.000676304 0)
(-0.000187218 -0.000393205 0)
(-6.08681e-05 -0.000167454 0)
(-7.61276e-06 -2.05865e-05 0)
(-9.53822e-06 7.90646e-06 0)
(-7.66718e-05 0.000232052 0)
(-0.000230802 0.000576243 0)
(-0.000465972 0.000963815 0)
(-0.000780687 0.00137627 0)
(-0.00117497 0.00180414 0)
(-0.00164818 0.00223837 0)
(-0.00219865 0.00267104 0)
(-0.00282428 0.00309519 0)
(-0.00352216 0.00350512 0)
(-0.00428893 0.00389608 0)
(-0.00512074 0.00426431 0)
(-0.00601325 0.0046069 0)
(-0.00696181 0.00492167 0)
(-0.00796154 0.00520707 0)
(-0.00900724 0.00546198 0)
(-0.0100936 0.00568583 0)
(-0.0112152 0.00587831 0)
(-0.0123666 0.00603948 0)
(-0.0135423 0.00616958 0)
(-0.0147369 0.0062691 0)
(-0.0159451 0.00633865 0)
(-0.0171615 0.006379 0)
(-0.0183811 0.00639102 0)
(-0.0195988 0.00637564 0)
(-0.0208097 0.00633389 0)
(-0.0220092 0.00626685 0)
(-0.0231928 0.00617558 0)
(-0.024356 0.00606119 0)
(-0.0254949 0.00592486 0)
(-0.0266054 0.00576767 0)
(-0.0276837 0.00559074 0)
(-0.0287263 0.00539523 0)
(-0.02973 0.00518224 0)
(-0.0306914 0.00495283 0)
(-0.0316076 0.0047081 0)
(-0.032476 0.00444911 0)
(-0.0332938 0.00417689 0)
(-0.0340588 0.00389245 0)
(-0.0347686 0.00359681 0)
(-0.0354214 0.00329094 0)
(-0.0360152 0.00297579 0)
(-0.0365484 0.00265231 0)
(-0.0370195 0.00232144 0)
(-0.0374271 0.00198406 0)
(-0.0377703 0.00164111 0)
(-0.0380478 0.00129347 0)
(-0.0382591 0.000942045 0)
(-0.0384034 0.000587718 0)
(-0.0384802 0.00023138 0)
(-0.0384894 -0.000126064 0)
(-0.0384306 -0.000483705 0)
(-0.0383042 -0.000840638 0)
(-0.0381102 -0.00119595 0)
(-0.037849 -0.00154868 0)
(-0.0375213 -0.00189787 0)
(-0.0371278 -0.00224253 0)
(-0.0366695 -0.00258167 0)
(-0.0361476 -0.00291427 0)
(-0.0355634 -0.00323927 0)
(-0.0349184 -0.00355559 0)
(-0.0342144 -0.00386211 0)
(-0.0334534 -0.00415772 0)
(-0.0326376 -0.00444127 0)
(-0.0317693 -0.00471158 0)
(-0.0308512 -0.00496745 0)
(-0.0298861 -0.00520764 0)
(-0.0288769 -0.00543092 0)
(-0.0278271 -0.00563604 0)
(-0.0267401 -0.00582174 0)
(-0.0256197 -0.00598677 0)
(-0.0244697 -0.00612986 0)
(-0.0232943 -0.00624977 0)
(-0.022098 -0.00634526 0)
(-0.0208851 -0.00641514 0)
(-0.0196606 -0.00645827 0)
(-0.0184294 -0.00647355 0)
(-0.0171965 -0.00645996 0)
(-0.0159672 -0.00641657 0)
(-0.0147469 -0.00634253 0)
(-0.0135411 -0.00623717 0)
(-0.0123552 -0.00609994 0)
(-0.011195 -0.0059305 0)
(-0.010066 -0.00572873 0)
(-0.00897368 -0.00549476 0)
(-0.00792363 -0.00522906 0)
(-0.00692118 -0.00493248 0)
(-0.00597149 -0.0046063 0)
(-0.00507942 -0.00425235 0)
(-0.0042495 -0.00387309 0)
(-0.00348586 -0.00347176 0)
(-0.00279216 -0.00305253 0)
(-0.00217153 -0.00262072 0)
(-0.00162643 -0.00218297 0)
(-0.00115871 -0.00174758 0)
(-0.000769539 -0.00132478 0)
(-0.000459268 -0.000927152 0)
(-0.000227233 -0.000569987 0)
(-7.51967e-05 -0.000271647 0)
(-9.79507e-06 -5.44481e-05 0)
(-1.2532e-05 5.04709e-05 0)
(-9.27137e-05 0.000358555 0)
(-0.000273308 0.000786868 0)
(-0.000544727 0.0012586 0)
(-0.000903636 0.00175483 0)
(-0.00134932 0.0022653 0)
(-0.00188019 0.00278062 0)
(-0.00249384 0.00329202 0)
(-0.00318736 0.00379216 0)
(-0.00395744 0.00427471 0)
(-0.00480021 0.00473445 0)
(-0.00571134 0.00516718 0)
(-0.00668615 0.00556963 0)
(-0.00771965 0.00593929 0)
(-0.00880658 0.00627434 0)
(-0.00994147 0.00657356 0)
(-0.0111187 0.00683619 0)
(-0.0123325 0.00706185 0)
(-0.0135772 0.00725059 0)
(-0.0148469 0.00740266 0)
(-0.016136 0.00751859 0)
(-0.0174388 0.00759909 0)
(-0.0187498 0.00764503 0)
(-0.0200634 0.00765739 0)
(-0.0213744 0.0076373 0)
(-0.0226776 0.0075859 0)
(-0.0239681 0.00750443 0)
(-0.0252411 0.0073942 0)
(-0.0264919 0.00725648 0)
(-0.0277161 0.0070926 0)
(-0.0289097 0.0069039 0)
(-0.0300685 0.00669171 0)
(-0.0311888 0.00645735 0)
(-0.032267 0.00620213 0)
(-0.0332998 0.00592735 0)
(-0.0342839 0.00563426 0)
(-0.0352165 0.00532415 0)
(-0.0360948 0.00499825 0)
(-0.0369163 0.00465776 0)
(-0.0376785 0.00430387 0)
(-0.0383793 0.00393775 0)
(-0.0390168 0.00356056 0)
(-0.0395892 0.00317339 0)
(-0.040095 0.00277736 0)
(-0.0405326 0.00237357 0)
(-0.0409009 0.00196312 0)
(-0.0411989 0.00154707 0)
(-0.0414256 0.00112647 0)
(-0.0415805 0.000702411 0)
(-0.0416629 0.000275958 0)
(-0.0416727 -0.000151808 0)
(-0.0416097 -0.000579811 0)
(-0.0414739 -0.00100696 0)
(-0.0412657 -0.00143216 0)
(-0.0409853 -0.00185424 0)
(-0.0406336 -0.00227208 0)
(-0.0402112 -0.00268449 0)
(-0.0397192 -0.00309028 0)
(-0.039159 -0.00348824 0)
(-0.0385318 -0.00387708 0)
(-0.0378394 -0.00425554 0)
(-0.0370836 -0.00462227 0)
(-0.0362665 -0.00497595 0)
(-0.0353905 -0.0053152 0)
(-0.0344582 -0.00563863 0)
(-0.0334722 -0.00594481 0)
(-0.0324356 -0.00623226 0)