/*--------------------------------*- C++ -*----------------------------------*\
  =========                 |
  \\      /  F ield         | OpenFOAM: The Open Source CFD Toolbox
   \\    /   O peration     | Website:  https://openfoam.org
    \\  /    A nd           | Version:  11
     \\/     M anipulation  |
\*---------------------------------------------------------------------------*/
FoamFile
{
    format      ascii;
    class       volScalarField;
    location    "8.1";
    object      p;
}
// * * * * * * * * * * * * * * * * * * * * * * * * * * * * * * * * * * * * * //

dimensions      [0 2 -2 0 0 0 0];

internalField   nonuniform List<scalar> 
10100
(
1.24306e-05
0.000129416
-6.44035e-05
-0.000617584
-0.00148324
-0.00260421
-0.00392327
-0.00538609
-0.00694417
-0.00855462
-0.0101794
-0.0117854
-0.0133437
-0.0148297
-0.016222
-0.0175024
-0.018655
-0.0196664
-0.0205253
-0.0212223
-0.0217499
-0.0221022
-0.0222745
-0.0222634
-0.0220671
-0.0216847
-0.0211165
-0.0203636
-0.0194281
-0.0183128
-0.0170212
-0.0155577
-0.0139269
-0.0121341
-0.0101849
-0.00808568
-0.00584374
-0.00346675
-0.000962623
0.00166059
0.00439455
0.00723032
0.0101584
0.0131689
0.0162521
0.0193979
0.0225965
0.0258376
0.0291105
0.0324043
0.0357076
0.0390093
0.0422982
0.0455634
0.048794
0.051979
0.0551074
0.0581681
0.0611498
0.0640418
0.0668333
0.0695141
0.0720745
0.0745051
0.0767969
0.0789417
0.0809313
0.0827583
0.0844158
0.0858973
0.0871973
0.0883109
0.0892343
0.0899647
0.0905004
0.0908408
0.0909865
0.0909393
0.0907019
0.0902789
0.0896759
0.0889003
0.0879611
0.0868694
0.0856381
0.0842824
0.0828197
0.0812701
0.0796565
0.0780049
0.076345
0.07471
0.0731379
0.0716712
0.0703574
0.0692482
0.0683965
0.0678531
0.0676603
0.0677667
-5.39151e-05
5.26197e-05
-0.000142308
-0.000639145
-0.0013894
-0.00235412
-0.00349142
-0.0047584
-0.00611454
-0.00752308
-0.00895074
-0.0103676
-0.0117471
-0.0130658
-0.0143036
-0.0154428
-0.0164682
-0.0173666
-0.0181267
-0.0187392
-0.0191966
-0.0194926
-0.0196223
-0.0195821
-0.01937
-0.0189847
-0.0184259
-0.0176943
-0.0167916
-0.0157203
-0.0144835
-0.013085
-0.0115291
-0.00982024
-0.00796376
-0.00596564
-0.0038327
-0.00157217
0.000808563
0.003302
0.00590029
0.00859492
0.0113769
0.0142368
0.0171654
0.0201533
0.0231911
0.0262691
0.0293772
0.0325047
0.0356409
0.0387753
0.0418974
0.0449968
0.0480633
0.0510866
0.054056
0.0569611
0.0597913
0.0625362
0.0651859
0.0677308
0.0701617
0.0724699
0.0746472
0.0766855
0.0785777
0.0803168
0.0818964
0.0833106
0.0845544
0.0856234
0.0865143
0.0872248
0.0877537
0.0881006
0.0882666
0.0882536
0.0880649
0.087705
0.0871796
0.0864962
0.0856638
0.0846932
0.0835969
0.0823897
0.0810883
0.0797119
0.0782821
0.076823
0.0753619
0.0739288
0.0725572
0.0712834
0.0701468
0.0691884
0.0684466
0.067957
0.0677656
0.0678726
0.000188857
0.000282291
8.02748e-05
-0.000389974
-0.00107616
-0.00194657
-0.00296793
-0.00410469
-0.00532214
-0.00658834
-0.00787385
-0.00915188
-0.0103981
-0.0115908
-0.0127111
-0.0137421
-0.0146691
-0.0154794
-0.0161623
-0.0167085
-0.0171105
-0.0173619
-0.0174576
-0.0173943
-0.0171695
-0.0167819
-0.0162307
-0.0155163
-0.0146403
-0.0136048
-0.0124126
-0.011067
-0.00957178
-0.0079313
-0.00615043
-0.00423489
-0.00219108
-2.57306e-05
0.00225422
0.00464164
0.00712898
0.00970811
0.0123704
0.015107
0.0179091
0.0207679
0.0236742
0.0266189
0.029592
0.0325835
0.0355832
0.038581
0.0415669
0.044531
0.0474637
0.050355
0.0531949
0.0559733
0.0586801
0.0613055
0.0638399
0.0662744
0.0686003
0.0708093
0.0728937
0.074846
0.0766595
0.0783275
0.0798442
0.0812042
0.0824027
0.0834358
0.0843005
0.0849949
0.085518
0.0858699
0.0860518
0.0860659
0.0859154
0.0856049
0.0851402
0.0845286
0.083779
0.0829018
0.0819092
0.0808152
0.079636
0.0783895
0.0770959
0.0757778
0.07446
0.0731695
0.071936
0.0707912
0.0697686
0.0689025
0.0682242
0.0677635
0.0675728
0.0676803
0.000781296
0.000810002
0.000571508
9.63816e-05
-0.000566888
-0.00138951
-0.00234325
-0.00339763
-0.00452286
-0.00569061
-0.00687462
-0.00805093
-0.00919764
-0.0102948
-0.0113247
-0.0122713
-0.013121
-0.0138617
-0.014483
-0.014976
-0.0153332
-0.0155484
-0.0156168
-0.0155348
-0.0153001
-0.0149108
-0.0143662
-0.0136665
-0.0128132
-0.0118082
-0.0106538
-0.00935298
-0.00790919
-0.00632665
-0.00461008
-0.00276486
-0.000796897
0.00128748
0.00348171
0.00577892
0.00817178
0.0106525
0.0132128
0.0158443
0.0185387
0.0212874
0.0240818
0.0269129
0.0297712
0.032647
0.0355305
0.038412
0.0412821
0.0441314
0.0469505
0.0497299
0.0524599
0.0551309
0.0577333
0.0602575
0.0626946
0.0650358
0.067273
0.0693985
0.0714047
0.0732847
0.075032
0.0766404
0.0781044
0.0794188
0.0805793
0.0815822
0.0824248
0.0831055
0.0836236
0.0839792
0.0841737
0.0842093
0.0840894
0.0838184
0.083402
0.0828474
0.0821631
0.0813591
0.0804473
0.0794408
0.0783549
0.0772065
0.0760144
0.0747992
0.0735835
0.0723919
0.0712506
0.0701876
0.0692323
0.0684142
0.0677612
0.0673005
0.0670822
0.0671389
0.00167476
0.00158616
0.00127767
0.00077114
0.000103238
-0.000700254
-0.00161465
-0.00261406
-0.00367286
-0.0047664
-0.00587156
-0.00696685
-0.00803249
-0.00905046
-0.0100044
-0.0108796
-0.0116632
-0.012344
-0.0129118
-0.0133583
-0.0136763
-0.0138598
-0.0139042
-0.0138061
-0.0135629
-0.0131727
-0.0126345
-0.0119489
-0.0111171
-0.0101406
-0.00902133
-0.00776201
-0.00636602
-0.0048374
-0.00318066
-0.00140083
0.0004966
0.0025057
0.00462017
0.00683334
0.00913819
0.0115272
0.0139926
0.0165264
0.0191205
0.0217668
0.0244571
0.0271825
0.0299339
0.032702
0.0354775
0.0382511
0.0410137
0.0437564
0.0464701
0.0491457
0.051774
0.0543456
0.0568512
0.0592818
0.0616288
0.063884
0.0660394
0.0680878
0.0700219
0.0718353
0.0735217
0.0750753
0.0764907
0.0777632
0.0788886
0.0798636
0.0806857
0.0813535
0.0818665
0.0822248
0.0824299
0.0824841
0.0823906
0.0821538
0.0817793
0.0812739
0.0806458
0.0799046
0.0790613
0.0781286
0.0771206
0.0760531
0.0749433
0.0738101
0.0726739
0.0715566
0.0704816
0.0694735
0.0685579
0.0677605
0.0671058
0.0666187
0.0663383
0.0662893
0.00281955
0.00257497
0.00216812
0.00160667
0.000909983
0.000100452
-0.000799492
-0.00176812
-0.00278376
-0.0038252
-0.00487211
-0.00590547
-0.00690755
-0.00786203
-0.00875415
-0.00957044
-0.010299
-0.0109293
-0.0114519
-0.0118587
-0.0121432
-0.0122998
-0.0123239
-0.0122122
-0.0119621
-0.0115717
-0.0110403
-0.0103682
-0.00955644
-0.00860631
-0.00751953
-0.00629859
-0.00494682
-0.00346809
-0.00186663
-0.000147091
0.00168536
0.00362503
0.00566582
0.00780136
0.0100249
0.0123293
0.0147071
0.0171507
0.0196523
0.0222043
0.0247984
0.0274263
0.0300791
0.032748
0.035424
0.0380982
0.0407619
0.0434065
0.0460234
0.0486037
0.0511385
0.0536188
0.0560356
0.0583805
0.060645
0.0628214
0.064902
0.0668799
0.0687483
0.0705009
0.0721317
0.0736352
0.0750064
0.0762405
0.0773338
0.0782832
0.0790864
0.079742
0.0802496
0.0806095
0.0808232
0.0808929
0.0808217
0.0806139
0.0802748
0.0798109
0.0792299
0.078541
0.0777545
0.0768822
0.0759373
0.0749342
0.0738887
0.0728179
0.0717401
0.0706749
0.0696429
0.0686657
0.0677654
0.0669641
0.0662837
0.0657459
0.0653741
0.0651795
0.00416557
0.00374001
0.00321301
0.00257613
0.00182964
0.000992771
8.51046e-05
-0.000874876
-0.00186872
-0.00287843
-0.00388635
-0.00487571
-0.0058308
-0.00673702
-0.00758107
-0.00835077
-0.00903513
-0.0096244
-0.0101098
-0.0104841
-0.0107411
-0.0108755
-0.010883
-0.0107604
-0.0105051
-0.0101157
-0.00959128
-0.0089321
-0.00813899
-0.00721307
-0.00615599
-0.00497021
-0.00365894
-0.00222583
-0.000674815
0.00098975
0.00276294
0.00463928
0.00661289
0.00867759
0.0108269
0.0130541
0.0153521
0.0177135
0.0201309
0.0225968
0.0251033
0.0276424
0.0302055
0.0327841
0.0353696
0.0379534
0.0405273
0.043083
0.0456119
0.0481058
0.0505558
0.0529534
0.0552899
0.0575572
0.0597471
0.0618523
0.0638655
0.0657799
0.0675891
0.0692869
0.0708677
0.0723262
0.0736574
0.074857
0.0759213
0.0768473
0.0776331
0.0782772
0.0787792
0.0791397
0.0793599
0.0794419
0.0793888
0.0792046
0.0788944
0.0784642
0.0779214
0.0772745
0.0765331
0.0757082
0.0748119
0.0738574
0.072859
0.0718321
0.070793
0.0697592
0.0687489
0.0677809
0.066874
0.0660472
0.0653197
0.0647107
0.0642251
0.0638585
0.0056653
0.00504353
0.00438073
0.00365231
0.00283865
0.00195637
0.00102261
5.27314e-05
-0.000937809
-0.0019336
-0.0029194
-0.0038806
-0.00480351
-0.00567523
-0.00648373
-0.00721799
-0.00786803
-0.00842503
-0.0088811
-0.00922946
-0.00946448
-0.00958123
-0.00957562
-0.00944461
-0.00918614
-0.00879869
-0.00828149
-0.00763463
-0.00685885
-0.00595526
-0.00492546
-0.00377186
-0.00249752
-0.00110591
0.000399265
0.00201388
0.00373325
0.00555206
0.00746461
0.00946495
0.0115469
0.0137041
0.0159296
0.0182165
0.0205575
0.0229454
0.0253726
0.0278311
0.0303129
0.0328098
0.0353134
0.0378156
0.0403083
0.0427836
0.0452333
0.0476492
0.0500228
0.0523459
0.0546102
0.0568077
0.0589307
0.060972
0.0629247
0.0647822
0.0665383
0.0681872
0.0697233
0.0711414
0.0724368
0.0736053
0.0746435
0.0755485
0.0763182
0.0769515
0.0774479
0.0778078
0.0780325
0.078124
0.078085
0.0779195
0.077632
0.0772284
0.0767154
0.0761009
0.075394
0.0746046
0.0737438
0.0728236
0.0718568
0.0708573
0.0698397
0.0688194
0.0678124
0.0668348
0.0659028
0.0650322
0.0642401
0.0635433
0.0629276
0.0623728
0.00727577
0.00645003
0.00564115
0.00480876
0.00391422
0.00297175
0.00199661
0.00100121
-1.67896e-06
-0.000998797
-0.00197714
-0.00292426
-0.00382826
-0.00467764
-0.00546165
-0.0061705
-0.00679536
-0.00732826
-0.00776208
-0.00809068
-0.00830882
-0.008412
-0.00839656
-0.00825986
-0.00799999
-0.0076155
-0.00710562
-0.00647049
-0.00571087
-0.00482787
-0.00382309
-0.00269883
-0.00145805
-0.00010404
0.00135969
0.00292919
0.0045999
0.00636667
0.00822399
0.0101662
0.0121873
0.0142813
0.0164415
0.0186612
0.0209334
0.0232509
0.0256065
0.0279925
0.0304012
0.0328245
0.0352545
0.0376833
0.0401033
0.0425065
0.0448852
0.0472312
0.0495365
0.0517929
0.0539926
0.0561278
0.0581912
0.0601756
0.0620745
0.0638814
0.0655905
0.0671958
0.0686922
0.0700744
0.071338
0.0724789
0.0734937
0.0743797
0.0751348
0.0757579
0.0762485
0.076607
0.0768344
0.0769326
0.0769042
0.0767527
0.0764824
0.0760987
0.075608
0.0750174
0.0743351
0.0735705
0.0727333
0.0718345
0.0708857
0.0698992
0.068888
0.0678657
0.066846
0.065843
0.0648703
0.0639409
0.0630704
0.0622731
0.0615163
0.0607641
0.00896021
0.00792721
0.00696592
0.00602086
0.00503474
0.00402013
0.00299086
0.00195682
0.000928499
-8.30093e-05
-0.00106682
-0.00201229
-0.00290891
-0.00374665
-0.00451613
-0.00520877
-0.00581676
-0.00633304
-0.00675114
-0.00706548
-0.00727142
-0.00736498
-0.00734294
-0.00720296
-0.00694328
-0.00656256
-0.00606013
-0.0054362
-0.00469161
-0.00382755
-0.00284558
-0.00174794
-0.000537456
0.000782745
0.00220926
0.00373824
0.00536523
0.00708527
0.00889303
0.0107831
0.0127498
0.0147871
0.0168889
0.0190484
0.021259
0.0235137
0.0258053
0.0281265
0.0304698
0.0328275
0.0351919
0.0375555
0.0399106
0.0422498
0.0445653
0.0468493
0.049094
0.0512915
0.0534341
0.0555143
0.0575249
0.0594592
0.0613107
0.0630732
0.0647409
0.066308
0.0677694
0.0691202
0.0703558
0.0714723
0.0724665
0.0733355
0.0740775
0.0746912
0.075176
0.0755323
0.0757608
0.0758633
0.0758421
0.0757004
0.0754423
0.0750726
0.074597
0.0740224
0.0733561
0.0726063
0.0717822
0.0708934
0.0699505
0.0689643
0.0679464
0.0669086
0.0658628
0.064821
0.0637946
0.0627942
0.0618342
0.0609271
0.0600221
0.0590686
0.010687
0.0094464
0.00832905
0.00726525
0.00617957
0.00508338
0.00398965
0.00290617
0.0018413
0.000804101
-0.000196281
-0.00115069
-0.00205002
-0.00288562
-0.00364952
-0.00433427
-0.00493295
-0.00543923
-0.0058474
-0.00615256
-0.0063507
-0.00643834
-0.00641263
-0.00627148
-0.00601337
-0.00563711
-0.00514218
-0.00452894
-0.00379835
-0.00295163
-0.00199032
-0.000916584
0.00026685
0.00155691
0.00295025
0.00444311
0.00603119
0.00770965
0.00947338
0.0113171
0.0132355
0.0152226
0.0172726
0.0193789
0.0215349
0.0237338
0.0259688
0.0282327
0.0305182
0.032818
0.0351246
0.0374307
0.0397288
0.0420116
0.0442717
0.0465013
0.0486929
0.0508388
0.0529314
0.0549637
0.0569285
0.0588192
0.0606296
0.0623536
0.0639853
0.0655194
0.0669506
0.0682741
0.0694855
0.070581
0.0715572
0.0724114
0.0731417
0.0737468
0.074226
0.0745794
0.0748078
0.0749124
0.0748955
0.0747598
0.0745092
0.074148
0.0736815
0.0731156
0.0724572
0.0717137
0.0708932
0.0700044
0.0690567
0.0680597
0.0670236
0.0659587
0.0648753
0.0637836
0.0626928
0.0616117
0.0605537
0.0595302
0.0584729
0.0573174
0.0124288
0.0109822
0.00970723
0.00852041
0.00732937
0.00614443
0.00497796
0.00383609
0.0027253
0.00165283
0.000626461
-0.000345912
-0.00125669
-0.00209868
-0.00286504
-0.00354924
-0.00414517
-0.00464736
-0.00505088
-0.00535154
-0.00554589
-0.00563091
-0.00560411
-0.00546366
-0.00520828
-0.00483702
-0.00434958
-0.00374652
-0.00302887
-0.00219789
-0.00125507
-0.000202529
0.000957
0.00222045
0.00358454
0.00504557
0.00659939
0.00824132
0.00996639
0.0117695
0.0136455
0.0155887
0.0175932
0.0196529
0.0217611
0.0239113
0.0260968
0.0283106
0.0305458
0.0327951
0.0350514
0.0373075
0.0395562
0.0417902
0.0440022
0.0461849
0.0483306
0.050432
0.0524818
0.0544729
0.0563984
0.058252
0.0600274
0.0617186
0.0633199
0.0648259
0.0662315
0.067532
0.0687229
0.0698005
0.0707615
0.0716031
0.0723232
0.0729206
0.0733945
0.0737448
0.0739718
0.0740767
0.0740615
0.0739286
0.0736814
0.0733238
0.0728607
0.0722974
0.0716398
0.0708948
0.0700695
0.0691719
0.0682101
0.0671927
0.0661286
0.0650267
0.0638958
0.0627447
0.0615808
0.0604114
0.0592491
0.0581045
0.056893
0.0555369
0.0141616
0.0125123
0.0110795
0.00976698
0.00846619
0.00718701
0.00594138
0.0047338
0.00356919
0.00245356
0.00139341
0.000395205
-0.000534835
-0.00139068
-0.00216643
-0.00285639
-0.0034554
-0.00395882
-0.00436247
-0.00466281
-0.00485692
-0.00494221
-0.00491652
-0.00477833
-0.00452665
-0.00416083
-0.00368084
-0.00308737
-0.00238154
-0.00156458
-0.000638031
0.000395962
0.00153464
0.00277493
0.00411358
0.00554701
0.00707115
0.00868146
0.0103731
0.0121411
0.0139805
0.0158858
0.0178512
0.0198706
0.0219377
0.0240459
0.0261888
0.0283597
0.0305517
0.0327579
0.0349712
0.0371846
0.0393911
0.0415836
0.0437549
0.0458977
0.0480047
0.0500686
0.0520823
0.0540389
0.0559318
0.0577544
0.0595006
0.0611647
0.0627409
0.0642238
0.0656085
0.0668901
0.0680643
0.0691272
0.0700757
0.0709068
0.0716185
0.0722094
0.0726784
0.0730252
0.07325
0.0733538
0.0733381
0.0732051
0.0729577
0.0725996
0.0721349
0.0715684
0.0709055
0.0701522
0.069315
0.0684007
0.0674167
0.0663705
0.0652699
0.0641225
0.062936
0.0617176
0.0604738
0.0592099
0.0579386
0.0566701
0.0553038
0.0537498
0.0158649
0.0140165
0.0124266
0.010987
0.00957356
0.00819596
0.00686601
0.00558683
0.00436214
0.00319684
0.00209619
0.00106531
0.000109289
-0.000766762
-0.00155781
-0.0022591
-0.00286634
-0.00337571
-0.00378374
-0.00408746
-0.0042844
-0.00437238
-0.00434963
-0.004215
-0.00396784
-0.0036078
-0.00313508
-0.00255049
-0.00185518
-0.00105047
-0.00013797
0.000880093
0.00200092
0.00322144
0.00453844
0.0059484
0.00744737
0.00903088
0.0106942
0.0124326
0.0142411
0.0161143
0.0180466
0.020032
0.0220644
0.0241373
0.0262444
0.0283792
0.0305351
0.0327052
0.0348826
0.0370606
0.0392321
0.0413901
0.0435277
0.0456376
0.0477128
0.049746
0.0517304
0.0536591
0.0555254
0.0573232
0.0590462
0.0606887
0.062245
0.0637098
0.065078
0.0663449
0.0675061
0.0685578
0.0694965
0.0703195
0.0710246
0.0716101
0.0720749
0.0724183
0.0726404
0.0727418
0.0727238
0.0725883
0.0723378
0.0719754
0.0715049
0.0709304
0.0702567
0.0694892
0.0686335
0.0676959
0.0666827
0.0656005
0.0644561
0.063256
0.0620069
0.060715
0.0593854
0.0580226
0.0566389
0.0552445
0.053724
0.0519754
0.0175203
0.0154768
0.0137315
0.0121642
0.0106361
0.00915707
0.00773877
0.00638337
0.00509353
0.00387314
0.00272624
0.00165689
0.000669277
-0.000232338
-0.0010438
-0.00176128
-0.00238129
-0.00290076
-0.00331683
-0.00362705
-0.00382939
-0.00392209
-0.00390381
-0.00377382
-0.00353181
-0.00317772
-0.00271191
-0.0021353
-0.00144913
-0.000654843
0.000245834
0.00125057
0.00235653
0.00356066
0.00485976
0.00625037
0.0077286
0.0092901
0.0109302
0.0126442
0.0144273
0.0162742
0.0181793
0.0201369
0.0221408
0.0241848
0.0262628
0.0283684
0.0304949
0.0326359
0.0347844
0.0369339
0.0390773
0.0412079
0.0433187
0.0454027
0.0474527
0.049462
0.0514235
0.0533307
0.0551768
0.0569557
0.0586612
0.0602876
0.0618293
0.0632809
0.0646372
0.0658936
0.0670456
0.0680893
0.0690212
0.0698386
0.0705389
0.0711205
0.0715819
0.0719223
0.0721414
0.0722396
0.072218
0.072078
0.0718218
0.071452
0.0709719
0.0703852
0.0696961
0.0689092
0.0680296
0.0670628
0.0660142
0.0648898
0.0636954
0.0624366
0.0611192
0.0597485
0.0583287
0.0568633
0.0553649
0.0538436
0.0521698
0.0502303
0.0191121
0.0168774
0.0149784
0.0132835
0.0116398
0.010057
0.00854737
0.0071121
0.005753
0.00447297
0.00327505
0.00216245
0.00113857
0.000206851
-0.000629451
-0.00136733
-0.00200404
-0.00253715
-0.00296434
-0.00328364
-0.00349347
-0.00359256
-0.00358004
-0.00345556
-0.00321913
-0.00287091
-0.00241142
-0.00184172
-0.0011632
-0.000377465
0.000513627
0.00150766
0.00260176
0.00379287
0.00507782
0.00645317
0.00791509
0.00945925
0.0110811
0.0127759
0.014539
0.0163651
0.0182489
0.0201846
0.0221663
0.0241879
0.0262432
0.0283261
0.0304301
0.0325486
0.0346752
0.0368029
0.0389252
0.0410352
0.043126
0.0451907
0.0472224
0.0492143
0.0511595
0.0530513
0.0548833
0.0566493
0.0583431
0.0599589
0.0614911
0.0629343
0.0642834
0.0655335
0.0666801
0.0677193
0.0686475
0.0694618
0.0701595
0.0707387
0.0711978
0.0715357
0.0717519
0.0718465
0.0718203
0.0716743
0.0714103
0.0710306
0.0705379
0.0699354
0.0692268
0.0684161
0.0675078
0.0665067
0.0654177
0.0642458
0.062996
0.0616735
0.060283
0.0588293
0.0573157
0.055745
0.0541301
0.0524814
0.0506557
0.0485288
0.0206262
0.0182042
0.0161535
0.0143314
0.0125713
0.0108834
0.00928011
0.00776217
0.0063305
0.00498709
0.00373427
0.00257452
0.00151047
0.000544768
-0.000320147
-0.00108201
-0.00173875
-0.00228842
-0.00272923
-0.00305969
-0.00327874
-0.00338562
-0.00337987
-0.00326152
-0.0030308
-0.0026881
-0.00223414
-0.00167016
-0.000997732
-0.000218618
0.000665181
0.00165117
0.00273645
0.00391795
0.00519251
0.00655669
0.00800666
0.00953812
0.0111465
0.0128273
0.0145756
0.0163866
0.0182547
0.0201746
0.0221401
0.0241455
0.0261846
0.0282513
0.0303393
0.0324422
0.0345534
0.0366663
0.0387741
0.0408702
0.0429477
0.0449998
0.0470198
0.0490007
0.0509359
0.0528187
0.0546427
0.0564016
0.0580893
0.0597
0.061228
0.0626678
0.0640142
0.0652623
0.0664075
0.0674458
0.0683734
0.0691873
0.0698846
0.0704633
0.0709214
0.0712577
0.0714714
0.0715624
0.071531
0.0713779
0.0711046
0.0707129
0.070205
0.0695837
0.0688521
0.0680139
0.0670729
0.0660333
0.0648994
0.0636754
0.062366
0.0609754
0.059508
0.0579677
0.0563574
0.0546793
0.0529467
0.0511704
0.0491943
0.0468835
0.0220498
0.0194444
0.0172438
0.0152952
0.0134185
0.0116244
0.00992595
0.00832318
0.00681626
0.00540652
0.00409568
0.00288557
0.00177812
0.000775164
-0.000121555
-0.000910404
-0.00158983
-0.0021584
-0.00261482
-0.00295814
-0.00318782
-0.00330357
-0.00330533
-0.00319339
-0.00296824
-0.0026305
-0.00218112
-0.00162155
-0.00095356
-0.000179065
0.000699805
0.00168049
0.00276004
0.00393539
0.00520334
0.00656042
0.00800277
0.00952611
0.0111259
0.0127976
0.0145365
0.0163377
0.0181959
0.0201057
0.0220612
0.0240565
0.0260857
0.0281427
0.0302212
0.032315
0.0344175
0.0365221
0.0386222
0.040711
0.0427819
0.044828
0.0468427
0.0488192
0.0507507
0.0526308
0.0544528
0.0562105
0.0578978
0.0595087
0.0610377
0.0624791
0.0638275
0.0650779
0.0662258
0.0672668
0.0681972
0.0690136
0.0697131
0.0702932
0.070752
0.0710879
0.0712999
0.0713875
0.0713506
0.0711898
0.0709061
0.0705007
0.0699756
0.0693331
0.0685758
0.0677069
0.0667298
0.0656481
0.0644655
0.0631859
0.0618131
0.0603509
0.0588033
0.0571737
0.0554644
0.0536771
0.0518259
0.0499221
0.0477968
0.0453052
0.0233717
0.0205861
0.0182377
0.0161632
0.01417
0.0122692
0.0104744
0.00878509
0.00720082
0.00572242
0.00435109
0.00308805
0.00193447
0.000891537
-3.95898e-05
-0.000857791
-0.001562
-0.00215129
-0.00262491
-0.00298245
-0.00322385
-0.00334925
-0.00335889
-0.00325335
-0.00303336
-0.0026998
-0.00225391
-0.00169733
-0.00103201
-0.000260013
0.000616405
0.00159461
0.00267162
0.00384432
0.00510945
0.00646349
0.00790254
0.00942229
0.0110182
0.0126858
0.0144205
0.0162175
0.0180714
0.019977
0.0219284
0.0239198
0.0259453
0.0279988
0.0300743
0.0321655
0.0342658
0.0363687
0.0384676
0.0405559
0.0426267
0.0446734
0.0466894
0.0486678
0.050602
0.0524854
0.0543114
0.0560738
0.0577664
0.0593831
0.0609183
0.0623662
0.0637214
0.0649787
0.0661334
0.067181
0.0681176
0.0689397
0.069644
0.070228
0.0706893
0.0710263
0.0712375
0.0713223
0.0712803
0.0711115
0.0708165
0.0703964
0.0698526
0.0691869
0.0684017
0.0674996
0.0664836
0.0653568
0.0641225
0.062784
0.0613448
0.0598082
0.0581777
0.0564564
0.0546461
0.0527484
0.0507778
0.0487466
0.0464735
0.0438037
0.0245813
0.0216185
0.0191241
0.0169246
0.0148151
0.0128073
0.0109154
0.00913824
0.00747504
0.0059262
0.00449243
0.0031743
0.00197239
0.00088731
-8.02497e-05
-0.000929613
-0.00166021
-0.00227164
-0.00276371
-0.0031365
-0.00339039
-0.00352584
-0.00354342
-0.00344395
-0.00322848
-0.00289816
-0.00245449
-0.00189932
-0.00123477
-0.000463025
0.00041354
0.00139221
0.00246994
0.00364354
0.00490967
0.00626473
0.00770476
0.00922544
0.0108223
0.0124908
0.0142265
0.0160246
0.0178799
0.019787
0.0217403
0.0237338
0.0257618
0.0278182
0.029897
0.0319919
0.0340966
0.0362043
0.0383086
0.0404028
0.0424801
0.044534
0.0465577
0.0485444
0.0504876
0.0523806
0.0542167
0.0559897
0.0576933
0.0593214
0.0608681
0.0623276
0.0636944
0.0649632
0.0661289
0.0671872
0.0681337
0.0689647
0.0696768
0.0702672
0.0707333
0.0710731
0.071285
0.071368
0.0713212
0.0711446
0.0708381
0.0704025
0.0698388
0.0691486
0.0683337
0.0673965
0.0663394
0.0651652
0.0638767
0.0624768
0.0609686
0.0593552
0.0576395
0.0558245
0.0539117
0.0519024
0.049812
0.0476534
0.0452336
0.0423876
0.0256692
0.0225318
0.0198929
0.0175693
0.015344
0.0132291
0.0112393
0.00937338
0.00763009
0.00600946
0.00451166
0.00313673
0.00188474
0.000755879
-0.000249596
-0.00113146
-0.00188966
-0.00252431
-0.00303575
-0.00342449
-0.00369125
-0.00383682
-0.00386206
-0.00376811
-0.00355631
-0.0032281
-0.00278524
-0.00222975
-0.00156389
-0.000790014
8.94196e-05
0.00107159
0.00215337
0.00333148
0.00460245
0.00596258
0.00740786
0.00893398
0.0105365
0.0122109
0.0139528
0.0157575
0.0176197
0.0195342
0.0214952
0.0234969
0.0255335
0.027599
0.0296875
0.0317925
0.0339079
0.036027
0.0381432
0.0402498
0.0423402
0.0444078
0.0464457
0.0484473
0.0504058
0.0523145
0.0541669
0.0559564
0.0576768
0.0593218
0.0608855
0.0623619
0.0637453
0.0650301
0.0662115
0.0672845
0.0682447
0.0690882
0.0698113
0.0704109
0.0708842
0.0712289
0.0714432
0.0715256
0.0714752
0.0712911
0.0709732
0.0705219
0.0699378
0.0692221
0.0683765
0.0674026
0.0663027
0.0650792
0.0637344
0.062271
0.0606918
0.0589994
0.0571967
0.0552864
0.0532697
0.0511478
0.048937
0.0466512
0.0440853
0.0410648
0.0266264
0.0233166
0.0205347
0.0180878
0.0157469
0.0135248
0.0114368
0.00948145
0.00765723
0.00596375
0.00440069
0.00296763
0.00166429
0.000490481
-0.000553956
-0.00146929
-0.00225597
-0.00291461
-0.00344598
-0.00385098
-0.00413064
-0.00428604
-0.0043184
-0.00422918
-0.00402001
-0.0036926
-0.00324893
-0.00269119
-0.0020218
-0.00124322
-0.00035805
0.000630781
0.00172003
0.00290627
0.00418594
0.00555522
0.00701006
0.00854616
0.0101591
0.0118444
0.0135978
0.0154144
0.0172892
0.0192168
0.0211914
0.0232073
0.0252586
0.0273394
0.0294437
0.0315653
0.0336978
0.0358347
0.0379694
0.0400951
0.0422051
0.0442929
0.0463515
0.0483744
0.0503546
0.0522854
0.0541602
0.0559723
0.0577154
0.0593831
0.0609693
0.0624678
0.0638728
0.0651787
0.0663802
0.0674723
0.0684504
0.0693101
0.0700476
0.0706595
0.0711428
0.0714949
0.0717136
0.0717971
0.071744
0.0715534
0.0712247
0.0707578
0.0701532
0.0694117
0.0685344
0.067523
0.066379
0.0651046
0.063702
0.0621734
0.0605214
0.0587485
0.0568572
0.0548501
0.0527283
0.050493
0.0481614
0.0457481
0.0430366
0.0398426
0.0274446
0.023964
0.0210404
0.0184708
0.0160146
0.0136851
0.0114987
0.0094536
0.00754782
0.00578066
0.0041514
0.00265931
0.00130377
8.42403e-05
-0.000999879
-0.00194935
-0.00276509
-0.00344815
-0.00399967
-0.00442087
-0.00471309
-0.00487778
-0.00491647
-0.00483097
-0.00462316
-0.00429501
-0.00384869
-0.00328658
-0.0026112
-0.00182518
-0.000931261
6.74882e-05
0.00116768
0.00236576
0.00365802
0.00504056
0.00650931
0.00805996
0.00968813
0.0113895
0.0131595
0.0149936
0.0168865
0.0188328
0.0208269
0.0228629
0.024935
0.0270373
0.0291637
0.0313082
0.0334643
0.0356255
0.0377852
0.0399365
0.0420728
0.0441873
0.0462733
0.0483239
0.0503323
0.0522916
0.054195
0.0560359
0.0578076
0.0595039
0.0611182
0.0626444
0.0640764
0.0654083
0.0666348
0.0677505
0.0687506
0.0696305
0.0703861
0.0710138
0.0715101
0.0718722
0.0720976
0.0721842
0.0721302
0.0719342
0.0715955
0.0711138
0.070489
0.0697216
0.0688125
0.0677628
0.066574
0.0652477
0.063786
0.0621909
0.0604647
0.0586098
0.0566285
0.0545234
0.0522955
0.0499459
0.0474928
0.0449518
0.0420946
0.0387277
0.0281159
0.0244658
0.0214011
0.0187093
0.016138
0.0137013
0.0114164
0.0092812
0.00729338
0.00545192
0.00375584
0.00220416
0.000795917
-0.000469804
-0.00159406
-0.00257805
-0.00342313
-0.00413069
-0.00470219
-0.00513918
-0.00544337
-0.00561653
-0.00566055
-0.00557752
-0.00536957
-0.00503891
-0.0045879
-0.00401906
-0.00333507
-0.00253872
-0.00163291
-0.000620908
0.00049376
0.0017074
0.0030162
0.00441618
0.00590324
0.0074731
0.00912141
0.0108438
0.0126359
0.0144927
0.0164093
0.0183802
0.0203996
0.0224616
0.0245606
0.0266905
0.0288454
0.0310191
0.0332053
0.0353973
0.0375885
0.039772
0.0419411
0.044089
0.0462089
0.0482938
0.0503369
0.0523311
0.0542696
0.0561455
0.0579521
0.0596829
0.0613312
0.0628907
0.0643551
0.0657184
0.0669748
0.0681189
0.0691455
0.0700499
0.0708276
0.0714746
0.0719873
0.0723625
0.0725973
0.0726892
0.0726362
0.0724366
0.0720893
0.0715937
0.0709494
0.0701565
0.0692156
0.0681275
0.0668933
0.0655145
0.0639928
0.0623303
0.0605288
0.0585907
0.0565184
0.0543141
0.0519791
0.0495142
0.0469389
0.0442696
0.0412665
0.0377264
0.0286323
0.0248135
0.0216083
0.0187946
0.0161084
0.0135647
0.0111812
0.00895564
0.00688542
0.00496927
0.00320605
0.00159449
0.000133305
-0.00117885
-0.00234343
-0.00336206
-0.0042364
-0.00496818
-0.00555916
-0.00601127
-0.00632655
-0.00650714
-0.00655525
-0.0064732
-0.00626338
-0.00592819
-0.0054702
-0.00489209
-0.00419669
-0.00338698
-0.00246607
-0.0014374
-0.000304658
0.000928353
0.00225771
0.00367938
0.00518926
0.00678307
0.00845647
0.0102051
0.0120244
0.0139096
0.0158555
0.0178565
0.019907
0.0220011
0.0241329
0.0262967
0.0284863
0.0306957
0.0329183
0.0351477
0.037377
0.0395994
0.0418079
0.0439959
0.0461564
0.0482823
0.0503666
0.0524023
0.0543823
0.0562996
0.0581473
0.0599187
0.0616071
0.0632058
0.0647083
0.0661083
0.0673999
0.0685774
0.0696354
0.0705687
0.0713727
0.0720431
0.0725759
0.0729675
0.0732147
0.0733146
0.073265
0.0730639
0.0727097
0.0722016
0.0715389
0.0707213
0.069749
0.0686226
0.0673429
0.0659113
0.0643292
0.0625984
0.0607209
0.0586987
0.0565342
0.0542299
0.0517866
0.0492055
0.0465071
0.0437086
0.0405589
0.0368451
0.028986
0.0249989
0.0216535
0.0187181
0.0159172
0.0132664
0.0107842
0.00846817
0.00631535
0.00432437
0.0024939
0.000822408
-0.000691779
-0.0020504
-0.00325526
-0.0043083
-0.00521149
-0.00596688
-0.00657658
-0.00704287
-0.00736814
-0.00755486
-0.00760554
-0.00752274
-0.00730905
-0.00696709
-0.00649961
-0.00590948
-0.00519972
-0.0043735
-0.00343417
-0.00238533
-0.0012308
2.54884e-05
0.00137955
0.0028273
0.00436461
0.00598722
0.00769074
0.00947077
0.0113227
0.0132417
0.0152224
0.0172593
0.0193468
0.0214789
0.0236497
0.0258535
0.0280842
0.0303356
0.0326012
0.0348745
0.0371485
0.0394164
0.0416711
0.0439059
0.0461136
0.0482872
0.0504195
0.0525033
0.0545314
0.0564966
0.0583919
0.0602103
0.0619449
0.0635888
0.0651352
0.0665777
0.06791
0.0691262
0.0702206
0.0711878
0.0720227
0.0727208
0.0732777
0.0736894
0.0739523
0.0740634
0.07402
0.0738197
0.0734608
0.0729419
0.0722621
0.0714209
0.070418
0.0692539
0.067929
0.0664445
0.0648017
0.0630023
0.0610481
0.0589411
0.0566836
0.0542781
0.0517256
0.0490273
0.0462046
0.043276
0.0399786
0.0360898
0.029169
0.0250139
0.0215283
0.0184714
0.0155558
0.0127979
0.0102168
0.00781011
0.00557464
0.00350887
0.00161124
-0.000120105
-0.00168719
-0.00309207
-0.00433688
-0.00542381
-0.00635514
-0.00713326
-0.00776065
-0.00823996
-0.00857389
-0.00876521
-0.00881669
-0.00873113
-0.00851133
-0.0081601
-0.00768041
-0.00707534
-0.00634811
-0.00550213
-0.00454093
-0.00346829
-0.00228816
-0.00100454
0.000378505
0.00185684
0.00342632
0.00508264
0.00682139
0.00863807
0.010528
0.0124862
0.0145074
0.016586
0.0187163
0.0208924
0.0231084
0.0253585
0.0276366
0.0299364
0.0322516
0.0345753
0.0369007
0.0392207
0.0415284
0.0438166
0.0460784
0.0483065
0.0504936
0.0526323
0.0547152
0.0567349
0.0586844
0.0605564
0.0623436
0.064039
0.0656355
0.0671264
0.0685052
0.0697658
0.070902
0.0719081
0.0727789
0.0735093
0.0740946
0.0745305
0.074813
0.0749388
0.0749046
0.0747079
0.0743467
0.0738192
0.0731241
0.0722607
0.0712284
0.0700273
0.0686579
0.0671208
0.0654174
0.0635491
0.0615178
0.0593253
0.056974
0.0544665
0.0518036
0.0489869
0.0460388
0.0429787
0.0395322
0.0354667
0.0291739
0.0248506
0.0212248
0.018046
0.0150156
0.0121503
0.00947038
0.00697294
0.00465488
0.00251449
0.000549884
-0.0012411
-0.00286077
-0.00431147
-0.00559559
-0.00671561
-0.00767413
-0.00847388
-0.00911774
-0.00960867
-0.00994968
-0.0101438
-0.0101941
-0.0101035
-0.0098751
-0.0095119
-0.00901711
-0.00839404
-0.00764612
-0.00677697
-0.00579035
-0.00469016
-0.00348046
-0.00216534
-0.0007489
0.000764656
0.00237113
0.00406617
0.00584527
0.00770387
0.0096372
0.0116402
0.0137075
0.0158336
0.0180126
0.0202388
0.0225061
0.0248088
0.0271407
0.0294955
0.0318667
0.0342475
0.036631
0.0390099
0.0413773
0.0437259
0.0460486
0.0483381
0.0505868
0.0527873
0.0549318
0.057013
0.0590234
0.0609556
0.0628022
0.0645556
0.0662086
0.0677543
0.0691857
0.0704965
0.0716802
0.0727309
0.0736428
0.0744105
0.075029
0.0754935
0.0757997
0.0759439
0.0759225
0.0757327
0.075372
0.0748383
0.0741302
0.0732464
0.0721862
0.0709494
0.0695361
0.0679471
0.0661833
0.0642462
0.0621374
0.059859
0.0574132
0.0548026
0.0520283
0.0490919
0.0460169