/*--------------------------------*- C++ -*----------------------------------*\
  =========                 |
  \\      /  F ield         | OpenFOAM: The Open Source CFD Toolbox
   \\    /   O peration     | Website:  https://openfoam.org
    \\  /    A nd           | Version:  11
     \\/     M anipulation  |
\*---------------------------------------------------------------------------*/
FoamFile
{
    format      ascii;
    class       surfaceScalarField;
    location    "8.1";
    object      phi;
}
// * * * * * * * * * * * * * * * * * * * * * * * * * * * * * * * * * * * * * //

dimensions      [0 3 -1 0 0 0 0];

internalField   nonuniform List<scalar> 
19980
(
6.78542e-07
-7.23509e-07
2.39187e-06
-1.71298e-06
4.28032e-06
-1.88869e-06
5.76484e-06
-1.48408e-06
6.51421e-06
-7.49232e-07
6.34546e-06
1.68597e-07
5.16771e-06
1.178e-06
2.94698e-06
2.22059e-06
-3.13647e-07
3.26078e-06
-4.58754e-06
4.27399e-06
-9.83248e-06
5.24484e-06
-1.59953e-05
6.16287e-06
-2.30168e-05
7.0214e-06
-3.08331e-05
7.81622e-06
-3.93775e-05
8.54451e-06
-4.85824e-05
9.20473e-06
-5.83787e-05
9.79641e-06
-6.8698e-05
1.03194e-05
-7.94715e-05
1.07737e-05
-9.06318e-05
1.11604e-05
-0.000102113
1.14809e-05
-0.000113849
1.17365e-05
-0.000125778
1.19284e-05
-0.000137836
1.20585e-05
-0.000149965
1.21286e-05
-0.000162106
1.21406e-05
-0.000174202
1.20963e-05
-0.0001862
1.19978e-05
-0.000198047
1.18474e-05
-0.000209694
1.16472e-05
-0.000221093
1.13992e-05
-0.000232199
1.11056e-05
-0.000242968
1.07687e-05
-0.000253358
1.03905e-05
-0.000263331
9.97299e-06
-0.000272849
9.51808e-06
-0.000281878
9.028e-06
-0.000290383
8.50505e-06
-0.000298334
7.95142e-06
-0.000305703
7.36915e-06
-0.000312463
6.76034e-06
-0.000318591
6.12726e-06
-0.000324063
5.47224e-06
-0.000328861
4.79757e-06
-0.000332966
4.10549e-06
-0.000336364
3.39819e-06
-0.000339042
2.6778e-06
-0.000340989
1.94659e-06
-0.000342196
1.20694e-06
-0.000342657
4.61384e-07
-0.00034237
-2.87509e-07
-0.000341332
-1.03719e-06
-0.000339547
-1.78514e-06
-0.000337018
-2.52884e-06
-0.000333753
-3.26574e-06
-0.000329759
-3.99326e-06
-0.000325051
-4.70869e-06
-0.000319641
-5.40921e-06
-0.000313549
-6.09202e-06
-0.000306795
-6.75439e-06
-0.000299401
-7.39358e-06
-0.000291395
-8.00682e-06
-0.000282803
-8.5913e-06
-0.000273659
-9.1442e-06
-0.000263996
-9.66274e-06
-0.000253852
-1.01442e-05
-0.000243266
-1.05859e-05
-0.000232281
-1.09853e-05
-0.000220941
-1.13397e-05
-0.000209295
-1.16465e-05
-0.000197391
-1.19032e-05
-0.000185284
-1.21072e-05
-0.000173028
-1.22561e-05
-0.00016068
-1.23478e-05
-0.0001483
-1.23803e-05
-0.000135949
-1.23515e-05
-0.000123689
-1.22599e-05
-0.000111585
-1.21038e-05
-9.97031e-05
-1.18818e-05
-8.81106e-05
-1.15926e-05
-7.68754e-05
-1.12352e-05
-6.60664e-05
-1.0809e-05
-5.57528e-05
-1.03136e-05
-4.60036e-05
-9.74911e-06
-3.68874e-05
-9.11623e-06
-2.84711e-05
-8.41617e-06
-2.08201e-05
-7.65093e-06
-1.39966e-05
-6.82336e-06
-8.05913e-06
-5.93751e-06
-3.06011e-06
-4.99905e-06
9.55826e-07
-4.01599e-06
3.95558e-06
-2.99977e-06
5.92262e-06
-1.96701e-06
6.86496e-06
-9.42292e-07
6.82803e-06
3.69776e-08
5.91516e-06
9.12894e-07
4.31973e-06
1.59542e-06
2.37973e-06
1.93999e-06
6.70451e-07
1.70929e-06
6.70492e-07
1.69824e-06
-2.42148e-06
4.67712e-06
-4.69201e-06
7.53733e-06
-4.74898e-06
9.26634e-06
-3.21366e-06
9.15936e-06
-6.4203e-07
6.76385e-06
2.564e-06
1.81714e-06
6.1245e-06
-5.80877e-06
9.84639e-06
-1.61456e-05
1.35975e-05
-2.91575e-05
1.7286e-05
-4.47602e-05
2.08479e-05
-6.2836e-05
2.42386e-05
-8.32421e-05
2.74275e-05
-0.000105819
3.03934e-05
-0.000130397
3.31221e-05
-0.000156797
3.56046e-05
-0.000184836
3.78353e-05
-0.000214328
3.98119e-05
-0.000245089
4.15344e-05
-0.000276933
4.30041e-05
-0.000309676
4.42242e-05
-0.000343138
4.51988e-05
-0.000377142
4.59326e-05
-0.000411515
4.64313e-05
-0.000446087
4.67012e-05
-0.000480696
4.67489e-05
-0.000515181
4.65816e-05
-0.00054939
4.62066e-05
-0.000583174
4.56316e-05
-0.000616391
4.48644e-05
-0.000648905
4.39131e-05
-0.000680585
4.27855e-05
-0.000711306
4.14897e-05
-0.000740949
4.00338e-05
-0.000769402
3.84257e-05
-0.000796557
3.66735e-05
-0.000822315
3.47854e-05
-0.00084658
3.27698e-05
-0.000869263
3.06351e-05
-0.000890284
2.83896e-05
-0.000909565
2.60417e-05
-0.000927038
2.36001e-05
-0.000942639
2.10735e-05
-0.000956312
1.84706e-05
-0.000968007
1.58003e-05
-0.00097768
1.30712e-05
-0.000985295
1.02922e-05
-0.00099082
7.4723e-06
-0.000994234
4.62081e-06
-0.00099552
1.74713e-06
-0.000994668
-1.13907e-06
-0.000991677
-4.028e-06
-0.000986553
-6.90982e-06
-0.000979307
-9.77468e-06
-0.00096996
-1.26125e-05
-0.00095854
-1.54132e-05
-0.000945083
-1.81662e-05
-0.000929631
-2.08611e-05
-0.000912236
-2.34873e-05
-0.000892956
-2.60344e-05
-0.000871858
-2.84915e-05
-0.000849016
-3.08482e-05
-0.000824514
-3.30936e-05
-0.000798441
-3.52171e-05
-0.000770896
-3.72081e-05
-0.000741984
-3.90562e-05
-0.000711819
-4.07509e-05
-0.000680522
-4.22822e-05
-0.000648222
-4.36402e-05
-0.000615053
-4.48152e-05
-0.000581159
-4.57976e-05
-0.000546688
-4.65781e-05
-0.000511796
-4.71481e-05
-0.000476644
-4.74994e-05
-0.0004414
-4.76244e-05
-0.000406235
-4.75161e-05
-0.000371327
-4.71682e-05
-0.000336856
-4.65749e-05
-0.000303006
-4.57316e-05
-0.000269964
-4.46342e-05
-0.00023792
-4.328e-05
-0.000207061
-4.16675e-05
-0.000177578
-3.97966e-05
-0.000149658
-3.76692e-05
-0.000123485
-3.52892e-05
-9.92378e-05
-3.26632e-05
-7.70879e-05
-2.98009e-05
-5.71951e-05
-2.6716e-05
-3.97051e-05
-2.34275e-05
-2.47429e-05
-1.99611e-05
-1.2407e-05
-1.63519e-05
-2.75829e-06
-1.26484e-05
4.19242e-06
-8.91771e-06
8.50421e-06
-5.25406e-06
1.03326e-05
-1.79144e-06
9.96719e-06
1.27837e-06
7.88132e-06
3.68129e-06
4.79206e-06
5.02926e-06
1.70944e-06
4.79198e-06
2.37997e-06
1.8698e-06
-4.29155e-06
4.73144e-06
-7.55351e-06
6.86661e-06
-6.8838e-06
7.05589e-06
-3.4028e-06
4.4151e-06
1.99869e-06
-1.65839e-06
8.63778e-06
-1.15411e-05
1.60075e-05
-2.54362e-05
2.37415e-05
-4.34132e-05
3.15744e-05
-6.54423e-05
3.93149e-05
-9.14185e-05
4.6824e-05
-0.000121182
5.40018e-05
-0.000154531
6.07769e-05
-0.000191236
6.7098e-05
-0.000231043
7.29292e-05
-0.000273684
7.82463e-05
-0.000318883
8.30343e-05
-0.000366356
8.72844e-05
-0.000415815
9.09935e-05
-0.000466974
9.41627e-05
-0.000519546
9.67965e-05
-0.000573249
9.8902e-05
-0.000627805
0.000100488
-0.00068294
0.000101566
-0.000738387
0.000102149
-0.000793887
0.000102249
-0.000849186
0.000101881
-0.000904041
0.000101061
-0.000958215
9.98052e-05
-0.00101148
9.81294e-05
-0.00106362
9.60508e-05
-0.00111442
9.35863e-05
-0.00116368
9.07532e-05
-0.00121122
8.75691e-05
-0.00125684
8.40514e-05
-0.00130039
8.0218e-05
-0.00134169
7.60868e-05
-0.0013806
7.1676e-05
-0.00141696
6.70039e-05
-0.00145066
6.2089e-05
-0.00148157
5.69498e-05
-0.00150958
5.16053e-05
-0.00153458
4.60745e-05
-0.00155648
4.03765e-05
-0.00157521
3.45306e-05
-0.0015907
2.85563e-05
-0.00160288
2.24735e-05
-0.00161171
1.6302e-05
-0.00161715
1.00623e-05
-0.00161918
3.77496e-06
-0.00161778
-2.53886e-06
-0.00161295
-8.85793e-06
-0.0016047
-1.51607e-05
-0.00159305
-2.14254e-05
-0.00157803
-2.76299e-05
-0.00155969
-3.37518e-05
-0.00153809
-3.97685e-05
-0.00151329
-4.56571e-05
-0.00148539
-5.13949e-05
-0.00145446
-5.69585e-05
-0.00142063
-6.23248e-05
-0.00138401
-6.74706e-05
-0.00134473
-7.23726e-05
-0.00130294
-7.70077e-05
-0.00125879
-8.13528e-05
-0.00121246
-8.53852e-05
-0.00116413
-8.90826e-05
-0.00111399
-9.2423e-05
-0.00106225
-9.53848e-05
-0.00100911
-9.79472e-05
-0.000954822
-0.00010009
-0.000899607
-0.000101793
-0.000843716
-0.000103039
-0.000787406
-0.000103809
-0.000730942
-0.000104088
-0.000674597
-0.000103862
-0.000618649
-0.000103116
-0.000563384
-0.00010184
-0.000509092
-0.000100024
-0.000456065
-9.76607e-05
-0.000404599
-9.47458e-05
-0.000354989
-9.12775e-05
-0.000307528
-8.72578e-05
-0.000262505
-8.26926e-05
-0.000220201
-7.7593e-05
-0.000180888
-7.19759e-05
-0.000144823
-6.58657e-05
-0.000112244
-5.92956e-05
-8.33603e-05
-5.23109e-05
-5.83496e-05
-4.49718e-05
-3.73427e-05
-3.73588e-05
-2.04112e-05
-2.95798e-05
-7.54889e-06
-2.17799e-05
1.3526e-06
-1.41555e-05
6.53468e-06
-6.97355e-06
8.41124e-06
-5.98228e-07
7.61615e-06
4.47636e-06
5.05357e-06
7.59187e-06
1.94729e-06
7.89833e-06
4.3273e-06
1.48009e-06
-5.77129e-06
3.23269e-06
-9.30648e-06
3.45114e-06
-7.1022e-06
8.34999e-07
-7.86561e-07
-5.57112e-06
8.40455e-06
-1.64369e-05
1.95033e-05
-3.21986e-05
3.1769e-05
-5.31014e-05
4.46445e-05
-7.92397e-05
5.77127e-05
-0.000110588
7.06633e-05
-0.000147028
8.32645e-05
-0.000188371
9.53445e-05
-0.00023437
0.000106776
-0.000284739
0.000117467
-0.00033916
0.00012735
-0.000397293
0.000136379
-0.00045878
0.000144521
-0.000523254
0.000151759
-0.000590343
0.000158083
-0.000659671
0.00016349
-0.000730861
0.000167987
-0.000803541
0.000171582
-0.000877342
0.000174289
-0.000951901
0.000176126
-0.00102686
0.000177111
-0.00110188
0.000177267
-0.00117662
0.000176617
-0.00125074
0.000175188
-0.00132394
0.000173005
-0.00139591
0.000170097
-0.00146635
0.000166491
-0.00153498
0.000162217
-0.00160153
0.000157305
-0.00166575
0.000151784
-0.00172738
0.000145684
-0.0017862
0.000139037
-0.00184199
0.000131873
-0.00189453
0.000124224
-0.00194365
0.000116121
-0.00198916
0.000107598
-0.00203089
9.86849e-05
-0.00206871
8.94159e-05
-0.00210245
7.98238e-05
-0.00213202
6.99418e-05
-0.00215729
5.98037e-05
-0.00217818
4.94435e-05
-0.0021946
3.88956e-05
-0.0022065
2.8195e-05
-0.00221381
1.73771e-05
-0.00221651
6.47802e-06
-0.00221459
-4.46593e-06
-0.00220803
-1.54178e-05
-0.00219685
-2.634e-05
-0.00218108
-3.71949e-05
-0.00216076
-4.7944e-05
-0.00213597
-5.85486e-05
-0.00210677
-6.89696e-05
-0.00207326
-7.91675e-05
-0.00203555
-8.91026e-05
-0.00199377
-9.87348e-05
-0.00194807
-0.000108024
-0.00189861
-0.000116931
-0.00184557
-0.000125414
-0.00178914
-0.000133435
-0.00172954
-0.000140954
-0.001667
-0.000147931
-0.00160175
-0.000154328
-0.00153407
-0.000160107
-0.00146422
-0.000165233
-0.0013925
-0.000169668
-0.00131921
-0.000173379
-0.00124467
-0.000176332
-0.00116921
-0.000178496
-0.00109318
-0.000179843
-0.00101692
-0.000180344
-0.000940809
-0.000179976
-0.000865207
-0.000178718
-0.000790497
-0.00017655
-0.000717062
-0.000173459
-0.000645289
-0.000169433
-0.000575567
-0.000164467
-0.000508284
-0.000158561
-0.000443823
-0.000151719
-0.000382559
-0.000143956
-0.000324857
-0.000135294
-0.000271067
-0.000125766
-0.000221515
-0.000115418
-0.0001765
-0.000104311
-0.000136284
-9.25269e-05
-0.000101082
-8.0174e-05
-7.10476e-05
-6.7393e-05
-4.6259e-05
-5.43683e-05
-2.66968e-05
-4.1342e-05
-1.222e-05
-2.86323e-05
-2.53562e-06
-1.6658e-05
2.83721e-06
-5.97111e-06
4.60876e-06
2.70481e-06
3.76395e-06
8.43671e-06
1.62066e-06
1.00416e-05
5.94799e-06
7.70336e-07
-6.54165e-06
7.30477e-07
-9.26632e-06
-1.83195e-06
-4.53979e-06
-8.18962e-06
5.57116e-06
-1.92916e-05
1.95066e-05
-3.58157e-05
3.60275e-05
-5.82113e-05
5.41646e-05
-8.67361e-05
7.31694e-05
-0.000121491
9.24678e-05
-0.000162448
0.00011162
-0.000209473
0.00013029
-0.000262351
0.000148223
-0.000320801
0.000165226
-0.00038449
0.000181156
-0.000453046
0.000195906
-0.000526067
0.0002094
-0.00060313
0.000221585
-0.000683798
0.000232427
-0.000767622
0.000241907
-0.000854149
0.000250018
-0.000942925
0.000256763
-0.0010335
0.000262154
-0.00112541
0.000266208
-0.00121824
0.000268947
-0.00131153
0.000270401
-0.00140486
0.0002706
-0.00149782
0.000269579
-0.00159001
0.000267374
-0.00168103
0.000264025
-0.00177051
0.000259573
-0.00185807
0.00025406
-0.00194339
0.000247529
-0.00202611
0.000240025
-0.00210592
0.000231593
-0.00218251
0.000222279
-0.00225561
0.00021213
-0.00232493
0.000201193
-0.00239022
0.000189515
-0.00245124
0.000177146
-0.00250778
0.000164134
-0.00255962
0.000150528
-0.00260658
0.000136379
-0.0026485
0.000121737
-0.00268521
0.000106653
-0.00271658
9.1178e-05
-0.0027425
7.53653e-05
-0.00276288
5.92673e-05
-0.00277762
4.29374e-05
-0.00278667
2.643e-05
-0.00278999
9.80001e-06
-0.00278756
-6.89685e-06
-0.00277938
-2.36041e-05
-0.00276545
-4.02646e-05
-0.00274583
-5.68205e-05
-0.00272056
-7.32134e-05
-0.00268972
-8.93843e-05
-0.00265342
-0.000105273
-0.00261176
-0.000120821
-0.0025649
-0.000135966
-0.00251299
-0.000150648
-0.00245621
-0.000164806
-0.00239476
-0.00017838
-0.00232886
-0.000191308
-0.00225877
-0.000203531
-0.00218473
-0.000214988
-0.00210704
-0.00022562
-0.002026
-0.000235369
-0.00194193
-0.000244179
-0.00185517
-0.000251994
-0.00176608
-0.00025876
-0.00167503
-0.000264426
-0.00158242
-0.000268942
-0.00148865
-0.000272263
-0.00139415
-0.000274344
-0.00129935
-0.000275146
-0.00120469
-0.000274634
-0.00111063
-0.000272777
-0.00101764
-0.000269547
-0.000926169
-0.000264927
-0.000836701
-0.000258901
-0.000749706
-0.000251463
-0.00066565
-0.000242617
-0.000584995
-0.000232374
-0.000508193
-0.000220758
-0.00043568
-0.000207808
-0.000367868
-0.000193578
-0.000305145
-0.000178141
-0.00024786
-0.000161596
-0.000196318
-0.000144069
-0.000150764
-0.000125728
-0.000111373
-0.000106783
-7.82321e-05
-8.75091e-05
-5.13188e-05
-6.82553e-05
-3.04792e-05
-4.94718e-05
-1.54006e-05
-3.17366e-05
-5.58076e-06
-1.5791e-05
-2.92723e-07
-2.58321e-06
1.45425e-06
6.68979e-06
9.677e-07
1.05282e-05
6.91572e-06
-1.15214e-07
-6.42658e-06
-2.39036e-06
-6.99133e-06
-8.33281e-06
1.40274e-06
-1.91075e-05
1.63457e-05
-3.55962e-05
3.59953e-05
-5.84377e-05
5.88688e-05
-8.80583e-05
8.3785e-05
-0.000124702
0.000109813
-0.000168456
0.000136222
-0.000219277
0.000162441
-0.000277012
0.000188025
-0.00034142
0.000212631
-0.000412186
0.000235992
-0.000488936
0.000257906
-0.000571253
0.000278222
-0.000658681
0.000296828
-0.000750742
0.000313645
-0.000846934
0.000328619
-0.000946745
0.000341718
-0.00104966
0.000352927
-0.00115514
0.000362247
-0.00126267
0.000369689
-0.00137174
0.000375272
-0.00148182
0.000379027
-0.00159241
0.00038099
-0.00170301
0.000381201
-0.00181313
0.000379706
-0.00192232
0.000376556
-0.0020301
0.000371804
-0.00213603
0.000365505
-0.00223968
0.000357718
-0.00234066
0.000348502
-0.00243855
0.000337919
-0.00253299
0.000326033
-0.00262362
0.000312907
-0.0027101
0.000298607
-0.0027921
0.000283198
-0.00286933
0.000266748
-0.00294151
0.000249325
-0.00300838
0.000230998
-0.00306969
0.000211836
-0.00312522
0.00019191
-0.00317477
0.00017129
-0.00321817
0.000150049
-0.00325525
0.000128259
-0.00328588
0.000105995
-0.00330994
8.333e-05
-0.00332734
6.03405e-05
-0.00333802
3.71028e-05
-0.00334191
1.36944e-05
-0.003339
-9.80626e-06
-0.00332929
-3.33196e-05
-0.00331279
-5.67651e-05
-0.00328954
-8.00616e-05
-0.00325963
-0.000103127
-0.00322314
-0.000125877
-0.00318018
-0.00014823
-0.0031309
-0.0001701
-0.00307546
-0.000191403
-0.00301406
-0.000212053
-0.0029469
-0.000231966
-0.00287422
-0.000251056
-0.00279629
-0.000269238
-0.0027134
-0.000286427
-0.00262584
-0.000302541
-0.00253397
-0.000317497
-0.00243812
-0.000331214
-0.00233869
-0.000343613
-0.00223607
-0.000354616
-0.00213068
-0.00036415
-0.00202296
-0.000372143
-0.00191337
-0.000378527
-0.0018024
-0.000383239
-0.00169052
-0.00038622
-0.00157825
-0.000387415
-0.00146611
-0.000386776
-0.00135463
-0.000384262
-0.00124433
-0.000379839
-0.00113578
-0.000373482
-0.00102951
-0.000365174
-0.000926058
-0.00035491
-0.000825977
-0.000342698
-0.000729792
-0.000328558
-0.000638021
-0.000312529
-0.00055116
-0.000294669
-0.000469681
-0.000275057
-0.00039402
-0.000253802
-0.000324573
-0.000231043
-0.000261679
-0.000206963
-0.000205617
-0.00018179
-0.000156582
-0.000155818
-0.000114676
-0.000129415
-7.98876e-05
-0.000103044
-5.2069e-05
-7.72905e-05
-3.09158e-05
-5.28899e-05
-1.59407e-05
-3.07662e-05
-6.44626e-06
-1.20776e-05
-1.49452e-06
1.73812e-06
1.30976e-07
8.90282e-06
7.04673e-06
-1.09105e-06
-5.33524e-06
-5.86984e-06
-2.21275e-06
-1.5587e-05
1.112e-05
-3.12441e-05
3.20025e-05
-5.36138e-05
5.83651e-05
-8.32597e-05
8.85148e-05
-0.000120555
0.00012108
-0.000165704
0.000154962
-0.000218764
0.000189282
-0.000279665
0.000223342
-0.000348226
0.000256586
-0.000424175
0.00028858
-0.000507164
0.00031898
-0.00059678
0.000347523
-0.000692565
0.000374007
-0.000794015
0.000398279
-0.0009006
0.00042023
-0.00101177
0.000439785
-0.00112694
0.000456894
-0.00124555
0.000471534
-0.001367
0.000483698
-0.00149071
0.000493396
-0.00161609
0.000500652
-0.00174256
0.0005055
-0.00186955
0.000507984
-0.00199651
0.000508157
-0.00212288
0.000506075
-0.00224812
0.000501803
-0.00237173
0.000495409
-0.00249319
0.000486965
-0.00261202
0.000476548
-0.00272775
0.000464235
-0.00283994
0.000450107
-0.00294816
0.000434248
-0.00305199
0.000416742
-0.00315106
0.000397674
-0.00324499
0.000377133
-0.00333345
0.000355208
-0.00341612
0.000331989
-0.00349269
0.000307568
-0.00356289
0.000282036
-0.00362646
0.000255488
-0.00368319
0.000228018
-0.00373286
0.000199722
-0.0037753
0.000170697
-0.00381035
0.000141042
-0.00383788
0.000110856
-0.00385777
8.02391e-05
-0.00386997
4.9294e-05
-0.0038744
1.81239e-05
-0.00387103
-1.31668e-05
-0.00385988
-4.44722e-05
-0.00384096
-7.56852e-05
-0.00381433
-0.000106698
-0.00378005
-0.0001374
-0.00373825
-0.000167682
-0.00368905
-0.000197432
-0.00363261
-0.000226539
-0.00356912
-0.00025489
-0.0034988
-0.000282372
-0.0034219
-0.000308871
-0.00333868
-0.000334276
-0.00324944
-0.000358474
-0.00315451
-0.000381353
-0.00305425
-0.000402803
-0.00294903
-0.000422715
-0.00283927
-0.000440983
-0.00272538
-0.000457503
-0.00260782
-0.000472172
-0.00248707
-0.000484895
-0.00236364
-0.000495577
-0.00223804
-0.000504129
-0.00211081
-0.00051047
-0.00198251
-0.000514522
-0.0018537
-0.000516217
-0.00172499
-0.000515491
-0.00159696
-0.000512294
-0.00147021
-0.000506582
-0.00134537
-0.000498326
-0.00122304
-0.000487507
-0.00110382
-0.000474123
-0.000988335
-0.000458186
-0.000877162
-0.000439731
-0.00077088
-0.000418811
-0.000670042
-0.000395508
-0.000575168
-0.000369931
-0.000486742
-0.000342228
-0.0004052
-0.000312586
-0.000330918
-0.000281244
-0.000264206
-0.000248503
-0.000205285
-0.000214739
-0.000154283
-0.000180417
-0.000111209
-0.000146118
-7.5942e-05
-0.000112558
-4.82091e-05
-8.06229e-05
-2.75676e-05
-5.14076e-05
-1.33855e-05
-2.62598e-05
-4.82108e-06
-6.82626e-06
-8.03006e-07
4.88486e-06
6.24377e-06
-2.10634e-06
-3.22899e-06
-9.53636e-06
5.21756e-06
-2.32687e-05
2.48523e-05
-4.4113e-05
5.28469e-05
-7.27023e-05
8.69543e-05
-0.000109496
0.000125309
-0.000154793
0.000166376
-0.000208738
0.000208907
-0.000271341
0.000251886
-0.000342492
0.000294493
-0.000421974
0.000336069
-0.00050948
0.000376085
-0.000604624
0.000414124
-0.000706957
0.000449856
-0.000815977
0.000483026
-0.000931139
0.000513441
-0.00105186
0.000540956
-0.00117755
0.000565471
-0.00130757
0.000586918
-0.0014413
0.000605261
-0.00157809
0.000620487
-0.0017173
0.000632604
-0.00185828
0.000641636
-0.00200041
0.000647623
-0.00214304
0.000650617
-0.00228556
0.00065068
-0.00242737
0.000647882
-0.00256787
0.000642303
-0.00270649
0.000634026
-0.00284267
0.000623143
-0.00297586
0.000609746
-0.00310556
0.000593936
-0.00323127
0.000575814
-0.00335251
0.000555483
-0.00346882
0.000533053
-0.00357978
0.000508631
-0.00368497
0.00048233
-0.00378403
0.000454263
-0.00387658
0.000424544
-0.0039623
0.00039329
-0.00404088
0.000360619
-0.00411205
0.000326651
-0.00417554
0.000291507
-0.00423113
0.00025531
-0.00427861
0.000218183
-0.00431782
0.000180252
-0.00434861
0.000141645
-0.00437086
0.00010249
-0.00438448
6.29175e-05
-0.00438942
2.306e-05
-0.00438564
-1.69491e-05
-0.00437314
-5.69747e-05
-0.00435194
-9.68798e-05
-0.00432211
-0.000136526
-0.00428374
-0.000175775
-0.00423694
-0.000214484
-0.00418186
-0.000252513
-0.00411868
-0.000289718
-0.00404761
-0.000325956
-0.0039689
-0.000361083
-0.00388281
-0.000394957
-0.00378966
-0.000427432
-0.00368976
-0.000458368
-0.0035835
-0.000487621
-0.00347125
-0.000515053
-0.00335344
-0.000540524
-0.00323052
-0.000563902
-0.00310297
-0.000585053
-0.00297129
-0.000603849
-0.00283602
-0.000620169
-0.0026977
-0.000633895
-0.00255691
-0.000644916
-0.00241425
-0.000653127
-0.00227034
-0.000658435
-0.00212581
-0.000660751
-0.0019813
-0.000660002
-0.00183747
-0.000656122
-0.00169499
-0.000649062
-0.00155453
-0.000638787
-0.00141676
-0.000625277
-0.00128235
-0.000608532
-0.00115196
-0.000588574
-0.00102624
-0.00056545
-0.000905819
-0.000539234
-0.000791294
-0.000510032
-0.000683237
-0.000477988
-0.000582175
-0.00044329
-0.000488582
-0.000406178
-0.000402874
-0.000366952
-0.000325392
-0.000325985
-0.000256393
-0.000283737
-0.000196036
-0.000240774
-0.000144367
-0.000197787
-0.000101306
-0.000155619
-6.66321e-05
-0.000115297
-3.99708e-05
-7.80689e-05
-2.0782e-05
-4.54486e-05
-8.35047e-06
-1.92577e-05
-1.78104e-06
-1.68447e-06
4.46276e-06
-3.12913e-06
-9.99663e-08
-1.32784e-05
1.53668e-05
-3.11571e-05
4.27312e-05
-5.73702e-05
7.90599e-05
-9.23932e-05
0.000121977
-0.000136565
0.000169481
-0.000190088
0.000219899
-0.000253034
0.000271852
-0.000325351
0.000324203
-0.000406878
0.00037602
-0.000497354
0.000426544
-0.000596427
0.000475159
-0.000703673
0.00052137
-0.000818603
0.000564786
-0.000940672
0.000605096
-0.00106929
0.000642063
-0.00120385
0.000675508
-0.00134368
0.000705302
-0.00148812
0.00073136
-0.00163649
0.00075363
-0.00178809
0.00077209
-0.00194223
0.000786745
-0.00209822
0.000797622
-0.00225536
0.000804763
-0.00241297
0.000808228
-0.00257038
0.000808091
-0.00272693
0.000804435
-0.00288198
0.000797353
-0.0030349
0.000786949
-0.00318509
0.000773329
-0.00333195
0.00075661
-0.00347493
0.000736912
-0.00361347
0.000714357
-0.00374707
0.000689076
-0.00387521
0.000661199
-0.00399744
0.00063086
-0.00411331
0.000598198
-0.0042224
0.000563352
-0.00432432
0.000526463
-0.0044187
0.000487676
-0.00450522
0.000447137
-0.00458356
0.000404993
-0.00465345
0.000361395
-0.00471464
0.000316494
-0.0047669
0.000270445
-0.00481005
0.000223402
-0.00484393
0.000175524
-0.00486841
0.00012697
-0.00488339
7.79015e-05
-0.00488881
2.84824e-05
-0.00488464
-2.11219e-05
-0.00487087
-7.07439e-05
-0.00484754
-0.000120214
-0.0048147
-0.000169362
-0.00477246
-0.000218015
-0.00472094
-0.000265999
-0.00466032
-0.000313138
-0.00459078
-0.000359257
-0.00451256
-0.000404178
-0.00442592
-0.000447724
-0.00433116
-0.000489718
-0.00422861
-0.000529982
-0.00411863
-0.000568343
-0.00400163
-0.000604624
-0.00387803
-0.000638654
-0.00374829
-0.000670264
-0.0036129
-0.000699288
-0.00347239
-0.000725564
-0.0033273
-0.000748937
-0.00317822
-0.000769256
-0.00302573
-0.000786378
-0.00287048
-0.000800167
-0.00271311
-0.000810497
-0.00255429
-0.000817254
-0.00239471
-0.000820334
-0.00223507
-0.000819645
-0.00207608
-0.000815113
-0.00191846
-0.000806679
-0.00176294
-0.000794302
-0.00161026
-0.000777964
-0.00146112
-0.000757668
-0.00131625
-0.000733446
-0.00117634
-0.000705359
-0.00104207
-0.000673503
-0.000914091
-0.000638011
-0.000793015
-0.000599064
-0.000679412
-0.000556893
-0.000573799
-0.000511791
-0.00047663
-0.000464121
-0.000388285
-0.00041433
-0.000309061
-0.000362961
-0.000239158
-0.000310677
-0.000178669
-0.000258275
-0.000127571
-0.000206717
-8.57108e-05
-0.000157157
-5.28e-05
-0.00011098
-2.84092e-05
-6.98392e-05
-1.1968e-05
-3.56989e-05
-2.77104e-06
-1.08813e-05
1.69173e-06
-4.14264e-06
4.04275e-06
-1.70253e-05
2.82493e-05
-3.91034e-05
6.48094e-05
-7.07759e-05
0.000110733
-0.000112353
0.000163554
-0.000164039
0.000221167
-0.000225931
0.000281791
-0.000298011
0.000343933
-0.000380158
0.000406349
-0.000472146
0.000468008
-0.00057366
0.000528058
-0.000684304
0.000585802
-0.000803606
0.000640672
-0.000931033
0.000692213
-0.001066
0.000740062
-0.00120788
0.000783938
-0.00135599
0.000823627
-0.00150966
0.000858971
-0.00166817
0.000889863
-0.00183077
0.000916237
-0.00199675
0.000938063
-0.00216534
0.000955341
-0.00233582
0.000968097
-0.00250743
0.000976379
-0.00267946
0.000980255
-0.00285118
0.000979808
-0.00302188
0.000975135
-0.00319087
0.000966347
-0.00335749
0.000953563
-0.00352107
0.000936911
-0.00368099
0.000916528
-0.00383663
0.000892556
-0.00398742
0.000865144
-0.00413279
0.000834445
-0.0042722
0.000800616
-0.00440516
0.00076382
-0.00453118
0.00072422
-0.00464982
0.000681986
-0.00476064
0.000637287
-0.00486326
0.000590298
-0.00495732
0.000541195
-0.00504249
0.000490156
-0.00511845
0.000437362
-0.00518496
0.000382997
-0.00524176
0.000327247
-0.00528866
0.000270299
-0.00532548
0.000212344
-0.00535208
0.000153575
-0.00536837
9.41873e-05
-0.00537426
3.43785e-05
-0.00536973
-2.56514e-05
-0.00535478
-8.57004e-05
-0.00532943
-0.000145564
-0.00529375
-0.000205036
-0.00524786
-0.000263908
-0.00519189
-0.00032197
-0.00512602
-0.00037901
-0.00505046
-0.000434817
-0.00496546
-0.000489178
-0.0048713
-0.000541878
-0.00476832
-0.000592704
-0.00465686
-0.000641444
-0.00453731
-0.000687887
-0.00441011
-0.000731824
-0.00427572
-0.000773047
-0.00413463
-0.000811353
-0.00398737
-0.000846545
-0.00383451
-0.000878429
-0.00367663
-0.000906817
-0.00351435
-0.000931531
-0.00334833
-0.0009524
-0.00317923
-0.000969262
-0.00300776
-0.000981969
-0.00283464
-0.000990383
-0.00266059
-0.000994383
-0.00248637
-0.000993862
-0.00231275
-0.000988734
-0.0021405
-0.00097893
-0.0019704
-0.000964405
-0.00180322
-0.000945142
-0.00163974
-0.000921148
-0.00148072
-0.000892465
-0.00132691
-0.00085917
-0.00117903
-0.000821381
-0.00103778
-0.000779262
-0.000903813
-0.00073303
-0.000777745
-0.000682961
-0.000660135
-0.000629402
-0.000551478
-0.000572778
-0.0004522
-0.000513607
-0.000362644
-0.000452518
-0.00028306
-0.000390261
-0.000213599
-0.000327736
-0.000154305
-0.000266012
-0.000105105
-0.000206357
-6.58104e-05
-0.000150275
-3.61144e-05
-9.95351e-05
-1.55999e-05
-5.62132e-05
-3.75403e-06
-2.27272e-05
-2.06229e-06
-5.13682e-06
9.17961e-06
-2.07333e-05
4.38456e-05
-4.70105e-05
9.10867e-05
-8.41675e-05
0.00014789
-0.000132347
0.000211733
-0.000191615
0.000280435
-0.000261951
0.000352127
-0.000343241
0.000425223
-0.000435282
0.00049839
-0.000537779
0.000570505
-0.000650355
0.000640636
-0.00077256
0.000708007
-0.000903873
0.000771984
-0.00104371
0.000832053
-0.00119145
0.000887799
-0.00134641
0.000938898
-0.00150788
0.0009851
-0.00167513
0.00102622
-0.0018474
0.00106213
-0.00202391
0.00109275
-0.00220389
0.00111804
-0.00238653
0.00113799
-0.00257107
0.00115263
-0.0027567
0.00116201
-0.00294267
0.00116622
-0.00312819
0.00116533
-0.00331253
0.00115947
-0.00349494
0.00114876
-0.00367472
0.00113334
-0.00385117
0.00111336
-0.00402361
0.00108897
-0.0041914
0.00106034
-0.00435391
0.00102766
-0.00451055
0.000991085
-0.00466075
0.000950815
-0.00480397
0.000907037
-0.00493969
0.000859944
-0.00506744
0.000809736
-0.00518677
0.000756613
-0.00529725
0.000700782
-0.0053985
0.00064245
-0.00549018
0.000581829
-0.00557195
0.000519132
-0.00564353
0.000454577
-0.00570467
0.000388385
-0.00575514
0.000320776
-0.00579478
0.000251978
-0.00582342
0.000182219
-0.00584096
0.000111729
-0.00584733
4.07433e-05
-0.00584248
-3.05021e-05
-0.00582641
-0.000101768
-0.00579916
-0.000172812
-0.00576081
-0.00024339
-0.00571146
-0.000313256
-0.00565127
-0.000382162
-0.00558042
-0.000449858
-0.00549914
-0.000516094
-0.0054077
-0.000580616
-0.00530641
-0.000643175
-0.0051956
-0.000703517
-0.00507565
-0.000761392
-0.00494698
-0.000816551
-0.00481006
-0.000868747
-0.00466537
-0.000917738
-0.00451344
-0.000963284
-0.00435483
-0.00100515
-0.00419014
-0.00104312
-0.00402001
-0.00107695
-0.00384508
-0.00110646
-0.00366606
-0.00113143
-0.00348365
-0.00115167
-0.0032986
-0.00116702
-0.00311167
-0.00117731
-0.00292365
-0.00118241
-0.00273533
-0.00118218
-0.00254752
-0.00117654
-0.00236105
-0.0011654
-0.00217675
-0.00114871
-0.00199543
-0.00112646
-0.00181792
-0.00109866
-0.00164503
-0.00106536
-0.00147755
-0.00102665
-0.00131624
-0.000982683
-0.00116186
-0.000933643
-0.00101511
-0.000879788
-0.00087663
-0.000821437
-0.000747041
-0.000758992
-0.00062688
-0.000692938
-0.000516622
-0.000623865
-0.000416663
-0.000552477
-0.000327311
-0.000479613
-0.000248783
-0.000406263
-0.000181199
-0.000333596
-0.000124577
-0.000262979
-7.88352e-05
-0.000196016
-4.37968e-05
-0.000134573
-1.92001e-05
-8.08099e-05
-4.71912e-06
-3.72082e-05
-6.78141e-06
-6.10634e-06
1.52863e-05
-2.43764e-05
6.21155e-05
-5.48172e-05
0.000121527
-9.74381e-05
0.00019051
-0.000152217
0.000266512
-0.000219079
0.000347297
-0.000297883
0.00043093
-0.000388412
0.000515753
-0.000490373
0.000600351
-0.000603396
0.000683528
-0.000727037
0.000764276
-0.000860783
0.000841753
-0.00100406
0.000915261
-0.00115624
0.00098423
-0.00131664
0.0010482
-0.00148454
0.0011068
-0.00165919
0.00115975
-0.00183981
0.00120684
-0.0020256
0.00124792
-0.00221574
0.00128289
-0.0024094
0.0013117
-0.00260576
0.00133435
-0.00280399
0.00135086
-0.00300326
0.00136128
-0.00320275
0.00136571
-0.00340166
0.00136424
-0.0035992
0.00135701
-0.00379459
0.00134415
-0.00398708
0.00132583
-0.00417593
0.00130221
-0.00436044
0.00127348
-0.00453992
0.00123982
-0.00471371
0.00120145
-0.00488119
0.00115856
-0.00504174
0.00111137
-0.0051948
0.0010601
-0.00533984
0.00100498
-0.00547633
0.000946229
-0.00560381
0.000884092
-0.00572183
0.000818802
-0.00582998
0.000750604
-0.0059279
0.000679742
-0.00601523
0.000606465
-0.00609168
0.000531027
-0.00615698
0.000453684
-0.0062109
0.000374694
-0.00625324
0.000294321
-0.00628385
0.000212831
-0.00630261
0.000130492
-0.00630945
4.75784e-05
-0.00630432
-3.56358e-05
-0.00628721
-0.000118872
-0.00625818
-0.000201848
-0.00621729
-0.00028428
-0.00616466
-0.000365882
-0.00610046
-0.000446365
-0.00602488
-0.000525438
-0.00593816
-0.000602811
-0.00584059
-0.000678191
-0.00573248
-0.000751284
-0.00561419
-0.0008218
-0.00548614
-0.000889446
-0.00534876
-0.000953934
-0.00520252
-0.00101498
-0.00504797
-0.0010723
-0.00488564
-0.00112561
-0.00471613
-0.00117466
-0.00454008
-0.00121916
-0.00435815
-0.00125888
-0.00417104
-0.00129357
-0.00397947
-0.00132299
-0.0037842
-0.00134694
-0.00358601
-0.00136521
-0.00338571
-0.00137761
-0.00318413
-0.00138399
-0.00298209
-0.00138421
-0.00278048
-0.00137816
-0.00258013
-0.00136574
-0.00238194
-0.0013469
-0.00218677
-0.00132163
-0.00199548
-0.00128995
-0.00180893
-0.00125191
-0.00162795
-0.00120762
-0.00145338
-0.00115726
-0.00128598
-0.00110104
-0.0011265
-0.00103926
-0.000975666
-0.000972276
-0.000834114
-0.000900544
-0.000702441
-0.000824611
-0.000581175
-0.000745131
-0.00047077
-0.000662882
-0.0003716
-0.000578783
-0.000283956
-0.000493908
-0.000208039
-0.000409512
-0.000143965
-0.000327053
-9.1765e-05
-0.000248216