/*--------------------------------*- C++ -*----------------------------------*\
  =========                 |
  \\      /  F ield         | OpenFOAM: The Open Source CFD Toolbox
   \\    /   O peration     | Website:  https://openfoam.org
    \\  /    A nd           | Version:  11
     \\/     M anipulation  |
\*---------------------------------------------------------------------------*/
FoamFile
{
    format      ascii;
    class       volVectorField;
    location    "8.1";
    object      U;
}
// * * * * * * * * * * * * * * * * * * * * * * * * * * * * * * * * * * * * * //

dimensions      [0 1 -1 0 0 0 0];

internalField   nonuniform List<vector> 
10100
(
(2.96352e-06 -3.04477e-06 0)
(1.46634e-05 -7.68042e-06 0)
(3.36584e-05 -8.92955e-06 0)
(5.14788e-05 -7.72868e-06 0)
(6.32471e-05 -5.24146e-06 0)
(6.64653e-05 -2.12412e-06 0)
(5.99009e-05 1.25045e-06 0)
(4.29684e-05 4.68024e-06 0)
(1.55422e-05 8.05181e-06 0)
(-2.21946e-05 1.12914e-05 0)
(-6.98886e-05 1.43544e-05 0)
(-0.000127048 1.72165e-05 0)
(-0.000193106 1.98673e-05 0)
(-0.000267442 2.2302e-05 0)
(-0.000349401 2.45198e-05 0)
(-0.000438308 2.65184e-05 0)
(-0.000533474 2.82989e-05 0)
(-0.000634214 2.9866e-05 0)
(-0.000739839 3.12223e-05 0)
(-0.000849667 3.23708e-05 0)
(-0.00096303 3.33188e-05 0)
(-0.00107927 3.40724e-05 0)
(-0.00119775 3.46361e-05 0)
(-0.00131783 3.50161e-05 0)
(-0.00143891 3.52185e-05 0)
(-0.00156039 3.52487e-05 0)
(-0.00168171 3.51134e-05 0)
(-0.00180231 3.48209e-05 0)
(-0.00192166 3.43791e-05 0)
(-0.00203925 3.37931e-05 0)
(-0.00215459 3.30674e-05 0)
(-0.00226723 3.2209e-05 0)
(-0.0023767 3.12263e-05 0)
(-0.0024826 3.01268e-05 0)
(-0.00258451 2.8916e-05 0)
(-0.00268205 2.75979e-05 0)
(-0.00277486 2.6178e-05 0)
(-0.00286261 2.46628e-05 0)
(-0.00294496 2.30594e-05 0)
(-0.00302163 2.13738e-05 0)
(-0.00309234 1.96121e-05 0)
(-0.00315683 1.7781e-05 0)
(-0.00321488 1.58868e-05 0)
(-0.00326628 1.39361e-05 0)
(-0.00331083 1.1935e-05 0)
(-0.00334839 9.88945e-06 0)
(-0.00337879 7.80544e-06 0)
(-0.00340194 5.68904e-06 0)
(-0.00341772 3.54699e-06 0)
(-0.00342608 1.38667e-06 0)
(-0.00342695 -7.84243e-07 0)
(-0.00342033 -2.95824e-06 0)
(-0.00340621 -5.12799e-06 0)
(-0.00338463 -7.28625e-06 0)
(-0.00335563 -9.42572e-06 0)
(-0.00331931 -1.15389e-05 0)
(-0.00327577 -1.36178e-05 0)
(-0.00322514 -1.56542e-05 0)
(-0.00316758 -1.76401e-05 0)
(-0.0031033 -1.95678e-05 0)
(-0.0030325 -2.14292e-05 0)
(-0.00295543 -2.3216e-05 0)
(-0.00287237 -2.49198e-05 0)
(-0.00278361 -2.65323e-05 0)
(-0.00268949 -2.80454e-05 0)
(-0.00259036 -2.94514e-05 0)
(-0.00248661 -3.07425e-05 0)
(-0.00237865 -3.19108e-05 0)
(-0.00226691 -3.29484e-05 0)
(-0.00215186 -3.38474e-05 0)
(-0.00203399 -3.46001e-05 0)
(-0.0019138 -3.5199e-05 0)
(-0.00179185 -3.56366e-05 0)
(-0.00166869 -3.59061e-05 0)
(-0.00154491 -3.6001e-05 0)
(-0.0014211 -3.59154e-05 0)
(-0.00129789 -3.56434e-05 0)
(-0.00117591 -3.51799e-05 0)
(-0.00105583 -3.45197e-05 0)
(-0.000938293 -3.36585e-05 0)
(-0.000823991 -3.25922e-05 0)
(-0.000713607 -3.13172e-05 0)
(-0.00060783 -2.98307e-05 0)
(-0.000507355 -2.81312e-05 0)
(-0.000412869 -2.62186e-05 0)
(-0.000325053 -2.40945e-05 0)
(-0.00024457 -2.17616e-05 0)
(-0.000172061 -1.9224e-05 0)
(-0.000108133 -1.64888e-05 0)
(-5.33454e-05 -1.35669e-05 0)
(-8.19144e-06 -1.04755e-05 0)
(2.69302e-05 -7.24175e-06 0)
(5.1756e-05 -3.90915e-06 0)
(6.6221e-05 -5.49232e-07 0)
(7.05611e-05 2.71696e-06 0)
(6.54708e-05 5.68044e-06 0)
(5.23254e-05 7.97964e-06 0)
(3.36461e-05 8.97273e-06 0)
(1.44616e-05 7.57368e-06 0)
(2.80259e-06 2.79863e-06 0)
(7.70119e-06 -1.50499e-05 0)
(3.10739e-05 -3.11579e-05 0)
(6.24722e-05 -3.33591e-05 0)
(8.76678e-05 -2.55331e-05 0)
(9.71722e-05 -1.15309e-05 0)
(8.54918e-05 6.04034e-06 0)
(4.92493e-05 2.54888e-05 0)
(-1.34126e-05 4.56836e-05 0)
(-0.000103222 6.59201e-05 0)
(-0.000220106 8.57023e-05 0)
(-0.000363418 0.00010471 0)
(-0.00053212 0.000122721 0)
(-0.000724891 0.000139597 0)
(-0.000940204 0.000155242 0)
(-0.0011764 0.000169593 0)
(-0.00143173 0.000182618 0)
(-0.00170437 0.0001943 0)
(-0.00199248 0.000204633 0)
(-0.0022942 0.000213619 0)
(-0.00260768 0.000221275 0)
(-0.00293106 0.000227623 0)
(-0.00326252 0.000232688 0)
(-0.00360028 0.000236498 0)
(-0.00394259 0.000239084 0)
(-0.00428772 0.000240481 0)
(-0.00463403 0.000240727 0)
(-0.00497988 0.000239859 0)
(-0.00532372 0.000237919 0)
(-0.00566404 0.000234949 0)
(-0.0059994 0.000230988 0)
(-0.00632838 0.00022608 0)
(-0.00664967 0.000220265 0)
(-0.00696197 0.000213588 0)
(-0.00726408 0.000206089 0)
(-0.00755483 0.000197809 0)
(-0.00783313 0.000188789 0)
(-0.00809793 0.000179071 0)
(-0.00834827 0.000168699 0)
(-0.00858323 0.000157716 0)
(-0.00880194 0.000146164 0)
(-0.00900363 0.000134086 0)
(-0.00918756 0.000121526 0)
(-0.00935308 0.00010853 0)
(-0.00949959 9.51429e-05 0)
(-0.00962654 8.14092e-05 0)
(-0.00973348 6.73731e-05 0)
(-0.00982 5.30787e-05 0)
(-0.00988576 3.85717e-05 0)
(-0.00993051 2.38993e-05 0)
(-0.00995404 9.1103e-06 0)
(-0.00995622 -5.74505e-06 0)
(-0.00993701 -2.06161e-05 0)
(-0.00989641 -3.54524e-05 0)
(-0.00983452 -5.02037e-05 0)
(-0.00975149 -6.48187e-05 0)
(-0.00964758 -7.92451e-05 0)
(-0.0095231 -9.34292e-05 0)
(-0.00937843 -0.000107316 0)
(-0.00921406 -0.000120852 0)
(-0.00903053 -0.000133983 0)
(-0.00882846 -0.000146652 0)
(-0.00860858 -0.000158806 0)
(-0.00837164 -0.000170389 0)
(-0.00811854 -0.000181345 0)
(-0.00785019 -0.00019162 0)
(-0.00756763 -0.000201158 0)
(-0.00727196 -0.000209908 0)
(-0.00696434 -0.000217816 0)
(-0.00664603 -0.000224832 0)
(-0.00631834 -0.000230903 0)
(-0.00598266 -0.00023598 0)
(-0.00564046 -0.000240014 0)
(-0.00529326 -0.000242959 0)
(-0.00494264 -0.00024477 0)
(-0.00459024 -0.000245408 0)
(-0.00423777 -0.000244835 0)
(-0.00388696 -0.000243018 0)
(-0.00353962 -0.000239925 0)
(-0.00319756 -0.000235529 0)
(-0.00286264 -0.000229806 0)
(-0.00253674 -0.000222738 0)
(-0.00222176 -0.000214313 0)
(-0.00191959 -0.000204528 0)
(-0.00163212 -0.000193385 0)
(-0.00136122 -0.0001809 0)
(-0.00110869 -0.0001671 0)
(-0.000876305 -0.000152028 0)
(-0.000665722 -0.000135746 0)
(-0.000478484 -0.000118338 0)
(-0.000315957 -9.99264e-05 0)
(-0.000179279 -8.06787e-05 0)
(-6.92763e-05 -6.08337e-05 0)
(1.36544e-05 -4.07332e-05 0)
(6.97021e-05 -2.08745e-05 0)
(9.98717e-05 -1.99676e-06 0)
(0.000106299 1.47906e-05 0)
(9.26012e-05 2.78172e-05 0)
(6.44502e-05 3.45622e-05 0)
(3.1388e-05 3.13686e-05 0)
(7.57999e-06 1.4452e-05 0)
(8.8234e-06 -3.37862e-05 0)
(3.3181e-05 -6.25787e-05 0)
(6.11063e-05 -6.12238e-05 0)
(7.55718e-05 -3.8322e-05 0)
(6.51498e-05 -1.01853e-06 0)
(2.27362e-05 4.53381e-05 0)
(-5.63479e-05 9.6881e-05 0)
(-0.000174907 0.000150902 0)
(-0.000334218 0.000205478 0)
(-0.000534414 0.000259269 0)
(-0.000774766 0.000311322 0)
(-0.00105391 0.000360962 0)
(-0.00137 0.000407714 0)
(-0.00172086 0.000451252 0)
(-0.00210406 0.000491352 0)
(-0.00251698 0.000527863 0)
(-0.00295687 0.0005607 0)
(-0.00342093 0.000589818 0)
(-0.0039063 0.000615204 0)
(-0.0044101 0.000636879 0)
(-0.00492946 0.000654882 0)
(-0.00546153 0.00066927 0)
(-0.0060035 0.000680109 0)
(-0.00655263 0.000687479 0)
(-0.00710619 0.000691471 0)
(-0.00766156 0.00069218 0)
(-0.00821617 0.000689711 0)
(-0.00876754 0.000684171 0)
(-0.00931326 0.000675671 0)
(-0.009851 0.000664325 0)
(-0.0103785 0.00065025 0)
(-0.0108938 0.000633563 0)
(-0.0113946 0.000614384 0)
(-0.011879 0.00059283 0)
(-0.0123453 0.00056902 0)
(-0.0127915 0.000543073 0)
(-0.0132161 0.000515112 0)
(-0.0136175 0.000485261 0)
(-0.0139943 0.000453644 0)
(-0.0143449 0.000420385 0)
(-0.0146682 0.000385609 0)
(-0.0149631 0.000349444 0)
(-0.0152283 0.000312018 0)
(-0.0154631 0.000273461 0)
(-0.0156665 0.000233904 0)
(-0.0158377 0.000193478 0)
(-0.0159762 0.000152314 0)
(-0.0160813 0.000110548 0)
(-0.0161528 6.83155e-05 0)
(-0.0161902 2.57571e-05 0)
(-0.0161933 -1.69847e-05 0)
(-0.0161622 -5.97652e-05 0)
(-0.0160967 -0.000102439 0)
(-0.0159971 -0.000144859 0)
(-0.0158637 -0.000186876 0)
(-0.0156968 -0.000228338 0)
(-0.0154969 -0.000269092 0)
(-0.0152647 -0.000308983 0)
(-0.015001 -0.000347856 0)
(-0.0147066 -0.000385554 0)
(-0.0143825 -0.000421919 0)
(-0.0140299 -0.000456793 0)
(-0.0136501 -0.000490019 0)
(-0.0132444 -0.000521439 0)
(-0.0128143 -0.000550896 0)
(-0.0123615 -0.000578235 0)
(-0.0118877 -0.000603304 0)
(-0.0113949 -0.000625953 0)
(-0.0108849 -0.000646036 0)
(-0.01036 -0.000663411 0)
(-0.00982227 -0.000677936 0)
(-0.00927413 -0.000689477 0)
(-0.00871798 -0.000697906 0)
(-0.00815633 -0.000703103 0)
(-0.0075918 -0.000704957 0)
(-0.00702707 -0.000703365 0)
(-0.0064649 -0.000698237 0)
(-0.00590812 -0.000689489 0)
(-0.00535961 -0.000677052 0)
(-0.00482229 -0.000660874 0)
(-0.0042991 -0.000640916 0)
(-0.003793 -0.000617159 0)
(-0.00330692 -0.000589609 0)
(-0.00284379 -0.000558297 0)
(-0.00240647 -0.000523288 0)
(-0.00199774 -0.000484685 0)
(-0.00162024 -0.000442643 0)
(-0.00127647 -0.000397373 0)
(-0.000968681 -0.000349166 0)
(-0.000698834 -0.000298418 0)
(-0.000468498 -0.000245663 0)
(-0.000278725 -0.000191631 0)
(-0.000129896 -0.000137322 0)
(-2.15018e-05 -8.41187e-05 0)
(4.81268e-05 -3.39506e-05 0)
(8.21747e-05 1.04813e-05 0)
(8.56763e-05 4.54103e-05 0)
(6.59935e-05 6.56763e-05 0)
(3.47253e-05 6.44702e-05 0)
(9.00311e-06 3.36578e-05 0)
(7.64436e-06 -5.1559e-05 0)
(2.55688e-05 -8.78723e-05 0)
(3.8702e-05 -7.57813e-05 0)
(2.97144e-05 -2.91248e-05 0)
(-1.33741e-05 4.14315e-05 0)
(-9.84014e-05 0.000127634 0)
(-0.000230717 0.000223234 0)
(-0.000413628 0.000323638 0)
(-0.000648755 0.000425462 0)
(-0.000936367 0.000526236 0)
(-0.00127569 0.000624138 0)
(-0.00166515 0.00071785 0)
(-0.00210252 0.000806407 0)
(-0.00258511 0.000889114 0)
(-0.00310988 0.000965483 0)
(-0.00367351 0.00103518 0)
(-0.0042725 0.00109798 0)
(-0.00490322 0.00115375 0)
(-0.00556197 0.00120245 0)
(-0.00624499 0.00124408 0)
(-0.00694851 0.00127869 0)
(-0.00766878 0.00130636 0)
(-0.00840209 0.00132721 0)
(-0.00914478 0.00134138 0)
(-0.00989327 0.00134902 0)
(-0.010644 0.00135031 0)
(-0.0113936 0.00134544 0)
(-0.0121387 0.00133461 0)
(-0.0128761 0.00131802 0)
(-0.0136027 0.00129589 0)
(-0.0143155 0.00126844 0)
(-0.0150115 0.0012359 0)
(-0.0156881 0.00119849 0)
(-0.0163425 0.00115644 0)
(-0.0169724 0.00110998 0)
(-0.0175752 0.00105935 0)
(-0.0181487 0.00100479 0)
(-0.0186909 0.000946532 0)
(-0.0191997 0.000884821 0)
(-0.0196732 0.000819901 0)
(-0.0201099 0.000752019 0)
(-0.0205079 0.000681422 0)
(-0.0208661 0.000608363 0)
(-0.0211829 0.000533096 0)
(-0.0214574 0.000455877 0)
(-0.0216884 0.000376963 0)
(-0.0218751 0.000296617 0)
(-0.0220168 0.000215102 0)
(-0.022113 0.00013269 0)
(-0.0221631 4.96537e-05 0)
(-0.022167 -3.37295e-05 0)
(-0.0221246 -0.000117178 0)
(-0.0220358 -0.000200408 0)
(-0.021901 -0.00028313 0)
(-0.0217204 -0.000365052 0)
(-0.0214947 -0.00044588 0)
(-0.0212245 -0.000525314 0)
(-0.0209107 -0.000603053 0)
(-0.0205543 -0.000678795 0)
(-0.0201565 -0.000752234 0)
(-0.0197188 -0.000823064 0)
(-0.0192426 -0.00089098 0)
(-0.0187296 -0.000955674 0)
(-0.0181817 -0.00101684 0)
(-0.017601 -0.00107418 0)
(-0.0169897 -0.00112739 0)
(-0.0163501 -0.00117618 0)
(-0.0156848 -0.00122025 0)
(-0.0149964 -0.00125933 0)
(-0.0142879 -0.00129314 0)
(-0.013562 -0.00132142 0)
(-0.0128221 -0.0013439 0)
(-0.0120713 -0.00136035 0)
(-0.011313 -0.00137054 0)
(-0.0105506 -0.00137426 0)
(-0.00978787 -0.00137133 0)
(-0.00902835 -0.00136156 0)
(-0.00827584 -0.00134481 0)
(-0.00753415 -0.00132097 0)
(-0.00680715 -0.00128995 0)
(-0.00609872 -0.00125168 0)
(-0.00541274 -0.00120616 0)
(-0.00475307 -0.00115342 0)
(-0.00412353 -0.00109355 0)
(-0.00352782 -0.0010267 0)
(-0.00296952 -0.00095311 0)
(-0.00245203 -0.000873114 0)
(-0.0019785 -0.000787166 0)
(-0.00155176 -0.000695876 0)
(-0.00117421 -0.000600056 0)
(-0.000847735 -0.000500779 0)
(-0.000573545 -0.000399474 0)
(-0.000351984 -0.000298036 0)
(-0.000182319 -0.000199002 0)
(-6.24535e-05 -0.000105772 0)
(1.13963e-05 -2.2906e-05 0)
(4.50046e-05 4.35148e-05 0)
(4.65469e-05 8.5527e-05 0)
(2.83236e-05 9.29386e-05 0)
(8.07607e-06 5.24775e-05 0)
(5.24846e-06 -6.33694e-05 0)
(1.20093e-05 -9.78099e-05 0)
(2.32627e-06 -6.58802e-05 0)
(-3.94235e-05 1.37386e-05 0)
(-0.000124691 0.000126962 0)
(-0.000261449 0.00026269 0)
(-0.000455189 0.000412363 0)
(-0.000709357 0.000569429 0)
(-0.00102567 0.000728937 0)
(-0.00140444 0.000887149 0)
(-0.00184479 0.00104124 0)
(-0.00234492 0.00118911 0)
(-0.00290233 0.00132918 0)
(-0.0035139 0.00146028 0)
(-0.00417608 0.00158157 0)
(-0.00488499 0.00169244 0)
(-0.00563649 0.00179249 0)
(-0.00642624 0.00188147 0)
(-0.00724982 0.00195924 0)
(-0.0081027 0.00202577 0)
(-0.00898035 0.00208109 0)
(-0.00987821 0.00212533 0)
(-0.0107918 0.00215862 0)
(-0.0117166 0.00218118 0)
(-0.0126482 0.00219324 0)
(-0.0135824 0.00219508 0)
(-0.0145149 0.00218696 0)
(-0.0154416 0.00216921 0)
(-0.0163586 0.00214214 0)
(-0.017262 0.0021061 0)
(-0.0181481 0.00206144 0)
(-0.0190134 0.0020085 0)
(-0.0198543 0.00194766 0)
(-0.0206678 0.00187929 0)
(-0.0214505 0.00180375 0)
(-0.0221997 0.00172143 0)
(-0.0229124 0.00163271 0)
(-0.0235861 0.00153799 0)
(-0.0242182 0.00143765 0)
(-0.0248065 0.0013321 0)
(-0.0253489 0.00122172 0)
(-0.0258434 0.00110693 0)
(-0.0262882 0.000988147 0)
(-0.0266817 0.000865771 0)
(-0.0270224 0.000740225 0)
(-0.0273091 0.000611931 0)
(-0.0275408 0.000481316 0)
(-0.0277166 0.000348814 0)
(-0.0278357 0.000214865 0)
(-0.0278976 7.99151e-05 0)
(-0.0279021 -5.55846e-05 0)
(-0.027849 -0.000191176 0)
(-0.0277384 -0.000326396 0)
(-0.0275705 -0.000460775 0)
(-0.0273459 -0.000593838 0)
(-0.0270651 -0.000725107 0)
(-0.0267292 -0.000854096 0)
(-0.0263391 -0.000980318 0)
(-0.0258961 -0.00110328 0)
(-0.0254018 -0.00122249 0)
(-0.0248578 -0.00133745 0)
(-0.0242662 -0.00144767 0)
(-0.0236289 -0.00155265 0)
(-0.0229483 -0.0016519 0)
(-0.022227 -0.00174493 0)
(-0.0214676 -0.00183126 0)
(-0.0206732 -0.00191042 0)
(-0.0198468 -0.00198194 0)
(-0.0189918 -0.00204536 0)
(-0.0181116 -0.00210026 0)
(-0.0172099 -0.00214619 0)
(-0.0162906 -0.00218277 0)
(-0.0153577 -0.00220961 0)
(-0.0144153 -0.00222635 0)
(-0.0134677 -0.00223266 0)
(-0.0125193 -0.00222824 0)
(-0.0115746 -0.00221284 0)
(-0.0106381 -0.00218623 0)
(-0.00971464 -0.00214824 0)
(-0.0088088 -0.00209875 0)
(-0.00792532 -0.0020377 0)
(-0.0070689 -0.00196508 0)
(-0.00624421 -0.001881 0)
(-0.00545583 -0.00178562 0)
(-0.0047082 -0.00167923 0)
(-0.00400557 -0.00156226 0)
(-0.00335198 -0.00143529 0)
(-0.00275113 -0.00129911 0)
(-0.00220631 -0.00115474 0)
(-0.0017203 -0.00100352 0)
(-0.00129525 -0.000847194 0)
(-0.000932505 -0.000688035 0)
(-0.000632445 -0.000528979 0)
(-0.000394251 -0.000373854 0)
(-0.000215656 -0.000227637 0)
(-9.26625e-05 -9.68037e-05 0)
(-1.9263e-05 1.0261e-05 0)
(1.29214e-05 8.28589e-05 0)
(1.58528e-05 0.00010748 0)
(5.8902e-06 6.60026e-05 0)
(2.27357e-06 -6.69624e-05 0)
(-5.00204e-06 -8.70609e-05 0)
(-4.29017e-05 -2.45422e-05 0)
(-0.000123997 9.80199e-05 0)
(-0.000258434 0.000263466 0)
(-0.00045377 0.000458107 0)
(-0.000715256 0.000671143 0)
(-0.00104618 0.000894147 0)
(-0.00144812 0.00112058 0)
(-0.00192125 0.00134539 0)
(-0.00246453 0.00156468 0)
(-0.00307594 0.00177545 0)
(-0.00375267 0.00197544 0)
(-0.00449124 0.00216293 0)
(-0.00528766 0.00233664 0)
(-0.00613755 0.00249564 0)
(-0.00703621 0.00263929 0)
(-0.00797874 0.00276715 0)
(-0.00896004 0.00287898 0)
(-0.00997495 0.00297467 0)
(-0.0110182 0.00305426 0)
(-0.0120846 0.00311784 0)
(-0.0131689 0.00316562 0)
(-0.0142659 0.00319786 0)
(-0.0153705 0.00321487 0)
(-0.0164777 0.00321703 0)
(-0.0175825 0.00320472 0)
(-0.0186802 0.00317837 0)
(-0.0197661 0.00313846 0)
(-0.0208358 0.00308546 0)
(-0.0218847 0.00301986 0)
(-0.0229089 0.00294217 0)
(-0.0239042 0.00285293 0)
(-0.0248668 0.00275266 0)
(-0.025793 0.00264192 0)
(-0.0266793 0.00252125 0)
(-0.0275225 0.00239122 0)
(-0.0283194 0.00225239 0)
(-0.0290672 0.00210534 0)
(-0.029763 0.00195065 0)
(-0.0304045 0.0017889 0)
(-0.0309892 0.0016207 0)
(-0.0315151 0.00144664 0)
(-0.0319802 0.00126733 0)
(-0.032383 0.00108338 0)
(-0.0327219 0.000895411 0)
(-0.0329956 0.000704059 0)
(-0.0332031 0.000509958 0)
(-0.0333436 0.000313752 0)
(-0.0334166 0.000116096 0)
(-0.0334215 -8.23474e-05 0)
(-0.0333584 -0.000280907 0)
(-0.0332272 -0.000478903 0)
(-0.0330284 -0.000675649 0)
(-0.0327624 -0.00087045 0)
(-0.0324301 -0.0010626 0)
(-0.0320325 -0.0012514 0)
(-0.031571 -0.00143613 0)
(-0.0310469 -0.00161608 0)
(-0.0304622 -0.00179052 0)
(-0.0298188 -0.00195873 0)
(-0.029119 -0.00211999 0)
(-0.0283653 -0.00227358 0)
(-0.0275605 -0.00241878 0)
(-0.0267074 -0.00255489 0)
(-0.0258094 -0.0026812 0)
(-0.0248699 -0.00279704 0)
(-0.0238925 -0.00290172 0)
(-0.0228812 -0.00299459 0)
(-0.0218401 -0.00307502 0)
(-0.0207734 -0.0031424 0)
(-0.0196857 -0.00319615 0)
(-0.0185817 -0.00323572 0)
(-0.0174662 -0.00326061 0)
(-0.0163442 -0.00327035 0)
(-0.0152209 -0.00326452 0)
(-0.0141014 -0.00324277 0)
(-0.0129912 -0.0032048 0)
(-0.0118956 -0.00315037 0)
(-0.0108201 -0.00307933 0)
(-0.00977012 -0.00299164 0)
(-0.00875114 -0.00288732 0)
(-0.00776851 -0.00276655 0)
(-0.00682747 -0.00262963 0)
(-0.0059331 -0.00247702 0)
(-0.00509027 -0.00230938 0)
(-0.00430353 -0.00212761 0)
(-0.00357707 -0.0019329 0)
(-0.0029146 -0.00172676 0)
(-0.00231922 -0.00151116 0)
(-0.00179336 -0.00128861 0)
(-0.00133854 -0.0010623 0)
(-0.000955257 -0.000836306 0)
(-0.000642772 -0.000615791 0)
(-0.000398885 -0.000407335 0)
(-0.000219702 -0.00021929 0)
(-9.9386e-05 -6.22367e-05 0)
(-2.98287e-05 5.05811e-05 0)
(-2.02962e-07 0.000102644 0)
(3.08074e-06 7.1823e-05 0)
(-9.47084e-07 -6.10938e-05 0)
(-2.38636e-05 -5.22937e-05 0)
(-9.34283e-05 5.29923e-05 0)
(-0.000218316 0.000229235 0)
(-0.000406806 0.000456734 0)
(-0.000665715 0.000719523 0)
(-0.00099971 0.00100476 0)
(-0.00141161 0.00130227 0)
(-0.00190269 0.00160398 0)
(-0.00247282 0.00190352 0)
(-0.0031207 0.00219589 0)
(-0.00384402 0.0024772 0)
(-0.00463966 0.00274441 0)
(-0.00550378 0.00299519 0)
(-0.00643198 0.00322779 0)
(-0.00741945 0.00344089 0)
(-0.00846098 0.00363357 0)
(-0.00955114 0.00380518 0)
(-0.0106843 0.00395532 0)
(-0.0118546 0.00408381 0)
(-0.0130564 0.00419062 0)
(-0.0142836 0.00427586 0)
(-0.0155305 0.00433975 0)
(-0.0167912 0.00438261 0)
(-0.01806 0.00440485 0)
(-0.0193311 0.00440691 0)
(-0.0205991 0.00438934 0)
(-0.0218585 0.00435268 0)
(-0.023104 0.00429754 0)
(-0.0243306 0.00422457 0)
(-0.0255332 0.00413443 0)
(-0.0267071 0.0040278 0)
(-0.0278478 0.0039054 0)
(-0.0289509 0.00376794 0)
(-0.0300121 0.00361616 0)
(-0.0310276 0.00345083 0)
(-0.0319935 0.00327269 0)
(-0.0329063 0.00308253 0)
(-0.0337627 0.00288113 0)
(-0.0345596 0.00266928 0)
(-0.0352941 0.00244779 0)
(-0.0359636 0.00221746 0)
(-0.0365656 0.00197913 0)
(-0.0370981 0.00173363 0)
(-0.0375591 0.00148179 0)
(-0.0379469 0.00122447 0)
(-0.03826 0.000962533 0)
(-0.0384974 0.00069685 0)
(-0.038658 0.000428306 0)
(-0.0387412 0.000157797 0)
(-0.0387466 -0.000113767 0)
(-0.038674 -0.000385469 0)
(-0.0385235 -0.00065638 0)
(-0.0382956 -0.000925559 0)
(-0.0379908 -0.00119206 0)
(-0.0376101 -0.00145491 0)
(-0.0371547 -0.00171316 0)
(-0.0366261 -0.00196583 0)
(-0.036026 -0.00221193 0)
(-0.0353564 -0.0024505 0)
(-0.0346196 -0.00268054 0)
(-0.0338182 -0.00290107 0)
(-0.0329552 -0.00311111 0)
(-0.0320335 -0.0033097 0)
(-0.0310567 -0.00349587 0)
(-0.0300283 -0.00366866 0)
(-0.0289523 -0.00382716 0)
(-0.0278329 -0.00397045 0)
(-0.0266745 -0.00409764 0)
(-0.0254818 -0.00420789 0)
(-0.0242596 -0.00430037 0)
(-0.0230131 -0.0043743 0)
(-0.0217476 -0.00442897 0)
(-0.0204685 -0.00446369 0)
(-0.0191816 -0.00447785 0)
(-0.0178925 -0.0044709 0)
(-0.0166073 -0.00444238 0)
(-0.0153319 -0.0043919 0)
(-0.0140724 -0.00431918 0)
(-0.012835 -0.00422406 0)
(-0.0116258 -0.00410649 0)
(-0.0104508 -0.00396656 0)
(-0.00931602 -0.00380455 0)
(-0.00822734 -0.00362091 0)
(-0.0071904 -0.00341632 0)
(-0.00621058 -0.00319174 0)
(-0.00529294 -0.00294841 0)
(-0.00444208 -0.00268798 0)
(-0.0036621 -0.00241253 0)
(-0.00295647 -0.00212471 0)
(-0.00232786 -0.00182784 0)
(-0.00177807 -0.00152611 0)
(-0.00130782 -0.00122473 0)
(-0.000916598 -0.000930215 0)
(-0.000602478 -0.000650701 0)
(-0.000361944 -0.000396314 0)
(-0.000189647 -0.000179644 0)
(-7.81245e-05 -1.61988e-05 0)
(-1.82417e-05 7.49551e-05 0)
(-2.63547e-09 6.86452e-05 0)
(-4.2225e-06 -4.51813e-05 0)
(-4.3606e-05 8.48262e-06 0)
(-0.000146814 0.000169785 0)
(-0.000318315 0.000411146 0)
(-0.000564153 0.000710853 0)
(-0.000890106 0.00105102 0)
(-0.00130001 0.00141704 0)
(-0.00179603 0.00179714 0)
(-0.00237891 0.0021818 0)
(-0.0030481 0.00256342 0)
(-0.00380192 0.00293591 0)
(-0.00463773 0.00329445 0)
(-0.00555202 0.00363523 0)
(-0.0065406 0.00395528 0)
(-0.00759867 0.00425234 0)
(-0.00872098 0.00452467 0)
(-0.0099019 0.00477101 0)
(-0.0111355 0.00499048 0)
(-0.0124156 0.00518252 0)
(-0.013736 0.00534681 0)
(-0.0150901 0.00548327 0)
(-0.0164717 0.00559199 0)
(-0.0178743 0.00567322 0)
(-0.0192914 0.00572732 0)
(-0.0207168 0.00575478 0)
(-0.0221441 0.00575615 0)
(-0.0235672 0.00573209 0)
(-0.0249802 0.00568331 0)
(-0.0263772 0.00561057 0)
(-0.0277525 0.00551467 0)
(-0.0291007 0.00539647 0)
(-0.0304165 0.00525684 0)
(-0.0316948 0.0050967 0)
(-0.0329306 0.00491697 0)
(-0.0341195 0.00471862 0)
(-0.0352568 0.00450261 0)
(-0.0363386 0.00426993 0)
(-0.0373608 0.0040216 0)
(-0.0383197 0.00375862 0)
(-0.0392119 0.00348204 0)
(-0.0400341 0.0031929 0)
(-0.0407835 0.00289226 0)
(-0.0414574 0.00258119 0)
(-0.0420533 0.00226079 0)
(-0.0425691 0.00193214 0)
(-0.043003 0.00159636 0)
(-0.0433533 0.00125458 0)
(-0.0436188 0.000907931 0)
(-0.0437983 0.000557578 0)
(-0.0438912 0.000204688 0)
(-0.0438971 -0.000149557 0)
(-0.0438156 -0.000503958 0)
(-0.043647 -0.000857303 0)
(-0.0433917 -0.00120837 0)
(-0.0430504 -0.00155591 0)
(-0.0426242 -0.00189869 0)
(-0.0421144 -0.00223545 0)
(-0.0415226 -0.00256492 0)
(-0.0408508 -0.00288582 0)
(-0.0401013 -0.00319688 0)
(-0.0392766 -0.00349683 0)
(-0.0383796 -0.0037844 0)
(-0.0374135 -0.0040583 0)
(-0.0363817 -0.00431729 0)
(-0.0352881 -0.00456012 0)
(-0.0341367 -0.00478557 0)
(-0.0329319 -0.00499243 0)
(-0.0316784 -0.00517952 0)
(-0.030381 -0.00534572 0)
(-0.0290448 -0.00548992 0)
(-0.0276755 -0.00561108 0)
(-0.0262785 -0.0057082 0)
(-0.0248597 -0.00578035 0)
(-0.0234253 -0.00582667 0)
(-0.0219815 -0.0058464 0)
(-0.0205347 -0.00583884 0)
(-0.0190913 -0.00580341 0)
(-0.0176581 -0.00573967 0)
(-0.0162417 -0.00564726 0)
(-0.0148489 -0.00552601 0)
(-0.0134863 -0.0053759 0)
(-0.0121607 -0.00519711 0)
(-0.0108786 -0.00499002 0)
(-0.00964635 -0.00475527 0)
(-0.00847015 -0.0044938 0)
(-0.00735587 -0.00420687 0)
(-0.00630902 -0.00389615 0)
(-0.00533463 -0.00356375 0)
(-0.00443718 -0.00321239 0)
(-0.00362048 -0.00284542 0)
(-0.00288755 -0.00246702 0)
(-0.00224051 -0.00208236 0)
(-0.00168042 -0.00169779 0)
(-0.00120713 -0.00132113 0)
(-0.000819189 -0.000961991 0)
(-0.000513668 -0.000632112 0)
(-0.000285955 -0.000345869 0)
(-0.00012951 -0.000120692 0)
(-3.72443e-05 2.23116e-05 0)
(-3.16609e-06 5.58134e-05 0)
(-7.45231e-06 -1.90304e-05 0)
(-6.35908e-05 9.62724e-05 0)
(-0.000201473 0.000327617 0)
(-0.000421186 0.0006461 0)
(-0.000726395 0.0010285 0)
(-0.00112166 0.0014554 0)
(-0.0016098 0.00191069 0)
(-0.00219212 0.00238117 0)
(-0.00286871 0.00285605 0)
(-0.00363847 0.00332655 0)
(-0.00449925 0.00378555 0)
(-0.00544797 0.00422733 0)
(-0.00648071 0.0046473 0)
(-0.00759289 0.00504187 0)
(-0.0087793 0.00540821 0)
(-0.0100343 0.00574416 0)
(-0.0113517 0.00604811 0)
(-0.0127253 0.00631892 0)
(-0.0141483 0.00655583 0)
(-0.0156141 0.00675839 0)
(-0.0171157 0.00692644 0)
(-0.0186461 0.00706005 0)
(-0.0201985 0.00715946 0)
(-0.0217658 0.0072251 0)
(-0.0233413 0.00725752 0)
(-0.0249181 0.0072574 0)
(-0.0264895 0.0072255 0)
(-0.0280491 0.0071627 0)
(-0.0295905 0.00706991 0)
(-0.0311075 0.00694814 0)
(-0.0325942 0.00679842 0)
(-0.0340448 0.00662184 0)
(-0.0354537 0.00641954 0)
(-0.0368157 0.00619266 0)
(-0.0381256 0.00594241 0)
(-0.0393786 0.00566999 0)
(-0.0405702 0.00537664 0)
(-0.041696 0.00506363 0)
(-0.0427519 0.00473222 0)
(-0.0437343 0.00438373 0)
(-0.0446397 0.00401946 0)
(-0.0454647 0.00364074 0)
(-0.0462065 0.00324893 0)
(-0.0468624 0.00284539 0)
(-0.0474302 0.00243151 0)
(-0.0479077 0.00200868 0)
(-0.0482932 0.00157832 0)
(-0.0485853 0.00114187 0)
(-0.0487828 0.000700778 0)
(-0.0488849 0.000256521 0)
(-0.0488912 -0.000189413 0)
(-0.0488015 -0.000635519 0)
(-0.0486158 -0.00108027 0)
(-0.0483348 -0.00152214 0)
(-0.0479591 -0.00195955 0)
(-0.04749 -0.00239096 0)
(-0.0469288 -0.00281477 0)
(-0.0462775 -0.0032294 0)
(-0.045538 -0.00363326 0)
(-0.044713 -0.00402474 0)
(-0.0438052 -0.00440226 0)
(-0.0428178 -0.0047642 0)
(-0.0417542 -0.005109 0)
(-0.0406183 -0.00543508 0)
(-0.0394142 -0.00574087 0)
(-0.0381463 -0.00602486 0)
(-0.0368194 -0.00628555 0)
(-0.0354386 -0.00652146 0)
(-0.0340092 -0.0067312 0)
(-0.0325368 -0.0069134 0)
(-0.0310274 -0.00706676 0)
(-0.0294872 -0.00719006 0)
(-0.0279224 -0.00728214 0)
(-0.0263398 -0.00734195 0)
(-0.0247461 -0.00736856 0)
(-0.0231482 -0.00736113 0)
(-0.0215532 -0.00731897 0)
(-0.0199683 -0.00724153 0)
(-0.0184009 -0.00712843 0)
(-0.016858 -0.00697947 0)
(-0.0153471 -0.00679469 0)
(-0.0138753 -0.00657435 0)
(-0.0124497 -0.00631896 0)
(-0.0110772 -0.00602939 0)
(-0.00976434 -0.00570683 0)
(-0.00851759 -0.0053529 0)
(-0.00734284 -0.00496969 0)
(-0.00624555 -0.00455985 0)
(-0.00523059 -0.00412671 0)
(-0.00430217 -0.00367436 0)
(-0.0034637 -0.00320783 0)
(-0.00271769 -0.00273326 0)
(-0.00206564 -0.00225811 0)
(-0.00150792 -0.00179144 0)
(-0.00104367 -0.00134417 0)
(-0.00067074 -0.000929527 0)
(-0.000385439 -0.0005634 0)
(-0.000182336 -0.000264801 0)
(-5.65752e-05 -5.639e-05 0)
(-6.30536e-06 3.30803e-05 0)
(-1.05988e-05 1.7347e-05 0)
(-8.34681e-05 0.000211422 0)
(-0.000256344 0.000527332 0)
(-0.000525007 0.000935389 0)
(-0.000890668 0.0014113 0)
(-0.00135656 0.00193444 0)
(-0.00192435 0.0024875 0)
(-0.0025944 0.00305604 0)
(-0.00336597 0.00362815 0)
(-0.00423732 0.00419397 0)
(-0.00520573 0.00474542 0)
(-0.00626761 0.00527592 0)
(-0.00741859 0.00578016 0)
(-0.00865364 0.00625389 0)
(-0.00996713 0.00669374 0)
(-0.011353 0.00709711 0)
(-0.0128046 0.00746205 0)
(-0.0143153 0.00778712 0)
(-0.015878 0.00807136 0)
(-0.0174854 0.00831418 0)
(-0.0191301 0.00851533 0)
(-0.0208048 0.00867483 0)
(-0.022502 0.00879294 0)
(-0.0242143 0.00887012 0)
(-0.0259344 0.00890701 0)
(-0.0276548 0.00890438 0)
(-0.0293687 0.00886315 0)
(-0.0310689 0.00878433 0)
(-0.0327486 0.00866902 0)
(-0.0344011 0.00851841 0)
(-0.0360202 0.00833375 0)
(-0.0375995 0.00811635 0)
(-0.0391331 0.00786758 0)
(-0.0406152 0.00758882 0)
(-0.0420404 0.00728154 0)
(-0.0434036 0.0069472 0)
(-0.0446996 0.0065873 0)
(-0.045924 0.00620339 0)
(-0.0470723 0.00579702 0)
(-0.0481405 0.00536977 0)
(-0.0491247 0.00492326 0)
(-0.0500216 0.0044591 0)
(-0.050828 0.00397895 0)
(-0.051541 0.00348448 0)
(-0.0521581 0.00297738 0)
(-0.052677 0.00245936 0)
(-0.053096 0.00193216 0)
(-0.0534134 0.00139753 0)
(-0.0536281 0.000857258 0)
(-0.0537391 0.000313136 0)
(-0.053746 -0.000233011 0)
(-0.0536485 -0.000779342 0)
(-0.0534469 -0.001324 0)
(-0.0531416 -0.00186509 0)
(-0.0527334 -0.00240073 0)
(-0.0522237 -0.002929 0)
(-0.051614 -0.00344797 0)
(-0.0509063 -0.0039557 0)
(-0.0501028 -0.00445026 0)
(-0.0492063 -0.00492969 0)
(-0.0482197 -0.00539205 0)
(-0.0471465 -0.0058354 0)
(-0.0459905 -0.0062578 0)
(-0.0447557 -0.00665735 0)
(-0.0434465 -0.00703216 0)
(-0.0420678 -0.00738036 0)
(-0.0406247 -0.00770016 0)
(-0.0391227 -0.00798977 0)
(-0.0375674 -0.00824748 0)
(-0.0359651 -0.00847166 0)
(-0.0343219 -0.00866073 0)
(-0.0326446 -0.00881322 0)
(-0.03094 -0.00892775 0)
(-0.0292152 -0.00900308 0)
(-0.0274775 -0.00903806 0)
(-0.0257343 -0.00903172 0)
(-0.0239931 -0.00898325 0)
(-0.0222619 -0.00889201 0)
(-0.0205482 -0.00875758 0)
(-0.0188598 -0.00857977 0)
(-0.0172046 -0.00835864 0)
(-0.0155902 -0.00809456 0)
(-0.0140243 -0.00778821 0)
(-0.012514 -0.00744066 0)
(-0.0110667 -0.00705339 0)
(-0.00968901 -0.00662839 0)
(-0.00838738 -0.00616821 0)
(-0.00716766 -0.00567602 0)
(-0.00603517 -0.00515578 0)
(-0.00499454 -0.00461233 0)
(-0.00404962 -0.00405151 0)
(-0.00320341 -0.00348042 0)
(-0.00245794 -0.00290755 0)
(-0.00181419 -0.00234309 0)
(-0.00127204 -0.00179919 0)
(-0.000830236 -0.00129031 0)
(-0.00048613 -0.00083366 0)
(-0.00023552 -0.000449486 0)
(-7.58463e-05 -0.000161583 0)
(-9.36665e-06 4.4411e-07 0)
(-1.36414e-05 6.37818e-05 0)
(-0.000103025 0.00035388 0)
(-0.000310769 0.000769148 0)
(-0.000628498 0.00127953 0)
(-0.00105499 0.00186002 0)
(-0.0015921 0.00248912 0)
(-0.00224029 0.00314851 0)
(-0.00299883 0.00382278 0)
(-0.00386611 0.00449898 0)
(-0.00483964 0.00516632 0)
(-0.00591605 0.00581585 0)
(-0.00709118 0.0064402 0)
(-0.00836014 0.00703335 0)
(-0.00971741 0.00759043 0)
(-0.0111569 0.00810755 0)
(-0.0126721 0.00858168 0)
(-0.0142561 0.0090105 0)
(-0.0159016 0.0093923 0)
(-0.0176011 0.00972589 0)
(-0.019347 0.0100105 0)
(-0.0211314 0.0102459 0)
(-0.0229464 0.010432 0)
(-0.0247843 0.010569 0)
(-0.0266371 0.0106574 0)
(-0.028497 0.0106981 0)
(-0.0303563 0.0106917 0)
(-0.0322075 0.0106395 0)
(-0.0340431 0.0105426 0)
(-0.0358558 0.0104022 0)
(-0.0376386 0.0102198 0)
(-0.0393847 0.00999678 0)
(-0.0410874 0.00973474 0)
(-0.0427405 0.00943528 0)
(-0.0443377 0.00910005 0)
(-0.0458733 0.00873076 0)
(-0.0473417 0.00832918 0)
(-0.0487376 0.00789708 0)
(-0.0500561 0.00743631 0)
(-0.0512926 0.00694871 0)
(-0.0524427 0.00643618 0)
(-0.0535023 0.00590063 0)
(-0.0544678 0.00534401 0)
(-0.0553357 0.00476828 0)
(-0.0561031 0.00417546 0)
(-0.0567673 0.00356755 0)
(-0.0573259 0.00294661 0)
(-0.0577769 0.00231472 0)
(-0.0581186 0.00167397 0)
(-0.0583498 0.0010265 0)
(-0.0584694 0.000374445 0)
(-0.058477 -0.000280004 0)
(-0.0583724 -0.000934649 0)
(-0.0581557 -0.00158726 0)
(-0.0578275 -0.0022356 0)
(-0.0573886 -0.0028774 0)
(-0.0568405 -0.00351037 0)
(-0.0561848 -0.00413221 0)
(-0.0554235 -0.00474061 0)
(-0.0545592 -0.00533326 0)
(-0.0535948 -0.00590782 0)
(-0.0525333 -0.00646199 0)
(-0.0513785 -0.00699345 0)
(-0.0501344 -0.0074999 0)
(-0.0488053 -0.00797908 0)
(-0.0473959 -0.00842873 0)
(-0.0459114 -0.00884665 0)
(-0.0443573 -0.0092307 0)
(-0.0427393 -0.00957876 0)
(-0.0410636 -0.00988881 0)
(-0.0393366 -0.0101589 0)
(-0.0375651 -0.0103872 0)
(-0.0357561 -0.010572 0)
(-0.0339169 -0.0107116 0)
(-0.0320551 -0.0108045 0)