/*--------------------------------*- C++ -*----------------------------------*\
  =========                 |
  \\      /  F ield         | OpenFOAM: The Open Source CFD Toolbox
   \\    /   O peration     | Website:  https://openfoam.org
    \\  /    A nd           | Version:  11
     \\/     M anipulation  |
\*---------------------------------------------------------------------------*/
FoamFile
{
    format      ascii;
    class       volScalarField;
    location    "8.2";
    object      p;
}
// * * * * * * * * * * * * * * * * * * * * * * * * * * * * * * * * * * * * * //

dimensions      [0 2 -2 0 0 0 0];

internalField   nonuniform List<scalar> 
10100
(
-1.07338e-07
0.000155034
2.48943e-05
-0.000472145
-0.00129655
-0.00238353
-0.0036736
-0.00511137
-0.00664721
-0.00823744
-0.0098438
-0.0114332
-0.0129769
-0.0144503
-0.0158318
-0.0171027
-0.018247
-0.0192511
-0.0201036
-0.0207952
-0.0213181
-0.0216664
-0.0218355
-0.0218218
-0.0216233
-0.021239
-0.0206691
-0.0199147
-0.0189774
-0.0178598
-0.0165655
-0.0150987
-0.013464
-0.0116669
-0.00971351
-0.00761027
-0.00536425
-0.00298306
-0.000474562
0.00215321
0.00489174
0.00773198
0.0106646
0.01368
0.0167688
0.0199207
0.0231251
0.0263714
0.0296488
0.0329469
0.036255
0.0395616
0.0428554
0.0461252
0.0493598
0.0525482
0.0556794
0.0587422
0.0617258
0.0646196
0.0674136
0.0700981
0.0726633
0.0750993
0.0773967
0.0795465
0.0815405
0.0833715
0.0850327
0.0865181
0.0878221
0.0889398
0.0898671
0.090601
0.0911396
0.0914821
0.0916291
0.0915824
0.0913447
0.0909205
0.0903152
0.0895363
0.0885929
0.0874962
0.0862593
0.0848976
0.0834289
0.0818733
0.0802539
0.0785968
0.0769316
0.075292
0.0737159
0.0722462
0.0709305
0.0698203
0.0689686
0.068426
0.0682344
0.0683418
-3.10565e-05
0.000116443
-2.77098e-05
-0.000479064
-0.00119187
-0.00212443
-0.00323364
-0.004476
-0.00581073
-0.0072002
-0.00861063
-0.0100119
-0.0113775
-0.012684
-0.0139111
-0.0150409
-0.0160581
-0.0169493
-0.0177033
-0.0183104
-0.0187631
-0.019055
-0.0191813
-0.0191384
-0.0189237
-0.018536
-0.0179753
-0.017242
-0.0163372
-0.0152635
-0.0140239
-0.012622
-0.011062
-0.00934891
-0.00748842
-0.00548655
-0.00334979
-0.00108525
0.00129962
0.00379725
0.00639964
0.00909827
0.0118843
0.0147489
0.0176828
0.0206764
0.0237196
0.0268023
0.0299146
0.0330463
0.0361871
0.0393265
0.0424534
0.0455575
0.048628
0.0516546
0.0546267
0.0575338
0.0603656
0.0631123
0.0657645
0.0683131
0.0707488
0.0730624
0.075245
0.0772881
0.0791845
0.0809273
0.0825105
0.0839284
0.0851761
0.0862491
0.0871437
0.0878574
0.0883888
0.0887376
0.0889048
0.0888923
0.0887032
0.088342
0.0878144
0.0871278
0.0862913
0.0853158
0.0842143
0.0830017
0.0816949
0.0803131
0.0788781
0.0774141
0.0759483
0.0745111
0.0731361
0.0718599
0.0707218
0.0697627
0.0690209
0.0685318
0.0683412
0.0684489
0.000274253
0.000395427
0.000227545
-0.000208029
-0.000862638
-0.00170433
-0.00269965
-0.00381312
-0.0050101
-0.00625826
-0.00752771
-0.00879127
-0.0100246
-0.0112058
-0.0123156
-0.0133375
-0.0142566
-0.0150601
-0.015737
-0.0162778
-0.016675
-0.0169225
-0.0170149
-0.0169485
-0.0167211
-0.016331
-0.0157777
-0.0150614
-0.0141832
-0.0131451
-0.0119499
-0.0106007
-0.00910147
-0.00745682
-0.00567208
-0.00375294
-0.00170549
0.000463649
0.00274743
0.00513864
0.00762968
0.0102125
0.0128787
0.0156198
0.0184269
0.021291
0.0242023
0.0271514
0.0301286
0.0331242
0.0361285
0.0391311
0.042122
0.0450908
0.0480276
0.0509222
0.0537646
0.0565447
0.059253
0.0618801
0.0644172
0.0668555
0.0691862
0.0714004
0.0734899
0.0754468
0.0772642
0.0789358
0.0804561
0.0818197
0.083022
0.0840589
0.0849272
0.0856246
0.0861502
0.0865038
0.0866868
0.0867013
0.0865504
0.0862386
0.0857716
0.0851568
0.0844032
0.0835213
0.0825238
0.0814248
0.0802406
0.0789892
0.0776908
0.0763682
0.075046
0.0737518
0.0725153
0.0713685
0.0703447
0.0694781
0.0687998
0.0683396
0.0681497
0.068258
0.000923168
0.000968472
0.000752941
0.000303963
-0.00033323
-0.00113122
-0.002062
-0.00309527
-0.00420146
-0.00535227
-0.00652129
-0.00768425
-0.00881901
-0.00990538
-0.0109254
-0.0118635
-0.0127058
-0.0134397
-0.0140551
-0.0145429
-0.0148955
-0.0151069
-0.015172
-0.015087
-0.0148494
-0.0144575
-0.0139108
-0.0132092
-0.0123535
-0.0113456
-0.0101881
-0.00888369
-0.007436
-0.00584945
-0.0041291
-0.00228031
-0.000308813
0.00177912
0.0039768
0.00627733
0.00867353
0.0111577
0.0137218
0.0163576
0.0190567
0.0218104
0.0246096
0.0274449
0.0303071
0.0331868
0.0360748
0.0389614
0.0418366
0.0446908
0.0475139
0.0502965
0.0530288
0.0557014
0.0583051
0.0608313
0.0632711
0.0656163
0.0678583
0.0699887
0.0719998
0.0738842
0.0756353
0.0772473
0.0787147
0.0800327
0.0811969
0.0822034
0.0830495
0.0837331
0.0842534
0.0846107
0.0848062
0.0848421
0.0847216
0.0844492
0.0840306
0.0834727
0.0827845
0.0819761
0.0810596
0.0800484
0.0789578
0.0778048
0.0766081
0.0753886
0.074169
0.0729739
0.07183
0.0707654
0.0698092
0.0689908
0.0683378
0.0678775
0.0676599
0.0677176
0.00185921
0.00178301
0.00149118
0.00100495
0.000358545
-0.000424142
-0.00131861
-0.0022994
-0.00334117
-0.00441926
-0.00551053
-0.00659335
-0.00764778
-0.00865571
-0.00960057
-0.0104677
-0.0112442
-0.0119185
-0.0124805
-0.0129219
-0.0132357
-0.0134155
-0.0134566
-0.0133554
-0.0131094
-0.0127166
-0.0121764
-0.0114887
-0.0106543
-0.00967467
-0.00855215
-0.0072894
-0.00588971
-0.00435726
-0.00269686
-0.000913536
0.000987286
0.00299963
0.00511714
0.00733331
0.00964124
0.0120335
0.0145025
0.0170401
0.0196387
0.0222899
0.0249847
0.0277141
0.0304692
0.0332412
0.0360213
0.0388
0.041568
0.0443156
0.0470333
0.0497118
0.0523421
0.0549152
0.0574224
0.0598551
0.0622051
0.0644642
0.0666242
0.0686774
0.0706163
0.0724339
0.074124
0.075681
0.0770998
0.0783757
0.0795047
0.0804832
0.0813086
0.0819792
0.0824943
0.0828541
0.0830602
0.0831145
0.0830204
0.0827822
0.0824053
0.0818967
0.0812648
0.0805193
0.0796715
0.0787343
0.0777219
0.0766499
0.0755358
0.0743984
0.0732585
0.0721382
0.071061
0.0700517
0.0691354
0.0683379
0.0676833
0.0671965
0.0669167
0.0668687
0.00303983
0.00280556
0.00241176
0.0018662
0.00118692
0.000395157
-0.000487763
-0.00144033
-0.00244097
-0.00346855
-0.00450283
-0.00552473
-0.00651634
-0.00746138
-0.00834506
-0.00915375
-0.00987533
-0.0104992
-0.0110163
-0.0114185
-0.0116989
-0.0118519
-0.0118728
-0.0117581
-0.0115053
-0.0111125
-0.0105789
-0.00990456
-0.00909002
-0.0081367
-0.00704669
-0.00582244
-0.00446707
-0.0029846
-0.00137958
0.000343229
0.00217875
0.00412132
0.00616489
0.00830321
0.0105296
0.012837
0.015218
0.0176652
0.0201711
0.0227276
0.025326
0.0279577
0.0306141
0.0332868
0.0359675
0.0386471
0.0413163
0.0439657
0.0465863
0.0491693
0.051706
0.0541879
0.0566065
0.0589537
0.0612213
0.0634015
0.0654866
0.0674692
0.0693421
0.0710988
0.0727332
0.0742401
0.0756144
0.0768519
0.0779486
0.0789014
0.0797076
0.0803659
0.0808755
0.081237
0.0814515
0.0815213
0.0814494
0.08124
0.0808985
0.0804314
0.0798467
0.0791536
0.0783628
0.0774862
0.076537
0.0755296
0.0744799
0.0734052
0.0723241
0.0712562
0.0702225
0.0692443
0.0683436
0.0675422
0.0668618
0.0663244
0.0659531
0.0657595
0.00441739
0.00400078
0.00348454
0.0028604
0.00212805
0.00130583
0.000412558
-0.000533504
-0.00151424
-0.00251175
-0.00350831
-0.00448715
-0.00543269
-0.0063302
-0.00716622
-0.0079285
-0.00860611
-0.00918935
-0.00966969
-0.0100396
-0.0102926
-0.0104234
-0.0104279
-0.0103025
-0.0100447
-0.00965276
-0.009126
-0.00846438
-0.00766844
-0.00673944
-0.00567929
-0.00449027
-0.00317541
-0.00173864
-0.000184251
0.00148329
0.00325925
0.00513825
0.00711438
0.00918159
0.0113335
0.0135634
0.0158643
0.0182291
0.0206506
0.0231207
0.0256312
0.0281738
0.0307403
0.0333228
0.0359132
0.0385026
0.0410819
0.0436421
0.0461745
0.0486708
0.0511228
0.0535222
0.0558607
0.0581304
0.0603234
0.0624324
0.0644499
0.0663688
0.0681824
0.0698842
0.0714685
0.0729301
0.0742644
0.0754671
0.0765347
0.077464
0.0782527
0.0788994
0.0794035
0.0797654
0.0799863
0.0800684
0.0800145
0.0798287
0.079516
0.0790827
0.0785362
0.0778852
0.0771397
0.0763106
0.07541
0.0744514
0.0734491
0.0724186
0.0713766
0.0703406
0.0693288
0.0683599
0.0674527
0.0666258
0.0658984
0.0652896
0.0648044
0.0644387
0.00594564
0.00533166
0.00467784
0.00395983
0.00315772
0.0022875
0.00136584
0.000407709
-0.000571444
-0.00155634
-0.00253206
-0.00348393
-0.0043981
-0.00526166
-0.00606254
-0.00678969
-0.00743335
-0.00798477
-0.00843602
-0.00878014
-0.0090113
-0.00912469
-0.00911625
-0.00898271
-0.00872168
-0.0083316
-0.00781188
-0.0071625
-0.00638397
-0.00547739
-0.00444454
-0.0032877
-0.00200985
-0.000614777
0.00089352
0.0025109
0.00423282
0.00605406
0.00796888
0.00997141
0.0120556
0.0142152
0.0164435
0.0187336
0.0210784
0.0234701
0.0259008
0.0283626
0.0308478
0.0333488
0.0358574
0.0383651
0.040863
0.0433425
0.0457954
0.0482136
0.0505893
0.0529143
0.0551807
0.0573807
0.0595068
0.0615518
0.0635087
0.0653707
0.0671311
0.0687838
0.0703232
0.0717443
0.0730426
0.0742142
0.0752555
0.0761636
0.0769362
0.077572
0.0780704
0.0784317
0.0786571
0.0787485
0.0787088
0.0785416
0.0782517
0.077845
0.0773284
0.0767099
0.0759989
0.0752054
0.0743405
0.0734163
0.0724459
0.0714432
0.0704231
0.0694009
0.0683925
0.0674141
0.0664817
0.065611
0.0648191
0.0641225
0.0635072
0.0629531
0.00758291
0.00676326
0.00596175
0.00513804
0.00425288
0.00332033
0.00235531
0.00136991
0.000376815
-0.000610847
-0.00158034
-0.00251914
-0.00341511
-0.0042568
-0.00503362
-0.00573587
-0.00635482
-0.00688251
-0.00731173
-0.00763623
-0.00785078
-0.00795095
-0.00793292
-0.00779367
-0.00753105
-0.00714377
-0.00663137
-0.00599383
-0.00523152
-0.00434548
-0.00333754
-0.00221008
-0.000965985
0.000391258
0.0018579
0.00343
0.00510308
0.00687203
0.00873134
0.0106754
0.0126986
0.0147948
0.0169576
0.0191802
0.0214556
0.0237765
0.0261353
0.0285245
0.0309366
0.0333641
0.0357991
0.0382332
0.040658
0.0430651
0.0454466
0.0477949
0.0501023
0.0523608
0.0545627
0.0567005
0.0587668
0.0607549
0.0626578
0.0644691
0.0661823
0.0677914
0.0692909
0.070676
0.0719424
0.0730862
0.074104
0.074993
0.0757511
0.0763766
0.0768692
0.077229
0.0774571
0.0775552
0.077526
0.0773729
0.0771002
0.0767135
0.0762192
0.0756247
0.0749384
0.0741697
0.0733286
0.0724261
0.071474
0.0704847
0.0694713
0.0684472
0.0674263
0.0664226
0.0654494
0.0645198
0.0636493
0.0628522
0.0620957
0.0613441
0.00929239
0.00826386
0.00730832
0.00637023
0.00539181
0.00438539
0.00336456
0.00233905
0.0013191
0.00031565
-0.00066039
-0.00159828
-0.00248755
-0.0033182
-0.00408103
-0.00476763
-0.00537016
-0.00588147
-0.0062952
-0.0066058
-0.00680859
-0.00689943
-0.00687482
-0.00673211
-0.00646949
-0.00608595
-0.00558111
-0.00495486
-0.00420756
-0.00334035
-0.00235515
-0.00125439
-4.07841e-05
0.00128244
0.00271171
0.00424313
0.00587233
0.00759429
0.00940374
0.0112955
0.013264
0.0153034
0.0174075
0.0195695
0.0217829
0.0240404
0.0263349
0.0286592
0.0310059
0.0333679
0.0357371
0.0381057
0.0404653
0.042808
0.0451261
0.0474123
0.0496591
0.0518587
0.0540035
0.0560862
0.0580998
0.0600376
0.0618931
0.0636599
0.0653315
0.0669023
0.0683668
0.0697202
0.0709585
0.0720779
0.073075
0.0739471
0.0746919
0.075308
0.0757948
0.0761523
0.0763814
0.0764838
0.0764619
0.0763187
0.0760582
0.0756856
0.0752066
0.0746282
0.0739579
0.0732042
0.0723764
0.0714842
0.0705383
0.0695496
0.0685296
0.0674901
0.066443
0.0654004
0.0643735
0.0633729
0.0624128
0.0615059
0.060601
0.0596478
0.0110426
0.00980483
0.00869182
0.00763353
0.00655403
0.00546461
0.00437794
0.00330163
0.0022438
0.00121355
0.000220055
-0.000727506
-0.00162016
-0.0024494
-0.00320729
-0.00388647
-0.00447998
-0.00498163
-0.00538586
-0.00568778
-0.00588309
-0.00596807
-0.00593966
-0.00579564
-0.00553457
-0.00515558
-0.00465832
-0.00404275
-0.00330932
-0.00245933
-0.00149481
-0.000418062
0.000768301
0.00206122
0.0034572
0.00495237
0.00654241
0.00822255
0.00998774
0.011833
0.013753
0.015742
0.0177939
0.0199022
0.0220604
0.0242618
0.0264995
0.0287664
0.0310554
0.0333593
0.0356705
0.0379811
0.0402833
0.0425693
0.0448319
0.0470636
0.0492572
0.0514052
0.0535001
0.0555347
0.0575024
0.0593965
0.0612108
0.0629389
0.0645746
0.0661121
0.0675463
0.0688724
0.0700865
0.0711847
0.0721638
0.0730211
0.0737542
0.0743616
0.0748427
0.0751972
0.0754261
0.0755307
0.0755131
0.0753761
0.0751233
0.0747594
0.0742895
0.07372
0.0730577
0.0723104
0.0714864
0.0705944
0.069644
0.0686447
0.0676066
0.06654
0.0654553
0.0643625
0.0632712
0.0621898
0.0611317
0.0601081
0.0590506
0.057895
0.012806
0.0113609
0.0100889
0.00890636
0.00772021
0.00654079
0.00538025
0.00424435
0.00313948
0.00207309
0.0010529
8.65972e-05
-0.0008183
-0.00165461
-0.00241548
-0.00309448
-0.00368568
-0.00418377
-0.00458392
-0.00488171
-0.00507334
-0.0051556
-0.00512596
-0.00498262
-0.0047244
-0.00435057
-0.00386082
-0.00325528
-0.00253462
-0.00170029
-0.000754338
0.000301043
0.00146337
0.00272957
0.00409617
0.00555936
0.00711493
0.0087583
0.0104846
0.0122891
0.0141666
0.0161114
0.0181175
0.0201786
0.0222885
0.0244409
0.0266289
0.0288457
0.0310842
0.0333375
0.035598
0.0378583
0.0401106
0.0423475
0.0445619
0.0467465
0.0488943
0.0509977
0.0530496
0.0550431
0.0569714
0.0588282
0.0606073
0.0623025
0.0639076
0.065417
0.0668255
0.0681285
0.069322
0.0704024
0.0713662
0.0722108
0.0729338
0.0735335
0.0740091
0.0743603
0.0745878
0.0746928
0.0746769
0.0745429
0.0742937
0.0739336
0.0734673
0.0729003
0.0722391
0.0714905
0.0706618
0.0697612
0.0687967
0.0677771
0.066711
0.0656074
0.0644751
0.0633229
0.0621584
0.0609886
0.059826
0.0586811
0.057469
0.0561123
0.0145589
0.0129098
0.0114786
0.0101693
0.00887256
0.00759785
0.00635703
0.00515444
0.00399499
0.0028847
0.00182994
0.000837016
-8.78393e-05
-0.000938546
-0.00170925
-0.00239453
-0.00298943
-0.00348936
-0.0038901
-0.0041878
-0.00437917
-0.00446159
-0.00443301
-0.00429205
-0.00403774
-0.00366946
-0.00318706
-0.0025909
-0.00188192
-0.00106164
-0.000132067
0.000904627
0.00204597
0.0032889
0.00462996
0.00606538
0.00759108
0.00920263
0.0108954
0.0126647
0.0145053
0.0164119
0.0183784
0.0203988
0.0224672
0.0245773
0.0267226
0.0288963
0.0310915
0.0333013
0.0355185
0.0377357
0.0399455
0.0421406
0.0443141
0.0464589
0.0485678
0.0506337
0.0526495
0.0546083
0.0565037
0.0583295
0.0600794
0.0617472
0.063327
0.0648132
0.0662006
0.0674847
0.0686614
0.0697272
0.0706785
0.0715126
0.0722271
0.0728202
0.0732908
0.0736385
0.0738638
0.0739676
0.0739515
0.0738174
0.0735684
0.0732079
0.0727401
0.0721702
0.0715037
0.0707468
0.0699063
0.0689891
0.0680025
0.066954
0.0658514
0.0647023
0.0635144
0.062295
0.0610503
0.0597859
0.0585141
0.0572449
0.0558777
0.0543225
0.0162809
0.0144316
0.0128424
0.0114049
0.00999457
0.00862057
0.00729455
0.00601963
0.00479945
0.0036388
0.00254274
0.00151643
0.000565034
-0.000306368
-0.00109293
-0.00179019
-0.00239401
-0.00290043
-0.00330584
-0.00360695
-0.00380109
-0.00388622
-0.00386075
-0.00372358
-0.00347394
-0.00311142
-0.00263614
-0.0020487
-0.0013502
-0.000542242
0.000373142
0.00139377
0.00251715
0.00374023
0.00505953
0.00647131
0.00797164
0.00955624
0.0112206
0.01296
0.0147695
0.0166436
0.0185766
0.0205627
0.0225961
0.0246706
0.02678
0.0289175
0.0310763
0.0332497
0.0354306
0.037612
0.0397864
0.041947
0.0440866
0.0461985
0.0482756
0.0503108
0.0522971
0.0542279
0.0560967
0.0578975
0.0596239
0.06127
0.0628298
0.0642976
0.0656685
0.0669378
0.0681015
0.0691558
0.0700975
0.0709235
0.0716313
0.0722189
0.0726852
0.0730295
0.0732521
0.0733536
0.0733353
0.0731989
0.0729468
0.0725822
0.0721087
0.0715309
0.0708537
0.0700827
0.0692238
0.0682832
0.0672674
0.0661829
0.0650365
0.0638348
0.0625843
0.0612913
0.0599608
0.0585972
0.0572126
0.0558172
0.0542953
0.0525451
0.0179536
0.0159085
0.014163
0.012597
0.0110712
0.00959491
0.00817988
0.00682812
0.0055422
0.00432575
0.00318276
0.00211739
0.00113389
0.000236362
-0.000571305
-0.00128547
-0.00190266
-0.00241956
-0.00283312
-0.00314072
-0.00334031
-0.00343037
-0.00340968
-0.00327738
-0.00303295
-0.00267627
-0.00220774
-0.00162819
-0.000938904
-0.000141536
0.000761888
0.00176911
0.00287755
0.00408412
0.00538537
0.00677765
0.00825706
0.00981945
0.0114604
0.0131753
0.0149591
0.0168066
0.0187121
0.02067
0.0226748
0.0247203
0.0268003
0.0289083
0.0310376
0.0331814
0.0353331
0.0374856
0.0396317
0.0417647
0.0438775
0.0459634
0.0480154
0.0500265
0.05199
0.0538992
0.0557477
0.0575294
0.0592382
0.0608681
0.062413
0.0638674
0.0652262
0.0664848
0.0676392
0.0686856
0.0696206
0.0704409
0.0711438
0.0717274
0.0721902
0.0725314
0.072751
0.0728495
0.0728276
0.0726868
0.0724292
0.0720573
0.0715744
0.0709844
0.0702918
0.0695015
0.0686187
0.0676489
0.0665978
0.0654711
0.0642747
0.0630143
0.0616956
0.0603237
0.0589029
0.0574364
0.0559367
0.054414
0.0527386
0.050797
0.0195616
0.0173249
0.0154251
0.0137306
0.0120883
0.0105077
0.00900085
0.00756872
0.00621291
0.00493613
0.00374152
0.00263239
0.00161207
0.000683744
-0.000149516
-0.00088473
-0.00151904
-0.00204976
-0.0024745
-0.00279129
-0.00299862
-0.00309542
-0.00308082
-0.00295419
-0.00271528
-0.00236431
-0.00190204
-0.00132949
-0.000648021
0.000140649
0.00103438
0.00203081
0.00312732
0.00432076
0.0056077
0.00698449
0.00844735
0.00999222
0.0116147
0.0133103
0.0150739
0.0169003
0.0187843
0.0207202
0.0227025
0.0247254
0.0267826
0.0288677
0.0309741
0.0330953
0.0352245
0.037355
0.0394797
0.0415919
0.0436847
0.0457514
0.047785
0.0497788
0.0517259
0.0536198
0.0554541
0.0572228
0.0589197
0.0605387
0.062074
0.0635198
0.0648711
0.0661233
0.0672723
0.0683141
0.0692453
0.0700624
0.0707627
0.0713438
0.0718042
0.072143
0.0723597
0.0724546
0.0724281
0.0722814
0.0720161
0.0716342
0.0711388
0.0705331
0.069821
0.069007
0.0680956
0.0670916
0.066
0.0648259
0.0635743
0.0622502
0.0608584
0.0594034
0.0578885
0.0563165
0.0547
0.0530497
0.051222
0.0490928
0.021091
0.0186666
0.0166145
0.0147922
0.0130329
0.0113467
0.00974581
0.00823046
0.0068014
0.00546069
0.00421068
0.00305386
0.00199268
0.00102961
0.000167062
-0.000592595
-0.00124716
-0.00179458
-0.00223307
-0.00256129
-0.00277828
-0.00288329
-0.00287568
-0.00275516
-0.0025219
-0.00217645
-0.00171978
-0.0011531
-0.000477899
0.000303978
0.00119033
0.0021787
0.00326631
0.00444997
0.00572625
0.0070916
0.00854229
0.0100743
0.0116832
0.0133645
0.0151132
0.0169243
0.0187925
0.0207124
0.0226785
0.024685
0.0267258
0.0287945
0.0308846
0.0329897
0.0351033
0.0372185
0.0393287
0.0414269
0.0435064
0.0455606
0.0475825
0.0495654
0.0515026
0.0533874
0.0552137
0.0569753
0.0586659
0.0602797
0.0618104
0.0632526
0.064601
0.065851
0.0669985
0.0680393
0.0689698
0.0697864
0.0704862
0.0710668
0.0715262
0.0718634
0.0720776
0.0721688
0.0721371
0.0719833
0.0717086
0.0713147
0.0708041
0.0701797
0.0694449
0.0686034
0.0676594
0.0666169
0.0654805
0.0642545
0.0629433
0.0615512
0.0600824
0.0585408
0.0569291
0.0552494
0.053515
0.0517369
0.0497586
0.0474451
0.0225293
0.019921
0.0177187
0.0157693
0.0138931
0.0121002
0.0104036
0.00880278
0.00729791
0.00589041
0.00458187
0.00337403
0.00226871
0.00126774
0.000372916
-0.000414024
-0.00109142
-0.00165789
-0.00211236
-0.00245395
-0.00268204
-0.00279618
-0.00279615
-0.00268203
-0.00245435
-0.00211396
-0.00166206
-0.00109999
-0.000429399
0.000347769
0.00122917
0.00221219
0.00329391
0.00447115
0.00574051
0.00709847
0.00854131
0.010065
0.0116652
0.0133373
0.0150765
0.0168778
0.018736
0.0206457
0.0226016
0.024598
0.0266286
0.0286873
0.0307677
0.0328634
0.0349679
0.0370747
0.0391769
0.0412678
0.0433407
0.0453889
0.0474057
0.0493842
0.0513178
0.0531999
0.0550243
0.0567846
0.0584748
0.0600886
0.0616201
0.0630636
0.0644138
0.0656661
0.066816
0.0678594
0.0687925
0.0696115
0.0703134
0.0708954
0.0713555
0.0716922
0.0719046
0.0719923
0.0719552
0.0717935
0.0715082
0.0711007
0.070573
0.0699274
0.0691671
0.0682951
0.067315
0.0662306
0.0650457
0.063764
0.0623895
0.0609259
0.0593769
0.0577459
0.056035
0.054246
0.0523929
0.0504871
0.0483596
0.045865
0.0238652
0.0210764
0.0187259
0.0166504
0.0146572
0.0127572
0.0109636
0.00927573
0.00769307
0.00621641
0.00484676
0.00358527
0.00243316
0.00139172
0.000462222
-0.000354195
-0.0010566
-0.0016442
-0.0021164
-0.00247273
-0.0027129
-0.00283684
-0.0028447
-0.00273699
-0.00251459
-0.00217863
-0.00173044
-0.00117154
-0.000503696
0.000270941
0.00114985
0.00213026
0.00320919
0.00438343
0.00564963
0.00700425
0.00844357
0.00996356
0.0115598
0.0132279
0.0149628
0.0167597
0.0186136
0.020519
0.0224708
0.024463
0.0264898
0.0285448
0.0306219
0.0327147
0.0348167
0.0369216
0.0390225
0.0411127
0.0431856
0.0452345
0.0472527
0.0492333
0.0511696
0.0530552
0.0548837
0.0566487
0.0583441
0.0599637
0.0615012
0.062951
0.0643078
0.0655667
0.0667233
0.0677731
0.0687122
0.0695367
0.0702432
0.070829
0.0712916
0.0716294
0.071841
0.0719258
0.0718833
0.0717135
0.071417
0.0709947
0.0704482
0.0697797
0.0689916
0.0680866
0.0670678
0.0659384
0.0647019
0.0633615
0.0619206
0.0603826
0.0587506
0.0570279
0.055216
0.0533165
0.051344
0.0493108
0.0470353
0.0443623
0.0250885
0.0221222
0.0196253
0.0174245
0.0153146
0.013307
0.0114158
0.00963964
0.00797758
0.00642991
0.00499713
0.00367988
0.00247898
0.00139515
0.000429038
-0.000418801
-0.00114799
-0.00175829
-0.00224949
-0.00262148
-0.00287433
-0.00300837
-0.0030242
-0.00292272
-0.00270509
-0.00237263
-0.00192686
-0.00136943
-0.000702374
7.19758e-05
0.000950923
0.00193157
0.00301086
0.00418559
0.00545242
0.0068078
0.00824796
0.0097688
0.011366
0.0130349
0.0147708
0.0165689
0.018424
0.020331
0.0222844
0.0242787
0.0263077
0.0283654
0.0304455
0.0325418
0.034648
0.0367575
0.0388636
0.0409598
0.0430393
0.0450954
0.0471214
0.0491104
0.0510559
0.0529512
0.0547899
0.0565656
0.058272
0.0599028
0.0614517
0.0629131
0.0642813
0.0655515
0.0667189
0.0677791
0.0687279
0.0695611
0.0702753
0.0708674
0.0713347
0.0716753
0.0718875
0.0719703
0.071923
0.0717451
0.071437
0.0709993
0.0704332
0.0697402
0.0689226
0.0679826
0.0669229
0.0657462
0.0644556
0.0630539
0.0615441
0.0599293
0.0582122
0.0563958
0.0544813
0.0524701
0.0503778
0.0482172
0.0457948
0.0429455
0.0261895
0.0230482
0.0204067
0.0180814
0.0158551
0.0137399
0.0117504
0.00988509
0.00814237
0.00652219
0.0050248
0.00365036
0.00239912
0.0012713
0.000267019
-0.000613751
-0.00137111
-0.00200522
-0.00251622
-0.00290436
-0.00317014
-0.00331435
-0.00333801
-0.00324231
-0.00302862
-0.00269847
-0.00225357
-0.00169581
-0.00102745
-0.000251035
0.000630573
0.00161437
0.00269728
0.00387609
0.00514744
0.00650771
0.00795304
0.0094793
0.0110821
0.012757
0.0144991
0.0163037
0.0181657
0.02008
0.0220411
0.0240433
0.0260807
0.0281473
0.0302368
0.032343
0.0344598
0.0365805
0.0386985
0.0408071
0.0428997
0.0449695
0.0470098
0.0490138
0.0509748
0.052886
0.054741
0.0565334
0.0582566
0.0599043
0.0614701
0.0629481
0.0643329
0.0656191
0.0668019
0.0678766
0.0688389
0.0696844
0.0704095
0.0710107
0.0714851
0.0718305
0.072045
0.0721272
0.0720759
0.0718906
0.0715711
0.0711177
0.0705313
0.069813
0.0689647
0.0679882
0.0668859
0.06566
0.0643133
0.0628482
0.0612675
0.0595738
0.0577697
0.0558579
0.0538395
0.0517158
0.049503
0.0472151
0.0446466
0.0416227
0.0271592
0.0238452
0.0210603
0.0186113
0.0162691
0.0140462
0.0119581
0.0100028
0.00817856
0.00648498
0.00492187
0.00348906
0.00218628
0.00101326
-3.04122e-05
-0.00094522
-0.00173167
-0.0023902
-0.00292135
-0.00332582
-0.00360456
-0.00375878
-0.00378982
-0.00369911
-0.00348824
-0.00315896
-0.00271322
-0.00215316
-0.00148128
-0.000700362
0.000186634
0.00117665
0.00226657
0.00345314
0.00473294
0.00610224
0.00755709
0.00909337
0.0107067
0.0123925
0.0141461
0.0159626
0.0178371
0.0197643
0.0217389
0.0237551
0.025807
0.0278886
0.0299938
0.0321165
0.0342503
0.0363887
0.038525
0.0406527
0.0427649
0.044855
0.0469161
0.0489414
0.0509242
0.0528577
0.0547352
0.0565502
0.0582962
0.0599664
0.0615547
0.0630549
0.0644612
0.0657684
0.0669713
0.068065
0.0690448
0.0699064
0.0706457
0.0712592
0.0717435
0.0720962
0.072315
0.0723981
0.0723442
0.0721524
0.071822
0.0713532
0.0707463
0.0700023
0.0691225
0.0681085
0.0669622
0.0656858
0.0642813
0.0627512
0.0610979
0.0593236
0.057431
0.0554224
0.0532989
0.0510616
0.0487279
0.0463125
0.0435983
0.0404008
0.0279892
0.0245041
0.0215771
0.0190052
0.0165472
0.0142167
0.0120296
0.00998391
0.0080776
0.00630995
0.00468039
0.00318832
0.0018331
0.000613947
-0.000469975
-0.00141949
-0.00223541
-0.00291858
-0.00346994
-0.00389068
-0.00418217
-0.00434593
-0.00438357
-0.00429675
-0.0040873
-0.00375724
-0.00330877
-0.00274431
-0.00206662
-0.00127862
-0.000383324
0.000616148
0.0017166
0.00291469
0.0042069
0.0055894
0.00705818
0.00860909
0.0102378
0.0119396
0.0137099
0.0155438
0.0174363
0.0193822
0.021376
0.0234121
0.0254846
0.0275875
0.0297148
0.0318603
0.0340175
0.0361801
0.0383413
0.0404945
0.0426329
0.0447497
0.0468382
0.0488913
0.0509023
0.0528644
0.0547707
0.0566145
0.0583891
0.0600879
0.0617043
0.0632321
0.0646654
0.0659987
0.0672264
0.0683437
0.0693455
0.0702272
0.0709845
0.0716135
0.0721108
0.0724735
0.0726989
0.0727851
0.0727303
0.0725332
0.072193
0.0717093
0.0710822
0.0703124
0.0694008
0.0683487
0.0671577
0.0658295
0.0643662
0.0627698
0.0610424
0.0591862
0.0572036
0.0550969
0.0528672
0.0505156
0.0480603
0.045517
0.0426572
0.0392867
0.0286712
0.0250165
0.0219483
0.0192538
0.0166804
0.0142422
0.011956
0.00981978
0.00783104
0.00598884
0.00429229
0.00274037
0.00133204
6.61656e-05
-0.0010584
-0.00204282
-0.00288825
-0.00359598
-0.00416742
-0.00460413
-0.00490782
-0.00508031
-0.00512344
-0.00503914
-0.00482949
-0.00449681
-0.00404358
-0.00347252
-0.00278654
-0.00198867
-0.00108198
-6.96705e-05
0.00104493
0.00225835
0.00356697
0.0049669
0.00645408
0.0080243
0.00967317
0.0113961
0.0131884
0.015045
0.0169611
0.0189314
0.0209503
0.0230123
0.0251115
0.0272419
0.0293976
0.0315723
0.0337594
0.0359527
0.0381453
0.0403306
0.0425017
0.0446519
0.0467742
0.0488617
0.0509074
0.0529044
0.0548458
0.0567246
0.058534
0.0602672
0.0619176
0.0634788
0.0649446
0.0663092
0.067567
0.0687126
0.0697409
0.070647
0.0714263
0.0720747
0.0725883
0.072964
0.0731988
0.0732904
0.0732367
0.0730361
0.0726874
0.0721899
0.0715433
0.070748
0.0698047
0.0687142
0.067478
0.0660975
0.0645744
0.0629106
0.061108
0.0591687
0.057095
0.0548891
0.0525522
0.0500852
0.0475076
0.044836
0.0418302
0.0382866
0.0291975
0.0253741
0.0221651
0.0193484
0.0166597
0.014114
0.0117288
0.00950185
0.00743045
0.0055134
0.00374947
0.00213732
0.000675567
-0.000637202
-0.00180241
-0.00282159
-0.00369634
-0.00442836
-0.00501945
-0.00547153
-0.00578657
-0.00596665
-0.00601388
-0.00593047
-0.0057188
-0.00538153
-0.00492141
-0.00434134
-0.0036444
-0.00283366
-0.00191229
-0.000883647
0.00024878
0.00148141
0.00281055
0.00423223
0.00574231
0.00733656
0.00901059
0.0107598
0.0125793
0.0144642
0.0164094
0.0184097
0.0204596
0.0225535
0.0246855
0.0268497
0.0290401
0.0312503
0.0334739
0.0357043
0.0379348
0.0401587
0.0423692
0.0445593
0.0467222
0.0488506
0.0509376
0.0529761
0.054959
0.0568791
0.0587296
0.0605034
0.0621938
0.0637941
0.0652981
0.0666996
0.0679927
0.0691718
0.0702314
0.0711665
0.0719721
0.0726437
0.0731774
0.0735694
0.0738168
0.0739166
0.0738664
0.0736644
0.0733089
0.0727989
0.0721339
0.0713139
0.0703392
0.0692106
0.067929
0.0664958
0.0649124
0.0631804
0.0613018
0.0592784
0.0571125
0.0548064
0.0523612
0.049778
0.0470773
0.0442765
0.0411241
0.0374067
0.0295602
0.0255685
0.0222191
0.0192803
0.0164766
0.0138234
0.0113393
0.00902157
0.00686738
0.00487529
0.00304381
0.00137135
-0.000143754
-0.00150322
-0.00270882
-0.00376244
-0.0046661
-0.00542189
-0.00603195
-0.00649845
-0.00682367
-0.00700992
-0.00705962
-0.00697528
-0.00675966
-0.00641568
-0.00594633
-0.00535464
-0.00464378
-0.00381698
-0.00287754
-0.00182898
-0.000674939
0.000580896
0.00193474
0.00338254
0.00492012
0.00654321
0.00824739
0.010028
0.01188
0.0137986
0.0157786
0.0178147
0.0199014
0.0220332
0.0242042
0.0264085
0.0286399
0.030892
0.0331585
0.0354326
0.0377076
0.0399768
0.0422333
0.0444701
0.0466801
0.0488562
0.0509912
0.0530777
0.0551086
0.0570766
0.0589745
0.0607952
0.0625318
0.0641773
0.0657253
0.0671694
0.0685034
0.0697213
0.0708174
0.0717863
0.0726228
0.073322
0.0738798
0.074292
0.0745552
0.0746663
0.0746225
0.0744214
0.0740613
0.0735406
0.0728587
0.0720151
0.0710099
0.0698436
0.0685169
0.0670308
0.0653868
0.0635862
0.0616309
0.0595226
0.0572636
0.0548564
0.0523019
0.0496014
0.0467764
0.0438455
0.0405454
0.0366531
0.0297516
0.0255916
0.0221019
0.0190414
0.0161226
0.0133621
0.0107789
0.00837034
0.00613333
0.00406619
0.00216725
0.000434679
-0.00113346
-0.00253922
-0.00378475
-0.00487231
-0.00580427
-0.00658305
-0.00721105
-0.00769075
-0.00802466
-0.00821541
-0.00826575
-0.00817856
-0.00795687
-0.00760388
-0.00712271
-0.0065165
-0.00578861
-0.00494241
-0.00398137
-0.00290919
-0.00172965
-0.000446534
0.000936292
0.00241471
0.00398448
0.00564131
0.0073807
0.00919787
0.0110878
0.0130455
0.0150658
0.0171435
0.0192731
0.0214489
0.023665
0.0259156
0.0281944
0.030495
0.0328108
0.0351352
0.0374613
0.0397825
0.0420917
0.044382
0.046646
0.0488765
0.0510661
0.0532075
0.0552931
0.0573155
0.0592675
0.0611416
0.0629307
0.0646277
0.0662259
0.0677185
0.0690991
0.0703615
0.0714995
0.0725073
0.0733796
0.0741112
0.0746973
0.0751339
0.0754168
0.0755427
0.0755083
0.0753111
0.0749487
0.0744196
0.0737225
0.0728568
0.0718223
0.0706191
0.0692478
0.0677092
0.0660045
0.0641351
0.0621025
0.0599087
0.0575559
0.0550465
0.0523817
0.0495628
0.0466124
0.04355
0.0401008
0.0360318
0.029764
0.0254357
0.0218056
0.018623
0.0155892
0.0127212
0.0100389
0.00753953
0.00521978
0.0030778
0.0011117
-0.000680579
-0.00230128
-0.00375281
-0.00503767
-0.00615846
-0.00711784
-0.0079185
-0.00856314
-0.00905451
-0.0093954
-0.0095888
-0.00963782
-0.00954565
-0.00931558
-0.00895098
-0.00845513
-0.00783132
-0.0070831
-0.00621402
-0.00522774
-0.00412811
-0.00291906
-0.00160446
-0.000188239
0.00132541
0.00293219
0.00462772
0.00640743
0.00826642
0.0101996
0.0122019
0.0142683
0.0163935
0.0185718
0.0207977
0.0230652
0.0253684
0.0277011
0.0300566
0.0324283
0.0348095
0.0371935
0.0395734
0.0419423
0.0442928
0.0466177
0.0489095
0.0511607
0.0533637
0.0555108
0.0575946
0.0596073
0.0615414
0.0633896
0.0651446
0.0667993
0.0683467
0.06978
0.0710927
0.0722782
0.0733305
0.0742439
0.0750128
0.0756322
0.0760974
0.0764043
0.0765487
0.0765274
0.0763372
0.0759756
0.0754406
0.0747305
0.0738446
0.0727822
0.0715433
0.0701282
0.0685377
0.0667726
0.0648342
0.0627242
0.0604444
0.057997
0.0553846
0.0526083
0.0496697
0.0465924
0.0433971
0.0397968
0.0355489
0.0295899
0.0250926
0.0213217