/*--------------------------------*- C++ -*----------------------------------*\
  =========                 |
  \\      /  F ield         | OpenFOAM: The Open Source CFD Toolbox
   \\    /   O peration     | Website:  https://openfoam.org
    \\  /    A nd           | Version:  11
     \\/     M anipulation  |
\*---------------------------------------------------------------------------*/
FoamFile
{
    format      ascii;
    class       volVectorField;
    location    "8.2";
    object      U;
}
// * * * * * * * * * * * * * * * * * * * * * * * * * * * * * * * * * * * * * //

dimensions      [0 1 -1 0 0 0 0];

internalField   nonuniform List<vector> 
10100
(
(3.35621e-06 -2.68782e-06 0)
(1.48545e-05 -7.37979e-06 0)
(3.3939e-05 -8.92598e-06 0)
(5.16925e-05 -7.73673e-06 0)
(6.35716e-05 -5.2267e-06 0)
(6.68381e-05 -2.09356e-06 0)
(6.0268e-05 1.29615e-06 0)
(4.33076e-05 4.73402e-06 0)
(1.58449e-05 8.09912e-06 0)
(-2.19377e-05 1.13226e-05 0)
(-6.96721e-05 1.43718e-05 0)
(-0.000126875 1.72248e-05 0)
(-0.000192979 1.98702e-05 0)
(-0.000267364 2.23048e-05 0)
(-0.000349375 2.45233e-05 0)
(-0.00043834 2.65224e-05 0)
(-0.000533571 2.83006e-05 0)
(-0.000634377 2.98636e-05 0)
(-0.000740075 3.12191e-05 0)
(-0.000849983 3.23681e-05 0)
(-0.000963434 3.33178e-05 0)
(-0.00107977 3.40759e-05 0)
(-0.00119835 3.46444e-05 0)
(-0.00131855 3.50311e-05 0)
(-0.00143976 3.5243e-05 0)
(-0.00156139 3.52827e-05 0)
(-0.00168287 3.51572e-05 0)
(-0.00180365 3.48748e-05 0)
(-0.00192319 3.44403e-05 0)
(-0.00204099 3.38591e-05 0)
(-0.00215654 3.31379e-05 0)
(-0.00226939 3.22821e-05 0)
(-0.00237907 3.12984e-05 0)
(-0.00248517 3.01962e-05 0)
(-0.00258727 2.89824e-05 0)
(-0.00268499 2.76607e-05 0)
(-0.00277798 2.62359e-05 0)
(-0.00286589 2.47162e-05 0)
(-0.0029484 2.31094e-05 0)
(-0.00302522 2.14202e-05 0)
(-0.00309606 1.96532e-05 0)
(-0.00316067 1.78157e-05 0)
(-0.00321883 1.59156e-05 0)
(-0.00327032 1.39586e-05 0)
(-0.00331494 1.19492e-05 0)
(-0.00335255 9.89291e-06 0)
(-0.00338299 7.79849e-06 0)
(-0.00340615 5.67558e-06 0)
(-0.00342193 3.53165e-06 0)
(-0.00343028 1.3718e-06 0)
(-0.00343114 -7.99714e-07 0)
(-0.00342449 -2.97666e-06 0)
(-0.00341033 -5.15003e-06 0)
(-0.0033887 -7.31037e-06 0)
(-0.00335965 -9.44921e-06 0)
(-0.00332327 -1.1559e-05 0)
(-0.00327966 -1.36332e-05 0)
(-0.00322898 -1.56649e-05 0)
(-0.00317137 -1.76464e-05 0)
(-0.00310704 -1.95702e-05 0)
(-0.00303619 -2.14293e-05 0)
(-0.00295906 -2.3216e-05 0)
(-0.00287594 -2.49223e-05 0)
(-0.00278711 -2.654e-05 0)
(-0.0026929 -2.80599e-05 0)
(-0.00259367 -2.94724e-05 0)
(-0.00248981 -3.07685e-05 0)
(-0.00238172 -3.19398e-05 0)
(-0.00226986 -3.29789e-05 0)
(-0.00215467 -3.38793e-05 0)
(-0.00203666 -3.46351e-05 0)
(-0.00191633 -3.52391e-05 0)
(-0.00179422 -3.56837e-05 0)
(-0.00167089 -3.59612e-05 0)
(-0.00154692 -3.60646e-05 0)
(-0.00142291 -3.59866e-05 0)
(-0.00129949 -3.57206e-05 0)
(-0.0011773 -3.52612e-05 0)
(-0.00105699 -3.46037e-05 0)
(-0.000939241 -3.37434e-05 0)
(-0.000824727 -3.2676e-05 0)
(-0.000714137 -3.13983e-05 0)
(-0.000608166 -2.99081e-05 0)
(-0.000507508 -2.82035e-05 0)
(-0.000412855 -2.62841e-05 0)
(-0.000324889 -2.41509e-05 0)
(-0.000244277 -2.18067e-05 0)
(-0.000171664 -1.92559e-05 0)
(-0.000107662 -1.65057e-05 0)
(-5.28303e-05 -1.35675e-05 0)
(-7.6646e-06 -1.046e-05 0)
(2.74371e-05 -7.2114e-06 0)
(5.22145e-05 -3.86602e-06 0)
(6.66081e-05 -4.9614e-07 0)
(7.08605e-05 2.77602e-06 0)
(6.56747e-05 5.74034e-06 0)
(5.24356e-05 8.0343e-06 0)
(3.36762e-05 9.01438e-06 0)
(1.44475e-05 7.58959e-06 0)
(2.78866e-06 2.78968e-06 0)
(8.0719e-06 -1.49933e-05 0)
(3.16449e-05 -3.085e-05 0)
(6.29918e-05 -3.3475e-05 0)
(8.82674e-05 -2.56719e-05 0)
(9.79053e-05 -1.16139e-05 0)
(8.62916e-05 6.02343e-06 0)
(5.00647e-05 2.55191e-05 0)
(-1.26366e-05 4.5754e-05 0)
(-0.000102525 6.6005e-05 0)
(-0.000219519 8.57937e-05 0)
(-0.000362973 0.000104803 0)
(-0.000531845 0.000122819 0)
(-0.000724808 0.000139699 0)
(-0.000940341 0.000155354 0)
(-0.00117678 0.000169721 0)
(-0.00143237 0.000182759 0)
(-0.0017053 0.000194451 0)
(-0.00199372 0.000204791 0)
(-0.00229577 0.00021379 0)
(-0.00260959 0.000221462 0)
(-0.00293333 0.000227822 0)
(-0.00326518 0.000232902 0)
(-0.00360335 0.000236733 0)
(-0.00394607 0.000239343 0)
(-0.00429165 0.000240766 0)
(-0.00463841 0.000241038 0)
(-0.00498475 0.000240198 0)
(-0.00532909 0.000238284 0)
(-0.00566992 0.000235333 0)
(-0.00600579 0.000231385 0)
(-0.0063353 0.000226482 0)
(-0.00665709 0.000220666 0)
(-0.0069699 0.000213979 0)
(-0.0072725 0.000206465 0)
(-0.00756373 0.000198169 0)
(-0.00784248 0.000189133 0)
(-0.00810772 0.000179399 0)
(-0.00835847 0.000169008 0)
(-0.00859381 0.000158004 0)
(-0.00881288 0.00014643 0)
(-0.0090149 0.000134328 0)
(-0.00919914 0.000121744 0)
(-0.00936492 0.000108722 0)
(-0.00951166 9.53041e-05 0)
(-0.00963881 8.1535e-05 0)
(-0.0097459 6.74601e-05 0)
(-0.00983253 5.31293e-05 0)
(-0.00989838 3.85931e-05 0)
(-0.00994317 2.38989e-05 0)
(-0.00996671 9.09187e-06 0)
(-0.00996887 -5.78224e-06 0)
(-0.0099496 -2.06748e-05 0)
(-0.00990892 -3.55328e-05 0)
(-0.00984692 -5.03021e-05 0)
(-0.00976376 -6.49296e-05 0)
(-0.00965969 -7.93625e-05 0)
(-0.00953503 -9.35481e-05 0)
(-0.00939018 -0.000107434 0)
(-0.0092256 -0.000120968 0)
(-0.00904185 -0.000134098 0)
(-0.00883955 -0.000146773 0)
(-0.00861939 -0.000158939 0)
(-0.00838218 -0.00017054 0)
(-0.00812877 -0.000181519 0)
(-0.0078601 -0.000191819 0)
(-0.0075772 -0.000201381 0)
(-0.00728115 -0.000210151 0)
(-0.00697314 -0.000218074 0)
(-0.00665442 -0.000225102 0)
(-0.0063263 -0.000231184 0)
(-0.00599019 -0.000236273 0)
(-0.00564753 -0.000240323 0)
(-0.00529986 -0.000243287 0)
(-0.00494876 -0.000245121 0)
(-0.00459586 -0.000245781 0)
(-0.00424288 -0.000245227 0)
(-0.00389156 -0.000243424 0)
(-0.0035437 -0.000240338 0)
(-0.00320112 -0.000235941 0)
(-0.0028657 -0.000230212 0)
(-0.00253931 -0.000223132 0)
(-0.00222386 -0.000214691 0)
(-0.00192124 -0.000204884 0)
(-0.00163336 -0.000193716 0)
(-0.00136206 -0.000181201 0)
(-0.00110919 -0.000167365 0)
(-0.000876491 -0.000152251 0)
(-0.000665648 -0.00013592 0)
(-0.0004782 -0.000118458 0)
(-0.000315518 -9.99889e-05 0)
(-0.000178741 -8.06842e-05 0)
(-6.8692e-05 -6.0786e-05 0)
(1.42345e-05 -4.06394e-05 0)
(7.02339e-05 -2.07452e-05 0)
(0.000100319 -1.84433e-06 0)
(0.000106635 1.49516e-05 0)
(9.28158e-05 2.7968e-05 0)
(6.45488e-05 3.46766e-05 0)
(3.14073e-05 3.14116e-05 0)
(7.57605e-06 1.44346e-05 0)
(8.8944e-06 -3.37947e-05 0)
(3.33302e-05 -6.25809e-05 0)
(6.13571e-05 -6.14847e-05 0)
(7.59119e-05 -3.86114e-05 0)
(6.56097e-05 -1.21439e-06 0)
(2.32918e-05 4.52583e-05 0)
(-5.5766e-05 9.69112e-05 0)
(-0.000174364 0.000151022 0)
(-0.000333782 0.000205674 0)
(-0.000534149 0.000259524 0)
(-0.000774735 0.000311628 0)
(-0.00105417 0.000361315 0)
(-0.00137061 0.000408113 0)
(-0.00172188 0.000451696 0)
(-0.00210552 0.000491841 0)
(-0.00251893 0.000528396 0)
(-0.00295936 0.000561272 0)
(-0.00342399 0.000590431 0)
(-0.00390996 0.000615857 0)
(-0.0044144 0.000637568 0)
(-0.00493443 0.00065561 0)
(-0.00546719 0.000670036 0)
(-0.00600988 0.000680913 0)
(-0.00655974 0.000688326 0)
(-0.00711406 0.000692361 0)
(-0.0076702 0.000693113 0)
(-0.00822558 0.000690684 0)
(-0.00877773 0.000685179 0)
(-0.00932423 0.000676704 0)
(-0.00986275 0.000665371 0)
(-0.0103911 0.000651296 0)
(-0.010907 0.000634597 0)
(-0.0114086 0.000615392 0)
(-0.0118937 0.000593803 0)
(-0.0123607 0.000569955 0)
(-0.0128076 0.000543968 0)
(-0.0132329 0.000515964 0)
(-0.0136349 0.000486065 0)
(-0.0140122 0.000454395 0)
(-0.0143633 0.000421079 0)
(-0.0146872 0.000386243 0)
(-0.0149824 0.000350014 0)
(-0.0152481 0.00031252 0)
(-0.0154832 0.00027389 0)
(-0.0156868 0.000234253 0)
(-0.0158583 0.000193744 0)
(-0.015997 0.0001525 0)
(-0.0161023 0.000110661 0)
(-0.0161738 6.83622e-05 0)
(-0.0162112 2.57419e-05 0)
(-0.0162144 -1.70608e-05 0)
(-0.0161832 -5.99022e-05 0)
(-0.0161176 -0.000102635 0)
(-0.0160179 -0.000145108 0)
(-0.0158842 -0.000187172 0)
(-0.0157171 -0.000228673 0)
(-0.0155169 -0.00026946 0)
(-0.0152844 -0.000309378 0)
(-0.0150203 -0.000348276 0)
(-0.0147255 -0.000386 0)
(-0.0144009 -0.000422397 0)
(-0.0140478 -0.000457311 0)
(-0.0136675 -0.000490584 0)
(-0.0132612 -0.000522055 0)
(-0.0128305 -0.000551564 0)
(-0.0123771 -0.000578952 0)
(-0.0119027 -0.000604066 0)
(-0.0114091 -0.000626753 0)
(-0.0108985 -0.000646868 0)
(-0.0103728 -0.00066427 0)
(-0.00983441 -0.000678823 0)
(-0.00928553 -0.000690394 0)
(-0.00872861 -0.000698855 0)
(-0.0081662 -0.000704084 0)
(-0.00760089 -0.000705968 0)
(-0.00703538 -0.0007044 0)
(-0.00647245 -0.000699284 0)
(-0.00591491 -0.000690538 0)
(-0.00536565 -0.00067809 0)
(-0.00482761 -0.000661889 0)
(-0.00430372 -0.000641896 0)
(-0.00379694 -0.000618095 0)
(-0.00331023 -0.000590491 0)
(-0.0028465 -0.000559117 0)
(-0.00240863 -0.000524037 0)
(-0.00199939 -0.000485353 0)
(-0.00162144 -0.000443219 0)
(-0.00127727 -0.000397847 0)
(-0.000969142 -0.00034953 0)
(-0.000699016 -0.000298666 0)
(-0.000468461 -0.000245796 0)
(-0.00027853 -0.000191654 0)
(-0.000129598 -0.000137247 0)
(-2.11573e-05 -8.39613e-05 0)
(4.84688e-05 -3.37318e-05 0)
(8.24716e-05 1.07357e-05 0)
(8.58985e-05 4.56666e-05 0)
(6.61252e-05 6.58855e-05 0)
(3.47754e-05 6.4571e-05 0)
(9.01312e-06 3.36528e-05 0)
(7.69268e-06 -5.1772e-05 0)
(2.56604e-05 -8.80192e-05 0)
(3.88443e-05 -7.61545e-05 0)
(2.98775e-05 -2.95267e-05 0)
(-1.3169e-05 4.11516e-05 0)
(-9.81828e-05 0.00012751 0)
(-0.000230528 0.000223283 0)
(-0.00041354 0.000323851 0)
(-0.000648848 0.000425826 0)
(-0.000936727 0.000526735 0)
(-0.0012764 0.000624766 0)
(-0.00166629 0.000718598 0)
(-0.00210417 0.000807269 0)
(-0.00258733 0.000890082 0)
(-0.00311274 0.000966552 0)
(-0.00367708 0.00103634 0)
(-0.00427683 0.00109923 0)
(-0.00490837 0.00115509 0)
(-0.00556799 0.00120387 0)
(-0.00625191 0.00124557 0)
(-0.00695636 0.00128025 0)
(-0.00767761 0.00130799 0)
(-0.00841193 0.0013289 0)
(-0.00915564 0.00134312 0)
(-0.00990515 0.00135082 0)
(-0.0106569 0.00135216 0)
(-0.0114076 0.00134733 0)
(-0.0121537 0.00133653 0)
(-0.0128922 0.00131996 0)
(-0.0136198 0.00129784 0)
(-0.0143336 0.00127037 0)
(-0.0150306 0.0012378 0)
(-0.0157081 0.00120034 0)
(-0.0163635 0.00115823 0)
(-0.0169942 0.00111171 0)
(-0.0175979 0.001061 0)
(-0.0181723 0.00100636 0)
(-0.0187152 0.000948011 0)
(-0.0192248 0.000886203 0)
(-0.019699 0.000821179 0)
(-0.0201362 0.000753187 0)
(-0.0205349 0.000682475 0)
(-0.0208935 0.000609294 0)
(-0.0212108 0.000533896 0)
(-0.0214857 0.00045654 0)
(-0.021717 0.000377487 0)
(-0.021904 0.000297004 0)
(-0.0220459 0.000215357 0)
(-0.0221422 0.000132817 0)
(-0.0221924 4.96549e-05 0)
(-0.0221963 -3.38511e-05 0)
(-0.0221537 -0.000117419 0)
(-0.0220648 -0.000200764 0)
(-0.0219298 -0.000283596 0)
(-0.0217489 -0.000365621 0)
(-0.0215229 -0.000446543 0)
(-0.0212522 -0.000526063 0)
(-0.020938 -0.000603882 0)
(-0.020581 -0.0006797 0)
(-0.0201827 -0.000753214 0)
(-0.0197443 -0.000824123 0)
(-0.0192673 -0.000892121 0)
(-0.0187536 -0.000956902 0)
(-0.018205 -0.00101816 0)
(-0.0176234 -0.00107558 0)
(-0.0170113 -0.00112887 0)
(-0.0163708 -0.00117774 0)
(-0.0157045 -0.00122188 0)
(-0.0150152 -0.00126101 0)
(-0.0143056 -0.00129487 0)
(-0.0135788 -0.00132319 0)
(-0.0128378 -0.00134572 0)
(-0.012086 -0.00136221 0)
(-0.0113266 -0.00137243 0)
(-0.0105632 -0.00137618 0)
(-0.00979945 -0.00137326 0)
(-0.00903892 -0.00136349 0)
(-0.00828542 -0.00134673 0)
(-0.00754276 -0.00132286 0)
(-0.00681481 -0.00129178 0)
(-0.00610547 -0.00125345 0)
(-0.00541862 -0.00120785 0)
(-0.00475812 -0.00115501 0)
(-0.0041278 -0.00109503 0)
(-0.00353137 -0.00102806 0)
(-0.0029724 -0.000954335 0)
(-0.00245431 -0.000874188 0)
(-0.00198024 -0.000788077 0)
(-0.00155302 -0.000696615 0)
(-0.00117506 -0.000600617 0)
(-0.000848251 -0.000501162 0)
(-0.000573789 -0.000399684 0)
(-0.000352022 -0.000298087 0)
(-0.000182214 -0.000198912 0)
(-6.22677e-05 -0.000105567 0)
(1.16065e-05 -2.26198e-05 0)
(4.51935e-05 4.3835e-05 0)
(4.66811e-05 8.58132e-05 0)
(2.83889e-05 9.31059e-05 0)
(8.09421e-06 5.25044e-05 0)
(5.31532e-06 -6.35894e-05 0)
(1.21101e-05 -9.80034e-05 0)
(2.44806e-06 -6.62609e-05 0)
(-3.93424e-05 1.33413e-05 0)
(-0.000124685 0.000126687 0)
(-0.000261535 0.000262625 0)
(-0.000455412 0.000412528 0)
(-0.000709794 0.000569832 0)
(-0.00102641 0.000729575 0)
(-0.00140556 0.000888012 0)
(-0.00184639 0.00104232 0)
(-0.0023471 0.0011904 0)
(-0.00290518 0.00133066 0)
(-0.0035175 0.00146195 0)
(-0.00418052 0.00158341 0)
(-0.00489034 0.00169444 0)
(-0.00564281 0.00179465 0)
(-0.0064336 0.00188377 0)
(-0.00725827 0.00196166 0)
(-0.00811231 0.00202831 0)
(-0.00899115 0.00208374 0)
(-0.00989023 0.00212807 0)
(-0.010805 0.00216145 0)
(-0.0117311 0.00218409 0)
(-0.012664 0.00219622 0)
(-0.0135995 0.0021981 0)
(-0.0145333 0.00219003 0)
(-0.0154613 0.0021723 0)
(-0.0163796 0.00214524 0)
(-0.0172843 0.00210918 0)
(-0.0181716 0.00206448 0)
(-0.0190381 0.00201149 0)
(-0.0198802 0.00195057 0)
(-0.0206948 0.00188211 0)
(-0.0214787 0.00180646 0)
(-0.0222289 0.00172402 0)
(-0.0229426 0.00163518 0)
(-0.0236172 0.00154031 0)
(-0.0242503 0.00143982 0)
(-0.0248394 0.0013341 0)
(-0.0253826 0.00122356 0)
(-0.0258778 0.00110859 0)
(-0.0263232 0.000989611 0)
(-0.0267172 0.000867036 0)
(-0.0270584 0.000741284 0)
(-0.0273455 0.00061278 0)
(-0.0275775 0.000481955 0)
(-0.0277535 0.000349245 0)
(-0.0278727 0.00021509 0)
(-0.0279348 7.99368e-05 0)
(-0.0279392 -5.57621e-05 0)
(-0.027886 -0.000191549 0)
(-0.0277752 -0.00032696 0)
(-0.027607 -0.000461523 0)
(-0.027382 -0.000594764 0)
(-0.0271009 -0.000726201 0)
(-0.0267644 -0.000855348 0)
(-0.0263737 -0.00098172 0)
(-0.02593 -0.00110483 0)
(-0.025435 -0.00122418 0)
(-0.0248902 -0.00133928 0)
(-0.0242976 -0.00144964 0)
(-0.0236594 -0.00155475 0)
(-0.0229778 -0.00165414 0)
(-0.0222554 -0.0017473 0)
(-0.021495 -0.00183375 0)
(-0.0206994 -0.00191302 0)
(-0.0198718 -0.00198464 0)
(-0.0190156 -0.00204815 0)
(-0.0181342 -0.00210312 0)
(-0.0172312 -0.00214912 0)
(-0.0163107 -0.00218575 0)
(-0.0153765 -0.00221263 0)
(-0.0144328 -0.0022294 0)
(-0.0134839 -0.00223573 0)
(-0.0125342 -0.00223132 0)
(-0.0115882 -0.0022159 0)
(-0.0106506 -0.00218925 0)
(-0.00972588 -0.0021512 0)
(-0.00881888 -0.00210163 0)
(-0.00793427 -0.00204047 0)
(-0.00707678 -0.00196772 0)
(-0.00625107 -0.00188349 0)
(-0.00546172 -0.00178794 0)
(-0.00471319 -0.00168137 0)
(-0.00400973 -0.0015642 0)
(-0.00335538 -0.00143702 0)
(-0.00275383 -0.0013006 0)
(-0.0022084 -0.00115598 0)
(-0.00172185 -0.00100451 0)
(-0.00129633 -0.000847943 0)
(-0.000933206 -0.000688539 0)
(-0.000632837 -0.000529253 0)
(-0.000394408 -0.000373918 0)
(-0.000215652 -0.000227523 0)
(-9.25635e-05 -9.65508e-05 0)
(-1.91292e-05 1.05954e-05 0)
(1.3041e-05 8.31932e-05 0)
(1.59233e-05 0.000107709 0)
(5.91313e-06 6.60675e-05 0)
(2.35199e-06 -6.72314e-05 0)
(-4.87977e-06 -8.73106e-05 0)
(-4.27939e-05 -2.48699e-05 0)
(-0.000124005 9.77154e-05 0)
(-0.000258597 0.000263322 0)
(-0.000454144 0.000458213 0)
(-0.000715904 0.000671542 0)
(-0.00104717 0.000894867 0)
(-0.00144954 0.00112163 0)
(-0.00192319 0.00134676 0)
(-0.00246711 0.00156636 0)
(-0.00307925 0.00177744 0)
(-0.00375681 0.00197772 0)
(-0.0044963 0.00216548 0)
(-0.00529375 0.00233945 0)
(-0.00614474 0.00249869 0)
(-0.00704458 0.00264256 0)
(-0.00798836 0.00277062 0)
(-0.00897098 0.00288264 0)
(-0.00998726 0.0029785 0)
(-0.011032 0.00305823 0)
(-0.0120998 0.00312195 0)
(-0.0131856 0.00316984 0)
(-0.0142841 0.00320217 0)
(-0.0153902 0.00321926 0)
(-0.0164989 0.00322147 0)
(-0.0176053 0.0032092 0)
(-0.0187045 0.00318287 0)
(-0.019792 0.00314294 0)
(-0.0208631 0.0030899 0)
(-0.0219135 0.00302424 0)
(-0.0229391 0.00294646 0)
(-0.0239358 0.00285711 0)
(-0.0248997 0.00275671 0)
(-0.0258272 0.00264581 0)
(-0.0267148 0.00252497 0)
(-0.0275592 0.00239475 0)
(-0.0283572 0.00225572 0)
(-0.029106 0.00210845 0)
(-0.0298028 0.00195352 0)
(-0.0304451 0.00179153 0)
(-0.0310307 0.00162307 0)
(-0.0315573 0.00144873 0)
(-0.0320231 0.00126914 0)
(-0.0324264 0.0010849 0)
(-0.0327657 0.000896643 0)
(-0.0330398 0.000704992 0)
(-0.0332476 0.00051059 0)
(-0.0333883 0.000314087 0)
(-0.0334613 0.000116135 0)
(-0.0334662 -8.25996e-05 0)
(-0.0334029 -0.000281446 0)
(-0.0332715 -0.000479725 0)
(-0.0330723 -0.000676748 0)
(-0.0328059 -0.000871816 0)
(-0.0324731 -0.00106423 0)
(-0.0320749 -0.00125327 0)
(-0.0316126 -0.00143824 0)
(-0.0310878 -0.00161841 0)
(-0.0305022 -0.00179307 0)
(-0.0298578 -0.0019615 0)
(-0.029157 -0.00212296 0)
(-0.0284021 -0.00227675 0)
(-0.0275961 -0.00242215 0)
(-0.0267417 -0.00255844 0)
(-0.0258424 -0.00268493 0)
(-0.0249015 -0.00280091 0)
(-0.0239228 -0.00290573 0)
(-0.02291 -0.00299872 0)
(-0.0218674 -0.00307926 0)
(-0.0207993 -0.00314672 0)
(-0.0197101 -0.00320053 0)
(-0.0186045 -0.00324016 0)
(-0.0174875 -0.00326507 0)
(-0.016364 -0.00327482 0)
(-0.0152391 -0.00326898 0)
(-0.0141182 -0.00324719 0)
(-0.0130065 -0.00320914 0)
(-0.0119095 -0.00315462 0)
(-0.0108326 -0.00308346 0)
(-0.00978133 -0.00299561 0)
(-0.00876108 -0.00289111 0)
(-0.00777723 -0.00277013 0)
(-0.00683504 -0.00263298 0)
(-0.00593959 -0.00248011 0)
(-0.00509575 -0.0023122 0)
(-0.00430809 -0.00213014 0)
(-0.00358078 -0.00193511 0)
(-0.00291755 -0.00172865 0)
(-0.0023215 -0.00151272 0)
(-0.00179505 -0.00128984 0)
(-0.00133973 -0.00106321 0)
(-0.000956034 -0.000836899 0)
(-0.000643221 -0.000616096 0)
(-0.000399087 -0.000407386 0)
(-0.000219736 -0.000219135 0)
(-9.93239e-05 -6.19392e-05 0)
(-2.97343e-05 5.09299e-05 0)
(-1.32712e-07 0.000102923 0)
(3.10716e-06 7.19287e-05 0)
(-8.62092e-07 -6.14368e-05 0)
(-2.37498e-05 -5.25755e-05 0)
(-9.33552e-05 5.27527e-05 0)
(-0.000218415 0.000229109 0)
(-0.000407158 0.000456829 0)
(-0.00066639 0.000719924 0)
(-0.00100077 0.00100553 0)
(-0.00141315 0.00130345 0)
(-0.00190481 0.00160558 0)
(-0.00247561 0.00190554 0)
(-0.00312427 0.00219833 0)
(-0.00384849 0.00248005 0)
(-0.00464513 0.00274765 0)
(-0.00551035 0.0029988 0)
(-0.00643975 0.00323175 0)
(-0.00742851 0.00344519 0)
(-0.00847142 0.00363816 0)
(-0.00956304 0.00381004 0)
(-0.0106977 0.00396044 0)
(-0.0118697 0.00408915 0)
(-0.013073 0.00419615 0)
(-0.014302 0.00428156 0)
(-0.0155506 0.00434559 0)
(-0.016813 0.00438857 0)
(-0.0180835 0.00441088 0)
(-0.0193564 0.00441301 0)
(-0.0206261 0.00439546 0)
(-0.0218873 0.0043588 0)
(-0.0231345 0.00430363 0)
(-0.0243628 0.0042306 0)
(-0.0255671 0.00414036 0)
(-0.0267427 0.0040336 0)
(-0.027885 0.00391104 0)
(-0.0289896 0.0037734 0)
(-0.0300523 0.00362142 0)
(-0.0310691 0.00345584 0)
(-0.0320364 0.00327745 0)
(-0.0329505 0.00308701 0)
(-0.033808 0.00288531 0)
(-0.034606 0.00267315 0)
(-0.0353416 0.00245132 0)
(-0.036012 0.00222065 0)
(-0.0366148 0.00198196 0)
(-0.037148 0.00173608 0)
(-0.0376096 0.00148385 0)
(-0.0379979 0.00122614 0)
(-0.0383115 0.000963797 0)
(-0.0385491 0.000697709 0)
(-0.0387099 0.000428761 0)
(-0.0387932 0.000157851 0)
(-0.0387986 -0.000114113 0)
(-0.0387258 -0.00038621 0)
(-0.0385751 -0.000657511 0)
(-0.0383467 -0.000927071 0)
(-0.0380415 -0.00119394 0)
(-0.0376602 -0.00145716 0)
(-0.037204 -0.00171575 0)
(-0.0366746 -0.00196876 0)
(-0.0360735 -0.00221519 0)
(-0.0354029 -0.00245406 0)
(-0.034665 -0.0026844 0)
(-0.0338624 -0.00290522 0)
(-0.0329981 -0.00311555 0)
(-0.032075 -0.00331439 0)
(-0.0310967 -0.0035008 0)
(-0.0300669 -0.00367382 0)
(-0.0289893 -0.00383252 0)
(-0.0278683 -0.00397599 0)
(-0.0267083 -0.00410334 0)
(-0.0255139 -0.00421372 0)
(-0.02429 -0.00430631 0)
(-0.0230417 -0.00438032 0)
(-0.0217745 -0.00443504 0)
(-0.0204936 -0.00446979 0)
(-0.0192049 -0.00448394 0)
(-0.0179141 -0.00447696 0)
(-0.0166272 -0.00444837 0)
(-0.0153501 -0.00439779 0)
(-0.0140891 -0.00432494 0)
(-0.0128501 -0.00422964 0)
(-0.0116393 -0.00411186 0)
(-0.0104628 -0.0039717 0)
(-0.00932664 -0.00380941 0)
(-0.00823663 -0.00362547 0)
(-0.00719843 -0.00342055 0)
(-0.00621743 -0.00319561 0)
(-0.0052987 -0.00295191 0)
(-0.00444684 -0.00269107 0)
(-0.00366596 -0.00241521 0)
(-0.00295951 -0.00212697 0)
(-0.0023302 -0.00182968 0)
(-0.00177979 -0.00152753 0)
(-0.00130902 -0.00122574 0)
(-0.000917365 -0.000930853 0)
(-0.000602911 -0.000651 0)
(-0.000362132 -0.000396326 0)
(-0.000189672 -0.00017944 0)
(-7.80653e-05 -1.58748e-05 0)
(-1.81763e-05 7.5268e-05 0)
(2.60634e-08 6.87918e-05 0)
(-4.14405e-06 -4.55881e-05 0)
(-4.35106e-05 8.18588e-06 0)
(-0.000146811 0.00016968 0)
(-0.000318538 0.000411268 0)
(-0.000564703 0.000711277 0)
(-0.000891081 0.00105183 0)
(-0.00130151 0.00141831 0)
(-0.00179814 0.0017989 0)
(-0.00238173 0.00218409 0)
(-0.00305174 0.00256625 0)
(-0.00380651 0.00293927 0)
(-0.00464337 0.00329832 0)
(-0.00555883 0.0036396 0)
(-0.00654869 0.00396014 0)
(-0.00760814 0.00425764 0)
(-0.00873193 0.00453039 0)
(-0.00991441 0.00477711 0)
(-0.0111497 0.00499694 0)
(-0.0124315 0.00518929 0)
(-0.0137536 0.00535386 0)
(-0.0151097 0.00549057 0)
(-0.0164932 0.0055995 0)
(-0.0178976 0.00568089 0)
(-0.0193167 0.00573513 0)
(-0.020744 0.00576268 0)
(-0.0221733 0.00576412 0)
(-0.0235984 0.00574008 0)
(-0.0250134 0.00569128 0)
(-0.0264123 0.00561848 0)
(-0.0277895 0.00552248 0)
(-0.0291396 0.00540415 0)
(-0.0304572 0.00526435 0)
(-0.0317372 0.005104 0)
(-0.0329748 0.00492403 0)
(-0.0341653 0.0047254 0)
(-0.0353043 0.00450909 0)
(-0.0363875 0.00427608 0)
(-0.0374111 0.00402738 0)
(-0.0383713 0.00376402 0)
(-0.0392647 0.00348703 0)
(-0.0400881 0.00319746 0)
(-0.0408385 0.00289637 0)
(-0.0415133 0.00258483 0)
(-0.04211 0.00226394 0)
(-0.0426266 0.00193479 0)
(-0.043061 0.0015985 0)
(-0.0434118 0.00125621 0)
(-0.0436775 0.000909039 0)
(-0.0438573 0.000558163 0)
(-0.0439503 0.000204749 0)
(-0.043956 -0.000150016 0)
(-0.0438744 -0.000504934 0)
(-0.0437055 -0.000858789 0)
(-0.0434497 -0.00121036 0)
(-0.0431079 -0.00155839 0)
(-0.042681 -0.00190165 0)
(-0.0421704 -0.00223887 0)
(-0.0415776 -0.00256878 0)
(-0.0409048 -0.00289011 0)
(-0.0401541 -0.00320159 0)
(-0.0393282 -0.00350194 0)
(-0.0384298 -0.00378988 0)
(-0.0374622 -0.00406415 0)
(-0.036429 -0.00432348 0)
(-0.0353337 -0.00456662 0)
(-0.0341807 -0.00479236 0)
(-0.0329741 -0.00499947 0)
(-0.0317188 -0.0051868 0)
(-0.0304195 -0.0053532 0)
(-0.0290815 -0.00549756 0)
(-0.0277102 -0.00561885 0)
(-0.0263113 -0.00571606 0)
(-0.0248906 -0.00578828 0)
(-0.0234542 -0.00583463 0)
(-0.0220084 -0.00585434 0)
(-0.0205596 -0.00584672 0)
(-0.0191144 -0.0058112 0)
(-0.0176793 -0.00574732 0)
(-0.0162611 -0.00565473 0)
(-0.0148664 -0.00553326 0)
(-0.0135022 -0.00538288 0)
(-0.0121749 -0.00520378 0)
(-0.0108911 -0.00499635 0)
(-0.00965738 -0.00476122 0)
(-0.00847975 -0.00449934 0)
(-0.00736412 -0.00421196 0)
(-0.00631602 -0.00390076 0)
(-0.00534048 -0.00356788 0)
(-0.00444197 -0.003216 0)
(-0.00362433 -0.00284851 0)
(-0.00289056 -0.00246958 0)
(-0.00224278 -0.0020844 0)
(-0.00168205 -0.00169933 0)
(-0.00120824 -0.0013222 0)
(-0.000819873 -0.000962622 0)
(-0.000514025 -0.000632365 0)
(-0.00028608 -0.000345819 0)
(-0.000129496 -0.000120437 0)
(-3.71892e-05 2.26365e-05 0)
(-3.13668e-06 5.59988e-05 0)
(-7.39515e-06 -1.94767e-05 0)
(-6.35465e-05 9.60005e-05 0)
(-0.00020155 0.000327693 0)
(-0.000421547 0.000646533 0)
(-0.000727167 0.00102935 0)
(-0.00112295 0.00145673 0)
(-0.00161171 0.00191258 0)
(-0.00219479 0.00238367 0)
(-0.00287223 0.00285919 0)
(-0.00364297 0.00333034 0)
(-0.00450484 0.00378999 0)
(-0.00545478 0.0042324 0)
(-0.00648886 0.00465299 0)
(-0.00760248 0.00504814 0)
(-0.00879044 0.00541503 0)
(-0.0100471 0.00575149 0)
(-0.0113663 0.00605592 0)
(-0.0127417 0.00632716 0)
(-0.0141667 0.00656445 0)
(-0.0156344 0.00676736 0)
(-0.017138 0.00693571 0)
(-0.0186706 0.00706956 0)
(-0.0202251 0.00716918 0)
(-0.0217946 0.00723497 0)
(-0.0233722 0.0072675 0)
(-0.0249511 0.00726744 0)
(-0.0265247 0.00723555 0)
(-0.0280865 0.00717271 0)
(-0.02963 0.00707984 0)
(-0.0311491 0.00695794 0)
(-0.0326379 0.00680805 0)
(-0.0340905 0.00663125 0)
(-0.0355014 0.00642867 0)
(-0.0368652 0.00620149 0)
(-0.0381769 0.00595089 0)
(-0.0394316 0.00567809 0)
(-0.0406249 0.00538432 0)
(-0.0417522 0.00507085 0)
(-0.0428096 0.00473896 0)
(-0.0437934 0.00438996 0)
(-0.0446999 0.00402515 0)
(-0.0455261 0.00364587 0)
(-0.0462689 0.00325347 0)
(-0.0469257 0.00284933 0)
(-0.0474942 0.00243482 0)
(-0.0479723 0.00201135 0)
(-0.0483583 0.00158035 0)
(-0.0486507 0.00114324 0)
(-0.0488485 0.000701499 0)
(-0.0489507 0.000256585 0)
(-0.0489569 -0.000190004 0)
(-0.0488669 -0.000636761 0)
(-0.048681 -0.00108216 0)
(-0.0483994 -0.00152465 0)
(-0.0480231 -0.00196269 0)
(-0.0475532 -0.0023947 0)
(-0.0469912 -0.0028191 0)
(-0.0463388 -0.0032343 0)
(-0.0455982 -0.00363871 0)
(-0.0447719 -0.00403072 0)
(-0.0438627 -0.00440874 0)
(-0.0428738 -0.00477117 0)
(-0.0418087 -0.00511642 0)
(-0.0406711 -0.00544292 0)
(-0.0394652 -0.00574911 0)
(-0.0381954 -0.00603345 0)
(-0.0368666 -0.00629446 0)
(-0.0354838 -0.00653066 0)
(-0.0340524 -0.00674065 0)
(-0.0325779 -0.00692305 0)
(-0.0310664 -0.00707657 0)
(-0.0295241 -0.00719997 0)
(-0.0279571 -0.00729213 0)
(-0.0263724 -0.00735197 0)
(-0.0247765 -0.00737855 0)
(-0.0231764 -0.00737105 0)
(-0.0215793 -0.00732876 0)
(-0.0199924 -0.00725114 0)
(-0.0184229 -0.00713781 0)
(-0.0168781 -0.00698858 0)
(-0.0153653 -0.00680347 0)
(-0.0138916 -0.00658275 0)
(-0.0124642 -0.00632695 0)
(-0.01109 -0.00603691 0)
(-0.00977553 -0.00571385 0)
(-0.00852727 -0.00535937 0)
(-0.0073511 -0.00497559 0)
(-0.0062525 -0.00456515 0)
(-0.00523635 -0.00413139 0)
(-0.00430685 -0.0036784 0)
(-0.0034674 -0.00321124 0)
(-0.00272053 -0.00273604 0)
(-0.00206774 -0.00226028 0)
(-0.00150939 -0.00179303 0)
(-0.00104462 -0.00134523 0)
(-0.000671283 -0.000930098 0)
(-0.000385678 -0.000563567 0)
(-0.000182379 -0.000264661 0)
(-5.65373e-05 -5.60797e-05 0)
(-6.27725e-06 3.32988e-05 0)
(-1.05669e-05 1.68842e-05 0)
(-8.34767e-05 0.000211224 0)
(-0.000256524 0.000527641 0)
(-0.000525524 0.000936197 0)
(-0.000891663 0.00141265 0)
(-0.00135817 0.0019364 0)
(-0.0019267 0.00249013 0)
(-0.00259761 0.00305941 0)
(-0.00337018 0.00363228 0)
(-0.00424265 0.00419887 0)
(-0.00521231 0.00475109 0)
(-0.00627557 0.00528235 0)
(-0.00742805 0.00578732 0)
(-0.00866471 0.00626175 0)
(-0.00997993 0.00670226 0)
(-0.0113676 0.00710625 0)
(-0.0128212 0.00747175 0)
(-0.0143339 0.00779734 0)
(-0.0158987 0.00808204 0)
(-0.0175082 0.00832526 0)
(-0.0191552 0.00852676 0)
(-0.0208322 0.00868655 0)
(-0.0225317 0.00880489 0)
(-0.0242464 0.00888225 0)
(-0.0259687 0.00891926 0)
(-0.0276916 0.00891669 0)
(-0.0294078 0.00887546 0)
(-0.0311103 0.00879658 0)
(-0.0327923 0.00868116 0)
(-0.0344472 0.00853038 0)
(-0.0360685 0.0083455 0)
(-0.0376499 0.00812782 0)
(-0.0391856 0.00787871 0)
(-0.0406698 0.00759958 0)
(-0.042097 0.00729187 0)
(-0.043462 0.00695706 0)
(-0.0447599 0.00659665 0)
(-0.0459859 0.00621218 0)
(-0.0471358 0.00580522 0)
(-0.0482054 0.00537735 0)
(-0.049191 0.00493017 0)
(-0.0500891 0.00446533 0)
(-0.0508966 0.00398446 0)
(-0.0516105 0.00348926 0)
(-0.0522284 0.0029814 0)
(-0.052748 0.0024626 0)
(-0.0531675 0.00193462 0)
(-0.0534853 0.00139919 0)
(-0.0537002 0.00085812 0)
(-0.0538113 0.000313197 0)
(-0.0538181 -0.000233752 0)
(-0.0537204 -0.00078088 0)
(-0.0535183 -0.00132632 0)
(-0.0532125 -0.00186819 0)
(-0.0528037 -0.00240459 0)
(-0.0522931 -0.00293361 0)
(-0.0516824 -0.0034533 0)
(-0.0509736 -0.00396174 0)
(-0.0501689 -0.00445697 0)
(-0.049271 -0.00493706 0)
(-0.0482829 -0.00540004 0)
(-0.0472081 -0.00584397 0)
(-0.0460504 -0.00626693 0)
(-0.0448137 -0.00666699 0)
(-0.0435026 -0.00704228 0)
(-0.0421219 -0.00739092 0)
(-0.0406768 -0.00771111 0)
(-0.0391726 -0.00800106 0)
(-0.0376151 -0.00825907 0)
(-0.0360105 -0.00848349 0)
(-0.0343651 -0.00867275 0)
(-0.0326855 -0.00882538 0)
(-0.0309785 -0.00893999 0)
(-0.0292514 -0.00901534 0)
(-0.0275113 -0.00905029 0)
(-0.0257657 -0.00904385 0)
(-0.0240223 -0.00899523 0)
(-0.0222888 -0.00890377 0)
(-0.0205728 -0.00876907 0)
(-0.0188823 -0.00859092 0)
(-0.017225 -0.0083694 0)
(-0.0156086 -0.00810487 0)
(-0.0140407 -0.00779802 0)
(-0.0125286 -0.00744991 0)
(-0.0110795 -0.00706205 0)
(-0.00970012 -0.00663641 0)
(-0.00839691 -0.00617554 0)
(-0.00717574 -0.00568265 0)
(-0.00604191 -0.00516168 0)
(-0.00500005 -0.00461747 0)
(-0.00405403 -0.0040559 0)
(-0.00320684 -0.00348406 0)
(-0.00246052 -0.00291046 0)
(-0.00181604 -0.0023453 0)
(-0.00127328 -0.00180075 0)
(-0.000830976 -0.00129128 0)
(-0.000486496 -0.00083411 0)
(-0.000235631 -0.000449512 0)
(-7.58332e-05 -0.000161319 0)
(-9.34255e-06 6.85759e-07 0)
(-1.36312e-05 6.33365e-05 0)
(-0.000103085 0.000353796 0)
(-0.000311047 0.000769733 0)
(-0.000629173 0.00128078 0)
(-0.00105622 0.00186196 0)
(-0.00159403 0.00249181 0)
(-0.00224306 0.00315201 0)
(-0.00300259 0.00382714 0)
(-0.003871 0.00450423 0)
(-0.00484579 0.00517248 0)
(-0.0059236 0.00582291 0)
(-0.00710026 0.00644815 0)
(-0.00837088 0.00704215 0)
(-0.00972994 0.00760004 0)
(-0.0111714 0.00811794 0)
(-0.0126886 0.00859279 0)
(-0.0142747 0.00902227 0)
(-0.0159223 0.00940466 0)
(-0.0176241 0.00973879 0)
(-0.0193723 0.0100239 0)
(-0.0211591 0.0102597 0)
(-0.0229767 0.0104461 0)
(-0.024817 0.0105833 0)
(-0.0266723 0.010672 0)
(-0.0285348 0.0107128 0)
(-0.0303967 0.0107065 0)
(-0.0322504 0.0106543 0)
(-0.0340884 0.0105573 0)
(-0.0359037 0.0104167 0)
(-0.0376889 0.0102341 0)
(-0.0394374 0.0100108 0)
(-0.0411425 0.00974844 0)
(-0.0427978 0.00944857 0)
(-0.0443972 0.00911289 0)
(-0.0459349 0.00874309 0)
(-0.0474053 0.00834094 0)
(-0.0488031 0.00790823 0)
(-0.0501235 0.00744679 0)
(-0.0513616 0.00695848 0)
(-0.0525132 0.0064452 0)
(-0.0535743 0.00590886 0)
(-0.054541 0.00535142 0)
(-0.0554102 0.00477484 0)
(-0.0561786 0.00418114 0)
(-0.0568436 0.00357233 0)
(-0.0574029 0.00295047 0)
(-0.0578544 0.00231763 0)
(-0.0581965 0.00167594 0)
(-0.0584279 0.00102751 0)
(-0.0585477 0.000374496 0)
(-0.0585552 -0.000280911 0)
(-0.0584503 -0.000936509 0)
(-0.0582332 -0.00159007 0)
(-0.0579044 -0.00223934 0)
(-0.0574648 -0.00288205 0)
(-0.0569158 -0.00351591 0)
(-0.056259 -0.00413862 0)
(-0.0554966 -0.00474787 0)
(-0.054631 -0.00534133 0)
(-0.053665 -0.00591667 0)
(-0.052602 -0.00647159 0)
(-0.0514454 -0.00700375 0)
(-0.0501994 -0.00751087 0)
(-0.0488684 -0.00799066 0)
(-0.047457 -0.00844089 0)
(-0.0459704 -0.00885933 0)
(-0.044414 -0.00924384 0)
(-0.0427937 -0.00959231 0)
(-0.0411156 -0.00990271 0)
(-0.0393862 -0.0101731 0)
(-0.0376122 -0.0104016 0)
(-0.0358007 -0.0105865 0)
(-0.0339591 -0.0107262 0)