/*--------------------------------*- C++ -*----------------------------------*\
  =========                 |
  \\      /  F ield         | OpenFOAM: The Open Source CFD Toolbox
   \\    /   O peration     | Website:  https://openfoam.org
    \\  /    A nd           | Version:  11
     \\/     M anipulation  |
\*---------------------------------------------------------------------------*/
FoamFile
{
    format      ascii;
    class       volScalarField;
    location    "4.8";
    object      p;
}
// * * * * * * * * * * * * * * * * * * * * * * * * * * * * * * * * * * * * * //

dimensions      [0 2 -2 0 0 0 0];

internalField   nonuniform List<scalar> 
10100
(
-1.52314e-08
0.000100018
-8.93723e-05
-0.000648279
-0.00152912
-0.00266207
-0.00397964
-0.00542081
-0.00693606
-0.00848418
-0.0100289
-0.0115396
-0.0129901
-0.0143582
-0.0156262
-0.0167797
-0.0178047
-0.0186912
-0.0194311
-0.0200162
-0.0204405
-0.0206991
-0.0207877
-0.0207031
-0.0204444
-0.020012
-0.0194065
-0.0186291
-0.0176816
-0.0165666
-0.0152877
-0.0138495
-0.0122571
-0.0105155
-0.00862987
-0.00660631
-0.00445144
-0.0021725
0.000223038
0.00272736
0.00533268
0.00803141
0.0108151
0.0136745
0.0166
0.0195822
0.022612
0.0256797
0.0287752
0.0318886
0.0350102
0.03813
0.0412378
0.0443231
0.0473756
0.0503857
0.0533441
0.0562412
0.059067
0.0618115
0.0644656
0.0670203
0.0694665
0.0717952
0.073998
0.076067
0.0779949
0.0797749
0.0813999
0.0828634
0.0841599
0.0852856
0.0862376
0.0870133
0.0876104
0.0880278
0.088266
0.0883262
0.0882107
0.0879228
0.0874676
0.0868514
0.0860823
0.0851701
0.084126
0.0829627
0.0816948
0.0803393
0.0789166
0.077451
0.07597
0.074504
0.073087
0.0717572
0.0705588
0.0695408
0.0687537
0.0682462
0.0680597
0.06815
-5.79677e-05
-2.22561e-05
-0.000252881
-0.000778547
-0.00155256
-0.00252919
-0.00366137
-0.0049039
-0.00621658
-0.00756458
-0.00891655
-0.0102449
-0.0115249
-0.0127358
-0.0138604
-0.0148836
-0.0157928
-0.0165779
-0.0172295
-0.01774
-0.0181031
-0.0183135
-0.0183668
-0.0182596
-0.0179898
-0.0175571
-0.016962
-0.0162056
-0.0152898
-0.0142167
-0.0129893
-0.0116114
-0.0100875
-0.00842248
-0.00662145
-0.00469011
-0.00263445
-0.00046086
0.00182341
0.00421073
0.00669377
0.00926521
0.0119172
0.014641
0.0174277
0.0202682
0.0231539
0.0260752
0.0290225
0.0319869
0.0349593
0.03793
0.0408889
0.0438262
0.046732
0.0495974
0.0524137
0.0551716
0.0578614
0.060474
0.063001
0.0654337
0.067763
0.0699807
0.0720794
0.0740518
0.075891
0.0775904
0.0791436
0.0805444
0.081788
0.0828713
0.0837918
0.0845472
0.0851355
0.0855558
0.085809
0.0858969
0.085822
0.0855875
0.0851985
0.0846617
0.0839854
0.0831793
0.0822543
0.0812226
0.0800982
0.0788975
0.0776401
0.0763487
0.0750485
0.0737668
0.0725333
0.071381
0.0703466
0.0694693
0.0687864
0.0683319
0.0681489
0.0682383
0.000166225
0.000143811
-0.00012367
-0.000640576
-0.00135801
-0.00224019
-0.00325411
-0.00436379
-0.00553673
-0.0067426
-0.00795455
-0.00914753
-0.0102995
-0.0113913
-0.0124053
-0.0133277
-0.0141468
-0.0148517
-0.0154341
-0.0158858
-0.0161995
-0.0163707
-0.0163952
-0.0162691
-0.0159903
-0.0155576
-0.014971
-0.0142316
-0.0133411
-0.0123016
-0.0111157
-0.00978684
-0.00831881
-0.00671613
-0.00498395
-0.00312773
-0.00115304
0.000934238
0.00312735
0.005419
0.00780222
0.0102699
0.0128142
0.015427
0.0181001
0.020825
0.0235928
0.0263945
0.0292209
0.0320637
0.0349144
0.0377636
0.040601
0.0434173
0.0462037
0.0489516
0.0516524
0.0542971
0.0568766
0.0593823
0.0618062
0.06414
0.066375
0.0685032
0.070518
0.0724127
0.0741807
0.0758155
0.0773108
0.0786612
0.0798624
0.0809118
0.0818072
0.0825463
0.0831272
0.0835497
0.0838149
0.0839248
0.0838816
0.0836888
0.0833513
0.0828761
0.0822716
0.0815473
0.0807137
0.0797822
0.0787661
0.0776813
0.0765463
0.0753823
0.0742121
0.0730602
0.0719526
0.0709183
0.069989
0.0691976
0.0685745
0.0681478
0.0679648
0.0680502
0.000662142
0.000555757
0.000237884
-0.00028962
-0.000984806
-0.00181584
-0.00275763
-0.0037808
-0.00485786
-0.00596403
-0.00707425
-0.00816677
-0.00922205
-0.0102215
-0.0111499
-0.0119935
-0.0127405
-0.0133815
-0.0139077
-0.0143114
-0.0145854
-0.0147243
-0.0147241
-0.0145818
-0.0142951
-0.0138623
-0.0132831
-0.0125583
-0.0116892
-0.0106777
-0.00952657
-0.00823902
-0.00681836
-0.00526868
-0.0035949
-0.00180219
0.000103973
0.00211778
0.00423303
0.00644317
0.00874151
0.011121
0.0135737
0.0160921
0.0186684
0.0212947
0.0239621
0.0266619
0.0293856
0.0321254
0.0348728
0.0376184
0.0403525
0.0430664
0.0457518
0.0484003
0.0510037
0.0535529
0.0560392
0.0584548
0.0607922
0.063043
0.0651986
0.067252
0.0691969
0.0710269
0.0727354
0.0743159
0.0757628
0.0770713
0.0782376
0.0792589
0.0801332
0.0808584
0.081433
0.0818569
0.0821317
0.0822591
0.0822412
0.0820813
0.0817845
0.0813579
0.0808099
0.0801496
0.0793868
0.0785323
0.0775988
0.0766012
0.0755571
0.074486
0.0734084
0.072346
0.071322
0.0703623
0.0694948
0.068748
0.0681484
0.0677214
0.0675108
0.0675445
0.00138543
0.00116723
0.000781756
0.000227429
-0.000465056
-0.00127102
-0.00216719
-0.00313046
-0.00413765
-0.00516698
-0.00619774
-0.0072096
-0.00818513
-0.00910832
-0.00996451
-0.0107412
-0.0114266
-0.0120117
-0.0124886
-0.0128497
-0.0130884
-0.013199
-0.0131774
-0.0130207
-0.0127264
-0.0122933
-0.011721
-0.0110097
-0.0101604
-0.0091749
-0.00805581
-0.00680611
-0.00542912
-0.00392869
-0.00230916
-0.000575341
0.00126742
0.00321331
0.00525641
0.00739083
0.00961026
0.0119076
0.0142753
0.0167063
0.0191929
0.0217273
0.0243011
0.0269063
0.0295348
0.0321791
0.0348307
0.03748
0.0401182
0.0427374
0.0453295
0.0478861
0.0503991
0.0528601
0.0552608
0.0575937
0.0598513
0.0620256
0.0641084
0.0660932
0.0679742
0.069745
0.0713989
0.0729298
0.0743325
0.0756028
0.0767371
0.0777329
0.0785879
0.0793
0.0798682
0.0802931
0.0805759
0.0807183
0.0807221
0.0805904
0.0803287
0.079944
0.0794446
0.0788389
0.078136
0.077346
0.0764809
0.0755551
0.0745845
0.073587
0.0725809
0.0715855
0.0706215
0.0697117
0.0688806
0.0681529
0.0675516
0.0670996
0.0668297
0.0667622
0.00230667
0.00195479
0.00148555
0.000888814
0.000178462
-0.000622335
-0.00149672
-0.00242348
-0.00338306
-0.00435743
-0.00532835
-0.00627849
-0.0071915
-0.00805305
-0.00885033
-0.0095717
-0.0102061
-0.0107439
-0.0111787
-0.0115032
-0.0117111
-0.0117972
-0.0117574
-0.0115886
-0.0112883
-0.0108552
-0.0102892
-0.00959017
-0.00875911
-0.00779764
-0.00670797
-0.00549283
-0.00415567
-0.00270025
-0.00113048
0.000549163
0.00233346
0.00421702
0.00619428
0.00825935
0.0104061
0.0126277
0.0149172
0.0172678
0.0196721
0.0221218
0.0246095
0.0271276
0.0296687
0.032225
0.0347882
0.037349
0.0398993
0.0424316
0.0449381
0.0474104
0.0498406
0.0522209
0.0545434
0.0568007
0.0589855
0.06109
0.0631065
0.065029
0.0668519
0.0685689
0.0701732
0.071659
0.0730217
0.0742576
0.0753633
0.0763358
0.0771729
0.0778728
0.078435
0.0788601
0.0791494
0.0793041
0.0793258
0.0792179
0.0789858
0.0786367
0.0781781
0.0776177
0.0769638
0.0762263
0.0754163
0.0745473
0.0736338
0.0726919
0.0717378
0.0707889
0.0698637
0.068982
0.0681649
0.0674335
0.0668081
0.0663085
0.0659528
0.0657488
0.00339355
0.00289327
0.00232487
0.00166919
0.000923775
0.000107331
-0.000764206
-0.00167482
-0.0026074
-0.00354599
-0.00447578
-0.00538146
-0.006248
-0.00706249
-0.00781367
-0.00849043
-0.0090834
-0.00958345
-0.00998341
-0.0102774
-0.0104596
-0.010525
-0.0104699
-0.0102911
-0.00998619
-0.00955399
-0.00899394
-0.00830617
-0.00749165
-0.00655193
-0.00548894
-0.00430525
-0.00300408
-0.00158911
-6.419e-05
0.00156632
0.00329754
0.00512458
0.00704227
0.00904463
0.0111254
0.0132784
0.0154971
0.0177746
0.0201038
0.0224767
0.0248863
0.0273256
0.0297872
0.0322635
0.0347461
0.0372265
0.0396972
0.042151
0.0445799
0.0469757
0.0493309
0.0516384
0.0538903
0.0560794
0.0581984
0.0602399
0.0621969
0.0640636
0.0658345
0.067503
0.0690626
0.070508
0.0718353
0.0730408
0.0741209
0.0750724
0.0758931
0.0765818
0.0771382
0.077563
0.0778571
0.0780214
0.0780576
0.077969
0.0777613
0.0774412
0.0770156
0.0764914
0.0758761
0.0751791
0.0744112
0.0735846
0.0727126
0.0718092
0.0708892
0.069968
0.069062
0.0681885
0.0673653
0.0666103
0.065941
0.0653749
0.0649134
0.0645501
0.0046116
0.00395275
0.00327435
0.00254585
0.00174892
0.000900401
1.39054e-05
-0.000897779
-0.00182047
-0.0027406
-0.00364531
-0.00452124
-0.00535567
-0.00613648
-0.00685278
-0.00749546
-0.00805556
-0.00852542
-0.00889782
-0.00916721
-0.00932854
-0.00937726
-0.00930966
-0.00912277
-0.00881461
-0.00838386
-0.00782978
-0.00715247
-0.00635297
-0.00543276
-0.00439371
-0.00323833
-0.00196965
-0.000591063
0.000893593
0.00248001
0.00416362
0.00593986
0.00780376
0.0097495
0.011771
0.0138623
0.0160171
0.0182288
0.02049
0.0227934
0.0251327
0.0275011
0.029891
0.0322948
0.0347046
0.0371125
0.0395115
0.0418944
0.0442533
0.0465801
0.048868
0.0511101
0.0532987
0.0554264
0.0574862
0.0594712
0.061375
0.063192
0.0649162
0.0665413
0.068061
0.0694708
0.0707669
0.0719455
0.0730027
0.0739353
0.0747413
0.0754197
0.0759706
0.0763944
0.0766917
0.0768633
0.0769107
0.0768376
0.0766494
0.0763524
0.0759525
0.0754558
0.0748696
0.0742025
0.0734649
0.0726678
0.0718232
0.0709435
0.0700418
0.0691318
0.068228
0.0673456
0.0664994
0.0657041
0.0649752
0.0643277
0.0637461
0.0632097
0.00592688
0.00510278
0.00430621
0.00349525
0.00263374
0.00173895
0.000822617
-0.000105067
-0.00103302
-0.00194938
-0.00284282
-0.00370247
-0.00451695
-0.00527515
-0.00596713
-0.00658523
-0.00712098
-0.00756733
-0.00791836
-0.00816871
-0.00831381
-0.00834951
-0.00827218
-0.00807931
-0.00776909
-0.00734016
-0.00679184
-0.00612438
-0.00533862
-0.00443585
-0.00341811
-0.00228799
-0.00104831
0.000297699
0.00174627
0.00329332
0.0049346
0.00666566
0.00848143
0.0103763
0.0123448
0.0143811
0.0164789
0.0186313
0.0208316
0.0230731
0.0253496
0.0276544
0.0299798
0.0323185
0.0346631
0.0370064
0.0393413
0.0416607
0.0439567
0.0462218
0.0484497
0.0506335
0.0527654
0.0548382
0.0568452
0.0587801
0.0606368
0.0624095
0.0640923
0.0656787
0.0671632
0.0685417
0.0698105
0.0709655
0.0720023
0.072918
0.0737108
0.0743801
0.0749259
0.075348
0.0756471
0.0758237
0.0758797
0.0758186
0.0756454
0.0753657
0.0749846
0.0745078
0.0739419
0.0732953
0.0725775
0.0717985
0.0709689
0.0700997
0.0692025
0.0682896
0.0673736
0.0664677
0.0655844
0.0647352
0.063934
0.063194
0.0624829
0.061766
0.00730963
0.00631577
0.00539497
0.0044931
0.00355838
0.00260559
0.00164723
0.00069071
-0.000255398
-0.00118052
-0.00207517
-0.00293011
-0.0037352
-0.00448061
-0.00515793
-0.00575936
-0.00627843
-0.00670824
-0.00704352
-0.00727981
-0.00741282
-0.00743871
-0.00735436
-0.00715755
-0.00684644
-0.00641974
-0.005877
-0.00521857
-0.00444522
-0.00355817
-0.00255938
-0.0014515
-0.00023742
0.00107961
0.00249615
0.00400844
0.00561231
0.00730328
0.00907642
0.0109264
0.012848
0.0148356
0.0168826
0.0189825
0.0211289
0.0233156
0.0255366
0.027785
0.0300531
0.0323339
0.034621
0.0369072
0.0391853
0.0414482
0.0436885
0.0458992
0.0480741
0.0502063
0.0522881
0.0543123
0.0562729
0.0581639
0.0599793
0.061713
0.0633591
0.0649116
0.0663655
0.0677169
0.068962
0.0700962
0.0711151
0.0720158
0.0727971
0.0734584
0.0739993
0.0744194
0.0747189
0.0748988
0.0749608
0.0749084
0.0747459
0.0744781
0.0741096
0.0736455
0.0730924
0.0724579
0.0717507
0.0709798
0.0701542
0.0692838
0.068379
0.0674508
0.0665104
0.065569
0.0646367
0.0637227
0.0628394
0.0619988
0.0611523
0.0602517
0.0087346
0.00756814
0.006518
0.00551923
0.00450326
0.00348417
0.00247324
0.00147695
0.000502383
-0.00044257
-0.00134916
-0.0022091
-0.00301417
-0.00375575
-0.00442653
-0.00501904
-0.00552774
-0.00594723
-0.00627237
-0.00649912
-0.00662375
-0.00664281
-0.00655389
-0.00635494
-0.00604395
-0.00561986
-0.00508262
-0.00443252
-0.00367019
-0.00279698
-0.001815
-0.00072682
0.00046478
0.00175655
0.0031451
0.00462691
0.00619793
0.00785367
0.00958949
0.0114003
0.013281
0.0152258
0.0172282
0.0192821
0.0213816
0.0235206
0.025693
0.0278917
0.0301095
0.03234
0.034577
0.0368133
0.0390417
0.0412552
0.0434469
0.0456103
0.0477392
0.0498264
0.0518643
0.0538463
0.0557669
0.0576202
0.0593998
0.0610995
0.0627138
0.0642371
0.0656649
0.0669932
0.0682178
0.069334
0.0703372
0.0712251
0.0719965
0.0726508
0.0731871
0.0736047
0.0739038
0.0740853
0.0741512
0.0741043
0.0739485
0.0736877
0.0733261
0.0728686
0.0723213
0.0716916
0.0709871
0.0702153
0.069384
0.0685021
0.0675792
0.0666252
0.0656501
0.064663
0.063672
0.0626842
0.0617114
0.0607644
0.0597793
0.0586951
0.0101782
0.00883825
0.007656
0.00655493
0.00545159
0.00435867
0.00328724
0.00224252
0.00122988
0.000256038
-0.000671278
-0.00154501
-0.00235831
-0.00310395
-0.00377492
-0.0043656
-0.00487014
-0.00528451
-0.00560445
-0.00582578
-0.00594536
-0.00596065
-0.00586943
-0.00566955
-0.00535951
-0.00493864
-0.00440679
-0.00376414
-0.0030115
-0.00215048
-0.00118322
-0.000112227
0.00105978
0.00232969
0.00369417
0.00514967
0.00669217
0.00831742
0.0100211
0.0117983
0.0136437
0.0155513
0.0175151
0.0195295
0.0215888
0.0236868
0.0258171
0.0279729
0.0301476
0.0323351
0.0345292
0.0367226
0.0389082
0.0410794
0.0432297
0.0453528
0.0474423
0.0494909
0.0514915
0.0534379
0.0553248
0.0571462
0.0588954
0.0605663
0.0621536
0.0636526
0.0650586
0.0663674
0.0675747
0.0686755
0.0696656
0.0705429
0.0713062
0.0719544
0.0724864
0.0729012
0.0731991
0.0733809
0.0734486
0.0734044
0.0732516
0.0729934
0.0726338
0.0721774
0.0716302
0.0709988
0.0702896
0.0695089
0.0686635
0.0677613
0.0668113
0.0658227
0.0648042
0.063763
0.0627053
0.0616366
0.0605686
0.0595115
0.0583863
0.0571203
0.011619
0.0101069
0.00879078
0.00758331
0.00638754
0.00521482
0.00407642
0.00297599
0.00191755
0.000907368
-4.82809e-05
-0.000943501
-0.00177232
-0.0025288
-0.00320647
-0.00380084
-0.00430718
-0.00472139
-0.00503999
-0.00525957
-0.00537744
-0.0053916
-0.00529986
-0.00510034
-0.00479207
-0.00437472
-0.003848
-0.003212
-0.00246787
-0.00161744
-0.000662882
0.000393407
0.00154873
0.00280005
0.00414404
0.00557711
0.00709539
0.00869493
0.0103715
0.0121202
0.0139354
0.0158115
0.0177427
0.0197239
0.0217494
0.0238126
0.0259072
0.028027
0.0301656
0.0323173
0.0344754
0.0366327
0.0387824
0.0409184
0.0430345
0.045124
0.0471806
0.0491973
0.0511672
0.0530845
0.054944
0.0567392
0.0584634
0.0601106
0.0616761
0.0631554
0.0645439
0.065837
0.06703
0.0681181
0.0690977
0.0699666
0.0707234
0.0713667
0.0718946
0.0723065
0.0726026
0.0727838
0.0728515
0.0728075
0.0726543
0.0723949
0.0720331
0.0715733
0.071021
0.070382
0.0696615
0.0688649
0.067998
0.0670682
0.0660838
0.0650532
0.0639838
0.0628812
0.0617503
0.0605954
0.0594281
0.0582583
0.0569931
0.0555482
0.0130389
0.011356
0.00990527
0.00858953
0.00729693
0.00603953
0.00482831
0.00366614
0.0025562
0.00150325
0.000512557
-0.000410594
-0.00126118
-0.00203402
-0.00272457
-0.0033279
-0.00384073
-0.00425924
-0.00458016
-0.00480123
-0.00492037
-0.0049355
-0.00484464
-0.0046467
-0.00434112
-0.00392738
-0.00340517
-0.00277503
-0.00203839
-0.00119709
-0.000253171
0.000790963
0.00193254
0.0031684
0.00449525
0.0059097
0.0074081
0.00898661
0.0106409
0.0123658
0.014156
0.016006
0.0179108
0.0198649
0.0218624
0.0238968
0.0259621
0.0280526
0.0301621
0.0322846
0.0344133
0.0365413
0.0386621
0.0407701
0.0428587
0.0449214
0.0469516
0.0489429
0.0508888
0.0527836
0.0546217
0.0563964
0.0581009
0.0597298
0.0612787
0.0627432
0.0641183
0.0653992
0.0665811
0.0676596
0.0686314
0.0694942
0.0702462
0.0708853
0.0714097
0.0718187
0.0721128
0.0722926
0.0723589
0.0723128
0.0721563
0.0718925
0.0715249
0.0710577
0.0704958
0.0698439
0.0691062
0.0682874
0.0673929
0.0664294
0.0654047
0.0643259
0.0631991
0.0620291
0.0608196
0.0595743
0.0583049
0.0570212
0.0556166
0.0539959
0.0144217
0.012569
0.0109843
0.00955843
0.00816641
0.00682035
0.00553173
0.00430296
0.00313634
0.00203521
0.0010041
4.75813e-05
-0.000830232
-0.00162472
-0.00233269
-0.0029501
-0.00347337
-0.00389961
-0.00422653
-0.00445226
-0.00457487
-0.00459247
-0.00450395
-0.00430881
-0.00400639
-0.003596
-0.00307774
-0.00245273
-0.00172253
-0.000888702
4.67614e-05
0.00108125
0.00221182
0.00343525
0.00474841
0.00614818
0.00763102
0.00919293
0.0108294
0.0125353
0.0143055
0.0161353
0.0180192
0.0199518
0.0219269
0.0239385
0.025981
0.0280488
0.0301357
0.0322354
0.0343413
0.0364467
0.0385457
0.0406324
0.0427003
0.0447424
0.0467529
0.0487255
0.0506541
0.0525327
0.0543553
0.0561151
0.0578055
0.0594216
0.0609592
0.0624135
0.0637793
0.0650516
0.0662259
0.0672981
0.0682649
0.0691238
0.0698725
0.0705084
0.0710299
0.0714364
0.0717284
0.0719062
0.0719699
0.0719199
0.0717579
0.0714869
0.0711104
0.0706324
0.0700566
0.0693869
0.068627
0.0677808
0.0668535
0.0658514
0.0647811
0.0636486
0.062459
0.0612165
0.0599243
0.0585854
0.0572118
0.0558134
0.0542705
0.0524773
0.0157527
0.0137324
0.0120129
0.0104759
0.00898284
0.00754525
0.00617607
0.00487674
0.00364876
0.00249497
0.00141909
0.000424642
-0.000484898
-0.00130628
-0.00203569
-0.00267072
-0.00320807
-0.00364543
-0.00398137
-0.00421413
-0.0043419
-0.00436355
-0.0042788
-0.0040872
-0.00378786
-0.00338047
-0.00286583
-0.00224523
-0.00152002
-0.000691713
0.000237494
0.00126471
0.00238693
0.00360108
0.00490423
0.00629334
0.00776474
0.00931419
0.0109372
0.0126289
0.0143846
0.0161995
0.018068
0.0199844
0.0219428
0.0239377
0.0259636
0.028015
0.0300855
0.0321687
0.0342582
0.0363478
0.0384317
0.0405038
0.0425572
0.0445854
0.0465827
0.0485434
0.0504612
0.0523297
0.0541424
0.0558929
0.057575
0.059184
0.0607154
0.0621642
0.0635248
0.0647924
0.0659629
0.0670322
0.067997
0.0688541
0.0696009
0.0702349
0.0707544
0.071159
0.0714491
0.0716245
0.0716846
0.0716292
0.07146
0.0711797
0.0707917
0.0702993
0.0697058
0.0690141
0.0682275
0.0673497
0.0663853
0.0653401
0.0642196
0.0630288
0.061772
0.0604529
0.0590745
0.0576396
0.0561603
0.0546468
0.0529666
0.0510042
0.0170199
0.0148333
0.0129788
0.0113294
0.00973374
0.00820312
0.00675045
0.00537728
0.00408457
0.00287451
0.00174985
0.00071343
-0.000231736
-0.00108351
-0.00183846
-0.00249415
-0.00304864
-0.00350027
-0.00384749
-0.00408886
-0.00422332
-0.00425067
-0.0041707
-0.0039827
-0.00368618
-0.00328163
-0.00277022
-0.00215296
-0.00143098
-0.00060612
0.000318959
0.00134126
0.00245796
0.00366624
0.00496318
0.00634553
0.00780937
0.00935048
0.0109646
0.0126473
0.0143937
0.0161989
0.018057
0.0199626
0.0219102
0.0238944
0.0259099
0.0279509
0.0300109
0.0320837
0.0341635
0.0362439
0.0383191
0.0403828
0.0424281
0.0444488
0.0464397
0.0483951
0.0503082
0.0521723
0.053981
0.055728
0.0574076
0.0590151
0.0605455
0.0619934
0.0633531
0.0646201
0.0657907
0.0668608
0.0678264
0.068684
0.0694307
0.0700642
0.070583
0.0709868
0.0712755
0.0714482
0.0715039
0.0714421
0.0712642
0.0709729
0.0705711
0.0700615
0.0694467
0.0687293
0.0679124
0.0669994
0.0659943
0.064902
0.0637272
0.062474
0.0611462
0.0597472
0.05828
0.0567469
0.0551607
0.0535316
0.0517152
0.0495864
0.0182105
0.0158591
0.0138705
0.0121077
0.010408
0.00878273
0.00724463
0.00579514
0.00443483
0.00316532
0.00198862
0.000906959
-7.76135e-05
-0.000962384
-0.00174568
-0.00242515
-0.00299961
-0.00346768
-0.00382779
-0.00407926
-0.00422204
-0.00425622
-0.00418126
-0.0039967
-0.00370297
-0.00330113
-0.00279209
-0.00217655
-0.00145592
-0.000632625
0.000290397
0.00131036
0.00242477
0.00363079
0.00492517
0.00630441
0.00776457
0.00930171
0.0109119
0.0125906
0.0143328
0.0161332
0.0179862
0.0198865
0.0218292
0.0238087
0.0258197
0.027856
0.0299115
0.0319803
0.0340567
0.0361344
0.0382071
0.0402684
0.0423119
0.0443318
0.0463229
0.0482791
0.0501933
0.0520587
0.0538692
0.0556187
0.0573017
0.058913
0.0604473
0.0618989
0.0632623
0.0645333
0.0657082
0.0667827
0.0677522
0.0686127
0.0693615
0.0699964
0.0705163
0.0709205
0.0712084
0.0713785
0.0714292
0.0713602
0.0711727
0.070869
0.0704515
0.0699222
0.0692832
0.0685372
0.0676869
0.0667354
0.0656863
0.0645434
0.0633106
0.0619916
0.0605896
0.0591081
0.0575497
0.0559168
0.0542226
0.0524775
0.0505258
0.0482329
0.0193125
0.0167991
0.014677
0.0128002
0.0109955
0.00927406
0.0076491
0.00612127
0.00469097
0.00335932
0.00212771
0.000998037
-2.83202e-05
-0.000949053
-0.00176298
-0.00246882
-0.00306532
-0.00355116
-0.00392561
-0.00418887
-0.00434126
-0.00438253
-0.0043124
-0.00413139
-0.00384062
-0.00344089
-0.0029327
-0.00231708
-0.00159616
-0.000772693
0.000150632
0.00117134
0.00228687
0.00349404
0.00478926
0.00616901
0.00762966
0.00916754
0.0107787
0.0124583
0.0142011
0.0160017
0.0178549
0.0197559
0.0216995
0.0236801
0.0256921
0.0277296
0.0297868
0.031858
0.0339374
0.0360183
0.0380944
0.0401596
0.0422078
0.0442333
0.0462308
0.0481936
0.0501145
0.051987
0.0538052
0.0555633
0.0572553
0.0588756
0.0604187
0.0618787
0.0632506
0.0645303
0.0657138
0.0667963
0.0677729
0.0686393
0.0693928
0.0700316
0.0705545
0.0709605
0.0712484
0.0714161
0.071462
0.0713854
0.0711877
0.0708706
0.0704359
0.069885
0.0692196
0.0684423
0.0675558
0.0665631
0.0654669
0.0642702
0.0629763
0.0615885
0.0601098
0.0585435
0.0568921
0.0551579
0.0533545
0.0514931
0.0494065
0.0469515
0.0203167
0.0176426
0.0153879
0.0133973
0.0114868
0.00966797
0.00795459
0.0063467
0.00484445
0.00344849
0.00215977
0.000979597
-9.0276e-05
-0.00104944
-0.00189643
-0.00263038
-0.00325013
-0.00375503
-0.00414544
-0.00442177
-0.00458407
-0.00463229
-0.0045672
-0.00439008
-0.00410185
-0.00370285
-0.00319383
-0.00257666
-0.00185396
-0.00102822
-0.000101729
0.000922989
0.0020429
0.00325435
0.00455377
0.00593799
0.00740368
0.00894707
0.0105638
0.012249
0.0139972
0.0158034
0.0176626
0.01957
0.0215202
0.0235075
0.0255262
0.027571
0.0296361
0.0317159
0.0338042
0.0358943
0.03798
0.0400554
0.0421146
0.044152
0.0461617
0.0481368
0.0500701
0.0519555
0.0537874
0.0555599
0.0572663
0.0589007
0.0604574
0.0619309
0.0633163
0.0646094
0.0658056
0.0668999
0.067887
0.0687626
0.0695241
0.0701697
0.0706978
0.0711072
0.0713959
0.0715619
0.0716032
0.0715195
0.0713114
0.0709803
0.0705273
0.0699533
0.0692598
0.0684492
0.0675242
0.0664875
0.0653414
0.0640883
0.0627307
0.0612716
0.0597138
0.0580606
0.0563145
0.0544777
0.0525643
0.0505859
0.0483647
0.0457487
0.0212148
0.0183803
0.0159938
0.0138896
0.0118723
0.00995526
0.00815218
0.00646272
0.00488662
0.00342447
0.00207707
0.000844811
-0.00027104
-0.00127026
-0.00215192
-0.00291511
-0.00355932
-0.00408487
-0.00449236
-0.00478203
-0.0049541
-0.00500953
-0.0049499
-0.0047764
-0.00448941
-0.00408948
-0.0035783
-0.00295834
-0.00223198
-0.00140122
-0.000468414
0.000563343
0.00169049
0.00290937
0.00421676
0.00560984
0.00708516
0.00863856
0.0102654
0.0119607
0.0137196
0.0155369
0.0174079
0.0193273
0.0212896
0.0232892
0.0253207
0.027379
0.0294584
0.0315528
0.0336559
0.0357611
0.0378626
0.0399546
0.0420313
0.0440864
0.0461139
0.0481069
0.0500586
0.051963
0.0538144
0.0556067
0.0573328
0.0589863
0.0605617
0.0620538
0.0634577
0.0647689
0.0659822
0.0670922
0.0680935
0.068982
0.0697551
0.0704106
0.0709466
0.0713609
0.0716518
0.071817
0.0718548
0.0717645
0.0715464
0.0712011
0.0707291
0.070131
0.069408
0.0685625
0.0675971
0.0665143
0.0653159
0.0640039
0.0625803
0.0610475
0.0594086
0.0576669
0.0558246
0.0538837
0.051859
0.049763
0.0474069
0.0446306
0.0219986
0.0190043
0.0164857
0.0142677
0.0121434
0.0101271
0.00823317
0.00646086
0.00480953
0.0032798
0.00187191
0.000586173
-0.000577553
-0.00161808
-0.00253527
-0.00332881
-0.00399891
-0.00454619
-0.00497096
-0.00527378
-0.00545584
-0.00551897
-0.00546464
-0.00529348
-0.0050061
-0.00460402
-0.00408965
-0.00346524
-0.00273261
-0.00189378
-0.000951778
8.9654e-05
0.00122694
0.00245681
0.00377639
0.00518275
0.00667202
0.00823968
0.0098811
0.0115916
0.0133665
0.0152006
0.0170887
0.0190256
0.0210057
0.0230235
0.0250741
0.0271522
0.0292518
0.0313668
0.0334908
0.0356174
0.0377411
0.0398562
0.0419563
0.044035
0.046086
0.0481029
0.050079
0.0520084
0.0538852
0.0557027
0.0574535
0.0591314
0.0607308
0.0622468
0.0636742
0.065008
0.0662427
0.0673725
0.0683921
0.0692976
0.0700861
0.0707548
0.0713012
0.0717228
0.0720176
0.0721836
0.0722192
0.0721234
0.0718959
0.0715366
0.0710453
0.0704223
0.069669
0.0687875
0.0677803
0.0666496
0.065397
0.0640238
0.0625319
0.0609236
0.0592019
0.05737
0.05543
0.0533835
0.0512461
0.0490312
0.0465398
0.0436032
0.0226615
0.0195069
0.0168557
0.0145236
0.012292
0.0101752
0.00818933
0.00633317
0.00460563
0.00300706
0.00153718
0.000196251
-0.00101596
-0.00209886
-0.00305264
-0.00387771
-0.0045746
-0.00514367
-0.00558557
-0.00590177
-0.00609432
-0.00616497
-0.00611469
-0.00594429
-0.00565539
-0.00525031
-0.00473128
-0.00409993
-0.00335806
-0.00250844
-0.00155485
-0.000501093
0.000649721
0.00189469
0.00323076
0.00465452
0.00616175
0.00774792
0.00940873
0.0111397
0.012936
0.0147923
0.0167029
0.0186627
0.0206664
0.0227088
0.0247846
0.0268886
0.0290145
0.0311561
0.0333072
0.0354618
0.0376142
0.0397587
0.0418883
0.0439964
0.046077
0.0481239
0.0501306
0.0520911
0.0539989
0.0558469
0.057628
0.0593357
0.0609647
0.0625097
0.0639654
0.0653263
0.0665868
0.0677409
0.0687834
0.0697102
0.0705178
0.071203
0.0717626
0.072194
0.0724951
0.072664
0.0726991
0.0725992
0.0723632
0.0719903
0.0714797
0.0708317
0.0700476
0.0691295
0.0680797
0.0668998
0.0655911
0.0641548
0.0625925
0.0609068
0.0591006
0.0571771
0.0551378
0.052984
0.0507323
0.0483973
0.0457697
0.0426724
0.0231957
0.0198805
0.0170962
0.0146493
0.0123095
0.0100917
0.00801289
0.00607184
0.00426702
0.00259825
0.00106557
-0.000331619
-0.00159294
-0.00271918
-0.00371065
-0.00456793
-0.00529156
-0.00588221
-0.00634145
-0.00667148
-0.0068743
-0.00695124
-0.00690345
-0.00673275
-0.00644159
-0.00603216
-0.00550605
-0.00486487
-0.00411118
-0.00324857
-0.00228095
-0.00121162
-4.32852e-05
0.00122097
0.00257752
0.0040225
0.00555175
0.00716108
0.0088464
0.0106032
0.0124261
0.0143097
0.0162481
0.0182365
0.0202699
0.022343
0.0244503
0.0265861
0.0287443
0.0309187
0.0331035
0.0352927
0.0374805
0.0396604
0.0418256
0.0439694
0.0460859
0.0481692
0.0502129
0.0522104
0.0541549
0.056039
0.0578558
0.0595991
0.0612633
0.0628427
0.0643316
0.0657242
0.0670149
0.0681979
0.0692679
0.0702202
0.0710509
0.071756
0.072332
0.0727761
0.0730862
0.0732606
0.0732974
0.0731947
0.0729511
0.0725652
0.0720359
0.0713632
0.0705484
0.0695935
0.0685005
0.0672704
0.0659041
0.0644028
0.0627684
0.0610037
0.0591115
0.0570946
0.0549543
0.0526915
0.050324
0.0478675
0.0451025
0.0418433
0.023593
0.0201172
0.017199
0.0146364
0.0121877
0.00986835
0.00769568
0.00566868
0.00378559
0.00204579
0.000449437
-0.00100432
-0.0023159
-0.00348621
-0.00451578
-0.00540522
-0.00615534
-0.00676774
-0.00724464
-0.0075882
-0.00780005
-0.00788176
-0.00783543
-0.00766373
-0.00736901
-0.00695288
-0.00641685
-0.00576332
-0.00499574
-0.00411785
-0.00313306
-0.00204425
-0.00085428
0.00043312
0.0018138
0.00328393
0.00483969
0.00647718
0.00819216
0.00997968
0.0118342
0.0137501
0.015722
0.017745
0.0198142
0.021924
0.0240686
0.0262422
0.0284388
0.0306527
0.0328779
0.0351083
0.0373376
0.0395592
0.0417663
0.0439523
0.0461115
0.0482379
0.0503247
0.0523651
0.0543521
0.0562784
0.0581369
0.0599216
0.0616266
0.0632458
0.0647728
0.066202
0.0675277
0.0687443
0.0698464
0.0708286
0.0716862
0.0724147
0.0730104
0.0734705
0.073793
0.0739757
0.0740163
0.0739125
0.0736623
0.0732642
0.0727171
0.0720206
0.0711759
0.0701845
0.0690477
0.0677664
0.0663412
0.0647736
0.0630658
0.0612206
0.0592408
0.0571287
0.0548854
0.0525119
0.0500269
0.0474477
0.0445438
0.041121
0.0238455
0.0202091
0.0171564
0.014477
0.0119188
0.0094969
0.00722952
0.00511563
0.00315343
0.00134232
-0.000318586
-0.00182958
-0.00319211
-0.00440668
-0.00547415
-0.00639555
-0.00717233
-0.00780669
-0.00830082
-0.00865666
-0.00887609
-0.00896156
-0.00891598
-0.00874197
-0.00844138
-0.00801571
-0.00746729
-0.00679943
-0.00601578
-0.00511956
-0.00411375
-0.00300138
-0.00178603
-0.000471981
0.000936607
0.00243626
0.00402345
0.00569412
0.00744361
0.00926663
0.0111576
0.0131112
0.0151223
0.0171859
0.0192968
0.0214489
0.0236366
0.0258541
0.0280957
0.0303556
0.0326278
0.0349058
0.037183
0.0394527
0.0417082
0.0439433
0.046152
0.048328
0.0504643
0.0525537
0.0545894
0.0565641
0.0584708
0.060303
0.0620545
0.0637188
0.0652893
0.0667602
0.0681261
0.0693812
0.0705199
0.0715362
0.0724247
0.0731805
0.0737998
0.0742797
0.0746178
0.0748117
0.0748585
0.0747554
0.0745002
0.0740913
0.0735276
0.0728087
0.071935
0.0709073
0.0697266
0.0683933
0.0669083
0.0652735
0.0634913
0.0615644
0.0594953
0.0572861
0.0549379
0.0524518
0.0498478
0.0471442
0.0440998
0.040511
0.0239463
0.0201484
0.0169606
0.0141634
0.0114943
0.008969
0.00660629
0.00440489
0.00236287
0.000479676
-0.00124605
-0.00281504
-0.00422846
-0.00548714
-0.00659238
-0.00754577
-0.00834931
-0.00900512
-0.00951526
-0.00988197
-0.010108
-0.0101964
-0.0101503
-0.00997164
-0.00966236
-0.00922471
-0.00866195
-0.00797766
-0.00717496
-0.00625659
-0.00522572
-0.00408613
-0.00284198
-0.00149763
-5.68385e-05
0.0014772
0.00310079
0.00480937
0.00659793
0.00846118
0.0103939
0.0123908
0.0144469
0.0165568
0.0187149
0.020915
0.0231517
0.0254194
0.0277124
0.0300249
0.0323504
0.0346823
0.0370137
0.0393382
0.0416491
0.0439402
0.0462052
0.0484373
0.0506294
0.0527742
0.0548652
0.056895
0.0588565
0.0607426
0.0625465
0.0642615
0.0658811
0.0673994
0.0688109
0.0701098
0.0712897
0.0723444
0.073268
0.0740555
0.0747026
0.0752063
0.0755637
0.0757718
0.0758273
0.0757271
0.075469
0.0750512
0.0744728
0.0737329
0.0728312
0.0717677
0.070543
0.0691574
0.0676123
0.0659098
0.0640524
0.0620425
0.0598825
0.0575745
0.0551195
0.0525189
0.049794
0.046964
0.0437769
0.0400193
0.0238881
0.0199272
0.0166034
0.0136873
0.0109061
0.00827647
0.0058177
0.00352813
0.0014058
-0.000550347
-0.00234106
-0.00396809
-0.00543221
-0.00673494
-0.00787797
-0.00886323
-0.00969289
-0.010369
-0.0108938
-0.0112704
-0.0115021
-0.0115921
-0.0115431
-0.011357
-0.0110366
-0.010585
-0.0100059
-0.00930216
-0.00847662
-0.00753213
-0.00647259
-0.00530244
-0.00402591
-0.00264699
-0.00116917
0.000404182
0.00206885
0.00381984
0.0056521
0.00756069
0.00954061
0.0115866
0.0136932
0.0158549
0.0180656
0.0203195
0.0226113
0.0249356
0.0272865
0.0296578
0.0320427
0.0344346
0.0368269
0.0392131
0.0415865
0.0439404
0.0462683
0.0485632
0.0508176
0.0530247
0.0551778
0.0572697
0.0592927
0.0612391
0.0631017
0.0648736
0.0665483
0.0681201
0.0695831
0.070931
0.0721571
0.0732549
0.0742182
0.075042
0.0757216
0.0762534
0.0766339
0.0768594
0.0769265
0.0768319
0.0765735
0.0761494
0.0755582
0.0747988
0.07387
0.0727713
0.0715029
0.0700655
0.0684605
0.06669
0.0647565
0.0626624
0.0604099
0.0580013
0.0554377
0.0527207