/*--------------------------------*- C++ -*----------------------------------*\
  =========                 |
  \\      /  F ield         | OpenFOAM: The Open Source CFD Toolbox
   \\    /   O peration     | Website:  https://openfoam.org
    \\  /    A nd           | Version:  11
     \\/     M anipulation  |
\*---------------------------------------------------------------------------*/
FoamFile
{
    format      ascii;
    class       volScalarField;
    location    "8.5";
    object      p;
}
// * * * * * * * * * * * * * * * * * * * * * * * * * * * * * * * * * * * * * //

dimensions      [0 2 -2 0 0 0 0];

internalField   nonuniform List<scalar> 
10100
(
-9.45245e-06
9.93606e-05
-8.78936e-05
-0.000636067
-0.00150179
-0.0026266
-0.00395256
-0.0054243
-0.00699262
-0.00861383
-0.01025
-0.0118677
-0.013438
-0.0149359
-0.0163397
-0.0176308
-0.0187935
-0.0198143
-0.0206822
-0.0213875
-0.0219229
-0.0222824
-0.0224615
-0.0224569
-0.0222665
-0.0218894
-0.0213258
-0.0205768
-0.019644
-0.0185303
-0.0172392
-0.0157749
-0.0141425
-0.0123472
-0.010395
-0.0082923
-0.00604629
-0.00366443
-0.00115447
0.00147545
0.00421665
0.00706003
0.00999626
0.0130158
0.0161088
0.0192654
0.0224751
0.0257273
0.0290112
0.0323158
0.0356301
0.0389434
0.0422444
0.045522
0.0487649
0.0519616
0.055101
0.0581721
0.061164
0.0640662
0.0668682
0.0695595
0.0721301
0.0745703
0.0768712
0.0790243
0.0810216
0.0828556
0.0845192
0.086006
0.0873101
0.0884269
0.0893528
0.0900849
0.0906217
0.0909624
0.0911074
0.0910581
0.0908174
0.0903894
0.08978
0.0889966
0.0880487
0.0869473
0.0857058
0.0843395
0.082866
0.0813054
0.0796808
0.0780184
0.0763478
0.0747028
0.0731216
0.0716469
0.0703266
0.0692126
0.0683578
0.0678131
0.0676205
0.0677279
-8.36591e-05
2.61588e-05
-0.000163785
-0.000658057
-0.00140895
-0.00237672
-0.00351942
-0.00479382
-0.0061587
-0.007577
-0.00901493
-0.0104423
-0.0118326
-0.0131621
-0.0144104
-0.0155598
-0.0165946
-0.0175019
-0.0182705
-0.0188911
-0.0193559
-0.0196589
-0.0197953
-0.0197614
-0.0195549
-0.0191748
-0.0186206
-0.0178929
-0.0169931
-0.0159235
-0.0146874
-0.0132885
-0.0117312
-0.0100204
-0.00816148
-0.0061606
-0.00402441
-0.0017598
0.000626028
0.00312541
0.00573008
0.00843136
0.0112204
0.0140883
0.017026
0.0200238
0.0230718
0.02616
0.0292778
0.0324152
0.0355616
0.0387069
0.0418405
0.0449517
0.0480297
0.0510637
0.0540431
0.0569576
0.0597972
0.0625518
0.0652114
0.0677661
0.0702065
0.0725237
0.0747094
0.0767557
0.0786553
0.0804011
0.0819865
0.0834056
0.0846533
0.0857254
0.0866186
0.0873309
0.0878609
0.0882083
0.0883738
0.0883592
0.0881675
0.0878029
0.0872714
0.0865807
0.08574
0.0847603
0.0836547
0.0824378
0.0811267
0.0797405
0.0783008
0.076832
0.0753614
0.0739195
0.0725398
0.0712591
0.070117
0.0691543
0.0684097
0.0679187
0.0677273
0.0678354
0.000168411
0.000263947
6.40433e-05
-0.000406229
-0.00109402
-0.00196763
-0.00299372
-0.00413677
-0.00536203
-0.00663705
-0.0079321
-0.00922011
-0.0104764
-0.0116791
-0.0128092
-0.0138496
-0.0147856
-0.0156045
-0.0162954
-0.0168492
-0.0172584
-0.0175166
-0.017619
-0.0175617
-0.0173426
-0.01696
-0.0164135
-0.0157031
-0.0148299
-0.0137962
-0.0126048
-0.011259
-0.00976286
-0.00812081
-0.006338
-0.00442024
-0.00237376
-0.00020497
0.00207942
0.00447208
0.00696504
0.00955
0.0122186
0.0149625
0.017773
0.0206409
0.0235566
0.0265105
0.0294925
0.032493
0.0355023
0.0385104
0.0415073
0.0444826
0.0474261
0.0503273
0.0531764
0.0559636
0.0586792
0.0613137
0.0638576
0.0663014
0.0686362
0.0708537
0.0729461
0.074906
0.0767266
0.0784011
0.0799234
0.081288
0.0824902
0.0835262
0.0843932
0.0850894
0.0856139
0.0859665
0.0861482
0.0861607
0.0860073
0.0856924
0.0852218
0.0846031
0.0838456
0.0829599
0.0819586
0.0808558
0.0796676
0.0784122
0.0771097
0.0757827
0.0744562
0.0731577
0.071917
0.070766
0.0697385
0.0688686
0.0681877
0.0677259
0.0675353
0.0676444
0.000771455
0.000799821
0.000560969
8.43978e-05
-0.00058132
-0.00140749
-0.00236591
-0.00342616
-0.00455842
-0.0057342
-0.00692719
-0.00811307
-0.00926929
-0.0103758
-0.0114149
-0.0123705
-0.0132288
-0.0139777
-0.0146066
-0.0151069
-0.0154712
-0.0156932
-0.0157679
-0.0156919
-0.0154626
-0.0150784
-0.0145385
-0.0138428
-0.0129924
-0.0119891
-0.0108356
-0.00953492
-0.0080906
-0.00650694
-0.00478888
-0.00294185
-0.000971662
0.00111566
0.00331371
0.00561542
0.00801312
0.0104989
0.0130649
0.0157031
0.0184053
0.0211625
0.0239655
0.0268048
0.0296711
0.0325553
0.0354479
0.0383394
0.0412201
0.0440799
0.0469091
0.0496977
0.0524364
0.0551157
0.0577265
0.0602595
0.0627055
0.0650556
0.0673013
0.0694348
0.0714487
0.073336
0.0750902
0.0767048
0.0781741
0.079493
0.0806569
0.0816626
0.0825075
0.0831901
0.0837096
0.0840661
0.0842604
0.0842946
0.0841718
0.0838964
0.0834743
0.0829128
0.082221
0.0814091
0.0804891
0.0794745
0.0783804
0.0772237
0.0760233
0.0747999
0.0735762
0.0723772
0.0712293
0.0701608
0.0692009
0.0683795
0.0677241
0.0672623
0.0670442
0.0671026
0.00167368
0.00158336
0.00127317
0.000764264
9.3325e-05
-0.00071404
-0.0016331
-0.00263819
-0.00370374
-0.00480494
-0.00591852
-0.00702271
-0.00809744
-0.00912442
-0.0100871
-0.0109708
-0.0117625
-0.012451
-0.0130262
-0.0134799
-0.0138048
-0.0139948
-0.0140455
-0.0139532
-0.0137154
-0.0133302
-0.0127968
-0.0121151
-0.011286
-0.0103113
-0.00919315
-0.00793424
-0.00653808
-0.00500879
-0.00335102
-0.00156981
0.000329438
0.00234102
0.00445872
0.0066757
0.0089846
0.011378
0.0138485
0.0163884
0.0189898
0.0216438
0.0243417
0.0270744
0.0298332
0.0326092
0.0353934
0.0381766
0.0409492
0.0437018
0.0464249
0.0491091
0.0517455
0.054325
0.0568387
0.0592777
0.0616333
0.0638968
0.0660604
0.0681164
0.070058
0.0718784
0.0735713
0.0751308
0.0765513
0.077828
0.0789567
0.0799344
0.0807588
0.0814285
0.0819429
0.0823022
0.0825072
0.0825601
0.0824638
0.0822227
0.0818425
0.0813305
0.0806952
0.0799466
0.0790958
0.0781555
0.0771399
0.0760646
0.0749471
0.0738062
0.0726626
0.0715385
0.0704574
0.0694442
0.0685244
0.0677239
0.067067
0.0665788
0.0662985
0.0662512
0.00282664
0.00257974
0.00217021
0.00160559
0.0009053
9.19656e-05
-0.00081268
-0.00178714
-0.00280952
-0.00385842
-0.00491337
-0.00595512
-0.0069659
-0.00792911
-0.00882956
-0.00965385
-0.0103901
-0.0110278
-0.0115575
-0.0119714
-0.0122626
-0.0124255
-0.0124557
-0.0123498
-0.0121051
-0.0117198
-0.0111929
-0.0105246
-0.00971556
-0.00876734
-0.00768181
-0.00646153
-0.00510989
-0.00363086
-0.00202877
-0.000308293
0.00152554
0.00346724
0.00551073
0.00764938
0.00987625
0.0121844
0.0145667
0.017016
0.0195243
0.0220831
0.0246839
0.0273182
0.0299778
0.0326542
0.0353386
0.0380219
0.0406951
0.0433489
0.0459744
0.0485628
0.0511053
0.0535932
0.0560178
0.0583707
0.0606433
0.0628276
0.064916
0.0669012
0.0687767
0.070536
0.0721731
0.0736822
0.0750581
0.0762961
0.0773926
0.0783445
0.0791499
0.0798074
0.0803166
0.0806776
0.0808913
0.0809597
0.0808858
0.0806737
0.0803291
0.0798588
0.0792711
0.0785752
0.0777817
0.0769023
0.0759502
0.0749399
0.0738871
0.0728092
0.0717245
0.0706529
0.0696153
0.0686332
0.067729
0.0669248
0.0662422
0.0657034
0.0653314
0.065138
0.00418056
0.00375227
0.00322215
0.00258158
0.00183105
0.000989962
7.74063e-05
-0.000888346
-0.00188895
-0.00290605
-0.00392176
-0.00491932
-0.00588282
-0.00679732
-0.00764933
-0.00842669
-0.00911843
-0.00971485
-0.0102073
-0.0105885
-0.0108519
-0.0109924
-0.011006
-0.0108891
-0.0106392
-0.0102546
-0.00973456
-0.009079
-0.00828868
-0.0073648
-0.00630914
-0.00512424
-0.0038134
-0.00238035
-0.00082906
0.000836134
0.00261036
0.00448824
0.0064639
0.00853104
0.0106831
0.0129136
0.0152157
0.0175822
0.0200055
0.0224773
0.0249897
0.0275346
0.0301039
0.0326896
0.0352831
0.0378756
0.0404583
0.0430224
0.0455594
0.0480608
0.0505181
0.052923
0.055267
0.0575419
0.0597396
0.0618523
0.0638728
0.0657943
0.0676102
0.0693145
0.0709012
0.0723649
0.0737005
0.0749037
0.0759709
0.0768994
0.0776873
0.0783334
0.0788372
0.0791988
0.0794191
0.0794999
0.0794441
0.0792557
0.0789401
0.0785039
0.0779546
0.0773012
0.0765532
0.0757216
0.0748186
0.0738572
0.0728519
0.0718183
0.0707727
0.069733
0.0687173
0.0677446
0.0668339
0.0660041
0.0652746
0.0646643
0.0641782
0.0638123
0.00568831
0.00506332
0.00439715
0.00366472
0.00284673
0.00195972
0.00102071
4.49623e-05
-0.000952223
-0.00195531
-0.00294892
-0.00391829
-0.00484929
-0.0057288
-0.0065449
-0.00728664
-0.00794397
-0.00850797
-0.00897083
-0.00932579
-0.00956708
-0.0096899
-0.00969029
-0.00956501
-0.00931166
-0.00892882
-0.00841581
-0.00777256
-0.00699959
-0.00609805
-0.00506976
-0.00391727
-0.0026437
-0.00125249
0.000252714
0.00186774
0.0035878
0.00540763
0.0073216
0.0093238
0.0114081
0.0135681
0.0157973
0.0180887
0.0204348
0.0228278
0.02526
0.0277237
0.0302114
0.032715
0.0352261
0.0377364
0.0402372
0.0427203
0.0451774
0.0476004
0.049981
0.052311
0.0545824
0.0567871
0.0589174
0.0609659
0.0629255
0.0647898
0.0665524
0.0682073
0.069749
0.0711719
0.0724714
0.0736433
0.0746842
0.0755915
0.0763634
0.0769987
0.077497
0.0778581
0.078083
0.0781733
0.0781317
0.077962
0.0776694
0.07726
0.0767409
0.0761203
0.0754071
0.0746114
0.0737441
0.0728174
0.0718441
0.0708382
0.0698145
0.0687884
0.0677761
0.0667939
0.0658581
0.0649845
0.0641904
0.0634921
0.0628755
0.0623206
0.00730725
0.00647768
0.0056649
0.00482833
0.00392909
0.00298155
0.00200085
0.000999304
-1.01872e-05
-0.00101457
-0.00200083
-0.00295598
-0.00386765
-0.00472454
-0.00551606
-0.00623231
-0.00686428
-0.00740396
-0.00784434
-0.00817935
-0.00840375
-0.00851303
-0.0085035
-0.00837225
-0.00811722
-0.00773716
-0.00723142
-0.00659987
-0.005843
-0.00496206
-0.00395889
-0.00283598
-0.00159624
-0.000242846
0.00122071
0.00279035
0.00446137
0.00622867
0.00808689
0.0100305
0.0120536
0.01415
0.0163135
0.018537
0.0208134
0.0231353
0.0254952
0.027886
0.0303
0.0327297
0.0351668
0.0376031
0.0400304
0.0424407
0.0448261
0.0471787
0.0494906
0.0517536
0.05396
0.056102
0.0581722
0.0601634
0.062069
0.0638824
0.0655975
0.0672087
0.0687102
0.070097
0.0713644
0.0725084
0.0735257
0.0744139
0.0751712
0.0757964
0.076289
0.0766488
0.0768764
0.0769734
0.0769423
0.0767868
0.0765116
0.0761225
0.0756259
0.0750294
0.0743412
0.0735705
0.0727272
0.0718222
0.0708671
0.0698745
0.0688573
0.0678293
0.0668044
0.0657969
0.0648204
0.0638879
0.063015
0.062216
0.0614579
0.0607049
0.00900076
0.00796291
0.0069971
0.00604752
0.00505635
0.00403633
0.00300127
0.00196095
0.000925785
-9.31551e-05
-0.0010847
-0.00203779
-0.00294193
-0.00378724
-0.00456426
-0.00526413
-0.00587895
-0.00640175
-0.00682631
-0.0071471
-0.0073593
-0.00745882
-0.00744244
-0.00730766
-0.00705265
-0.00667626
-0.00617786
-0.0055574
-0.00481551
-0.00395354
-0.00297334
-0.00187723
-0.000667941
0.000651496
0.00207765
0.00360648
0.00523339
0.00695349
0.00876175
0.0106529
0.0126212
0.0146607
0.0167652
0.0189278
0.0211418
0.0234001
0.0256955
0.0280211
0.0303694
0.0327331
0.035104
0.0374743
0.0398361
0.0421816
0.0445034
0.0467935
0.0490443
0.051248
0.0533969
0.0554834
0.0575004
0.0594412
0.061299
0.0630676
0.0647411
0.0663137
0.06778
0.0691349
0.0703741
0.0714935
0.07249
0.0733613
0.0741054
0.0747213
0.0752081
0.0755656
0.0757943
0.0758956
0.0758718
0.0757262
0.0754634
0.0750884
0.0746074
0.0740272
0.0733551
0.0725996
0.0717695
0.0708749
0.0699259
0.0689337
0.0679099
0.0668664
0.0658154
0.0647691
0.0637387
0.0627352
0.0617726
0.0608634
0.0599565
0.0590013
0.0107366
0.00949039
0.00836787
0.00729894
0.00620781
0.005106
0.00400628
0.00291627
0.00184425
0.000799588
-0.000208194
-0.00117001
-0.00207699
-0.00292033
-0.00369163
-0.0043833
-0.00498859
-0.00550139
-0.00591608
-0.00622768
-0.00643192
-0.00652526
-0.00650498
-0.00636889
-0.00611535
-0.0057433
-0.00525226
-0.00464236
-0.00391442
-0.00306984
-0.00211043
-0.00103837
0.000143753
0.00143293
0.00282573
0.00431815
0.00590574
0.00758389
0.00934781
0.0111924
0.0131121
0.0151011
0.0171531
0.0192618
0.0214204
0.0236224
0.0258608
0.0281287
0.0304189
0.0327241
0.0350366
0.0373487
0.0396528
0.0419414
0.0442071
0.0464424
0.0486397
0.0507913
0.0528898
0.0549279
0.0568986
0.0587954
0.0606118
0.0623416
0.0639789
0.0655181
0.0669539
0.0682813
0.0694959
0.070594
0.0715725
0.0724289
0.0731614
0.0737686
0.0742498
0.0746043
0.0748328
0.0749361
0.0749166
0.0747773
0.0745221
0.0741559
0.0736842
0.073113
0.0724492
0.0717001
0.0708739
0.0699794
0.0690258
0.0680229
0.0669809
0.0659103
0.0648216
0.0637252
0.0626304
0.061546
0.0604851
0.059459
0.0583992
0.057241
0.0124874
0.0110345
0.00975362
0.00856123
0.0073643
0.0061734
0.0050007
0.003852
0.00273398
0.00165428
0.000620601
-0.000359438
-0.00127808
-0.00212765
-0.00290108
-0.00359204
-0.00419467
-0.00470348
-0.0051135
-0.00542043
-0.00562066
-0.0057112
-0.00568967
-0.00555417
-0.00530325
-0.00493608
-0.00445241
-0.0038526
-0.00313758
-0.00230878
-0.00136794
-0.000317165
0.000840952
0.00210339
0.00346671
0.00492699
0.00648
0.00812135
0.00984641
0.0116502
0.0135273
0.0154718
0.0174778
0.0195391
0.0216494
0.0238022
0.0259907
0.0282082
0.0304476
0.0327019
0.0349635
0.0372249
0.0394788
0.041718
0.0439353
0.0461231
0.0482742
0.0503809
0.052436
0.0544325
0.0563635
0.0582228
0.0600038
0.0617005
0.063307
0.0648179
0.0662277
0.0675318
0.0687258
0.0698058
0.0707689
0.0716125
0.0723349
0.0729344
0.0734101
0.0737613
0.0739882
0.0740919
0.0740741
0.0739376
0.0736861
0.0733238
0.0728557
0.0722873
0.0716246
0.0708742
0.0700435
0.0691403
0.0681726
0.0671493
0.0660793
0.0649716
0.0638354
0.0626795
0.0615115
0.0603385
0.0591729
0.0580253
0.0568105
0.0554508
0.0142293
0.0125726
0.0111332
0.00981482
0.00850787
0.0072222
0.00596996
0.00475549
0.00358382
0.00246096
0.00139318
0.000387058
-0.000550706
-0.00141381
-0.00219651
-0.00289339
-0.00349924
-0.00400925
-0.00441923
-0.00472563
-0.00492547
-0.00501618
-0.00499569
-0.00486235
-0.00461502
-0.00425316
-0.00377683
-0.00318656
-0.00248335
-0.00166862
-0.0007441
0.00028807
0.00142523
0.00266434
0.00400197
0.00543436
0.00695745
0.00856702
0.0102585
0.012027
0.0138672
0.0157733
0.0177395
0.01976
0.0218287
0.0239391
0.0260847
0.0282589
0.0304548
0.0326653
0.0348833
0.0371015
0.0393127
0.0415099
0.0436859
0.0458335
0.0479454
0.0500142
0.0520328
0.0539943
0.0558922
0.0577201
0.0594717
0.0611409
0.062722
0.0642095
0.065598
0.0668829
0.0680598
0.069125
0.0700754
0.0709086
0.0716224
0.0722153
0.0726858
0.0730334
0.073258
0.0733604
0.0733422
0.0732057
0.0729543
0.0725917
0.0721222
0.0715509
0.0708831
0.0701246
0.069282
0.0683622
0.0673724
0.0663202
0.0652136
0.0640604
0.0628685
0.0616453
0.0603971
0.0591294
0.0578544
0.0565823
0.0552119
0.0536534
0.0159413
0.0140848
0.0124877
0.0110416
0.00962171
0.00823735
0.00690051
0.00561439
0.00438256
0.00320976
0.00210124
0.00106251
9.90259e-05
-0.000784194
-0.00158236
-0.00229073
-0.0029048
-0.0034206
-0.00383475
-0.00414439
-0.00434699
-0.00444036
-0.00442275
-0.00429288
-0.00404996
-0.0036938
-0.00322466
-0.00264323
-0.00195056
-0.00114811
-0.000237675
0.000778494
0.00189767
0.00311678
0.00443252
0.00584124
0.00733902
0.0089217
0.0105848
0.0123233
0.0141321
0.0160056
0.0179383
0.0199244
0.021958
0.0240328
0.0261424
0.0282801
0.0304394
0.0326133
0.0347949
0.036977
0.0391527
0.0413151
0.043457
0.0455714
0.047651
0.0496887
0.0516776
0.0536108
0.0554819
0.0572845
0.0590125
0.0606598
0.0622207
0.0636896
0.0650613
0.066331
0.0674946
0.0685483
0.069489
0.0703139
0.071021
0.0716083
0.0720744
0.0724184
0.0726401
0.0727401
0.0727196
0.0725808
0.0723263
0.0719596
0.0714845
0.0709054
0.070227
0.0694544
0.0685935
0.0676503
0.0666312
0.0655429
0.0643924
0.0631865
0.061932
0.0606351
0.059301
0.0579339
0.0565461
0.0551476
0.0536223
0.0518682
0.0176054
0.0155531
0.0137998
0.0122255
0.0106906
0.00920463
0.0077793
0.00641673
0.00511947
0.00389133
0.00273658
0.00165957
0.000664533
-0.000244429
-0.00106319
-0.00178772
-0.00241439
-0.00294012
-0.00336221
-0.00367831
-0.00388629
-0.00398435
-0.00397116
-0.00384586
-0.00360804
-0.00325776
-0.00279548
-0.00222201
-0.00153847
-0.000746462
0.000152073
0.00115478
0.00225891
0.00346141
0.00475907
0.00614831
0.00762527
0.00918581
0.0108254
0.0125393
0.0143222
0.016169
0.0180741
0.0200321
0.022037
0.0240827
0.0261628
0.0282708
0.0304004
0.0325447
0.0346968
0.03685
0.0389973
0.0411318
0.0432466
0.0453347
0.0473889
0.0494023
0.051368
0.0532792
0.0551298
0.0569132
0.0586233
0.0602542
0.0618
0.0632552
0.0646145
0.0658734
0.0670275
0.068073
0.0690067
0.0698259
0.070528
0.0711111
0.0715736
0.0719144
0.072133
0.0722298
0.0722057
0.0720624
0.0718023
0.0714284
0.070944
0.0703528
0.069659
0.0688671
0.0679823
0.0670098
0.0659553
0.0648247
0.0636241
0.0623594
0.0610365
0.0596608
0.0582362
0.0567662
0.0552632
0.0537371
0.0520579
0.050112
0.0192056
0.0169616
0.0150541
0.0133517
0.0117006
0.0101106
0.00859377
0.00715111
0.00578431
0.00449644
0.00329078
0.00217055
0.00113908
0.000199813
-0.000643794
-0.00138856
-0.00203176
-0.00257103
-0.00300424
-0.00332943
-0.0035449
-0.00364934
-0.00364187
-0.00352204
-0.00328978
-0.00294534
-0.00248934
-0.00192274
-0.00124686
-0.000463461
0.000425365
0.00141719
0.00250925
0.00369858
0.00498198
0.00635588
0.00781641
0.00935942
0.0109804
0.0126747
0.0144373
0.0162631
0.0181466
0.0200825
0.022065
0.0240879
0.026145
0.0282301
0.0303366
0.0324581
0.0345878
0.036719
0.0388447
0.0409582
0.0430527
0.0451213
0.0471569
0.0491525
0.0511015
0.0529972
0.0548333
0.0566034
0.0583015
0.0599213
0.0614572
0.0629035
0.0642551
0.0655073
0.0666557
0.0676965
0.0686263
0.0694422
0.0701415
0.0707221
0.071182
0.0715201
0.0717357
0.0718288
0.0718001
0.0716509
0.0713831
0.0709993
0.0705024
0.0698954
0.0691822
0.0683666
0.067453
0.0664461
0.065351
0.0641728
0.0629169
0.0615883
0.0601923
0.0587333
0.0572147
0.055639
0.054019
0.0523651
0.0505333
0.0483994
0.0207277
0.0182959
0.0162363
0.0144062
0.0126384
0.0109429
0.00933221
0.00780665
0.00636712
0.00501587
0.00375527
0.00258775
0.00151595
0.000542673
-0.000329415
-0.00109802
-0.00176115
-0.00231698
-0.00276384
-0.00310022
-0.00332493
-0.00343715
-0.00343645
-0.00332274
-0.00309619
-0.00275724
-0.00230672
-0.00174582
-0.00107606
-0.000299396
0.000581969
0.00156557
0.00264867
0.0038283
0.00510123
0.00646384
0.00791224
0.00944228
0.0110496
0.0127294
0.0144771
0.0162874
0.0181552
0.0200751
0.0220412
0.0240476
0.0260881
0.0281566
0.0302469
0.0323523
0.0344663
0.0365821
0.0386931
0.0407925
0.0428734
0.0449291
0.0469527
0.0489372
0.0508759
0.0527623
0.0545901
0.0563528
0.0580444
0.0596586
0.0611897
0.0626321
0.0639806
0.0652304
0.0663771
0.0674168
0.0683459
0.0691612
0.06986
0.0704397
0.0708985
0.0712349
0.0714478
0.0715371
0.0715031
0.0713468
0.0710698
0.070674
0.0701618
0.0695361
0.0688
0.0679568
0.0670104
0.0659649
0.0648247
0.0635944
0.0622787
0.0608821
0.0594089
0.0578633
0.0562477
0.0545643
0.0528262
0.0510442
0.0490615
0.0467428
0.0221593
0.0195433
0.0173335
0.0153765
0.0134917
0.0116898
0.00998358
0.00837295
0.00685809
0.00544045
0.0041217
0.00290365
0.00178839
0.000777975
-0.000125772
-0.000921286
-0.00160711
-0.00218188
-0.00264439
-0.00299366
-0.00322904
-0.00335017
-0.003357
-0.00324971
-0.00302869
-0.00269463
-0.00224863
-0.00169214
-0.00102691
-0.000255016
0.000621257
0.00159943
0.00267674
0.00385016
0.00511637
0.00647169
0.0079122
0.00943382
0.0110322
0.0127028
0.0144408
0.0162413
0.0180991
0.0200087
0.0219645
0.0239605
0.0259908
0.0280493
0.0301297
0.0322256
0.0343306
0.0364378
0.0385407
0.0406325
0.0427066
0.0447561
0.0467741
0.048754
0.0506889
0.0525722
0.0543977
0.0561589
0.0578497
0.0594638
0.0609954
0.0624389
0.063789
0.0650408
0.0661899
0.0672321
0.0681638
0.0689814
0.0696821
0.0702632
0.0707225
0.0710582
0.0712692
0.0713549
0.0713155
0.0711514
0.0708638
0.0704543
0.069925
0.069278
0.0685161
0.0676421
0.0666595
0.0655718
0.0643829
0.0630967
0.0617175
0.0602493
0.0586958
0.0570606
0.0553458
0.0535529
0.0516958
0.049786
0.0476537
0.0451536
0.023489
0.020692
0.0183338
0.0162508
0.0142492
0.0123402
0.0105373
0.00883996
0.00724768
0.00576127
0.00438186
0.00311076
0.00194944
0.000899204
-3.88658e-05
-0.000863744
-0.00157441
-0.00216995
-0.00264971
-0.00301325
-0.00326043
-0.00339127
-0.003406
-0.00330506
-0.00308912
-0.00275916
-0.00231659
-0.00176313
-0.0011007
-0.000331458
0.000542252
0.0015179
0.00259263
0.00376332
0.00502652
0.00637852
0.00781541
0.00933316
0.0109275
0.0125939
0.0143276
0.0161238
0.0179771
0.0198823
0.0218337
0.0238255
0.0258518
0.0279065
0.0299835
0.0320765
0.0341789
0.0362842
0.0383855
0.0404765
0.0425502
0.0446001
0.0466192
0.0486008
0.0505382
0.0524247
0.054254
0.0560196
0.0577152
0.0593347
0.0608721
0.0623217
0.0636782
0.0649367
0.0660924
0.0671411
0.0680788
0.0689019
0.0696072
0.0701919
0.0706535
0.0709901
0.0712002
0.071283
0.0712381
0.0710659
0.0707671
0.0703428
0.0697946
0.0691244
0.0683344
0.0674272
0.0664055
0.0652726
0.0640319
0.0626868
0.0612411
0.0596983
0.0580618
0.0563347
0.0545187
0.0526151
0.0506385
0.0486009
0.0463204
0.0436414
0.0247062
0.0217313
0.0192265
0.0170181
0.0149
0.0128837
0.0109833
0.009198
0.00752663
0.00596962
0.00452765
0.00320149
0.00199193
0.000899634
-7.48482e-05
-0.000930932
-0.00166805
-0.00228581
-0.00278408
-0.00316297
-0.00342271
-0.00356365
-0.00358628
-0.00349132
-0.00327979
-0.002953
-0.00251266
-0.0019607
-0.00129914
-0.000530241
0.000343579
0.00131967
0.00239505
0.00356647
0.00483039
0.00618308
0.00762067
0.00913916
0.0107343
0.0124015
0.0141362
0.0159334
0.0177879
0.0196944
0.0216473
0.0236409
0.0256694
0.0277267
0.0298067
0.0319032
0.0340095
0.0361193
0.0382257
0.0403223
0.0424023
0.0444591
0.0464858
0.0484756
0.0504218
0.0523177
0.0541568
0.0559328
0.0576391
0.0592695
0.0608181
0.0622791
0.063647
0.0649167
0.0660834
0.0671425
0.06809
0.0689219
0.0696348
0.0702256
0.0706917
0.0710308
0.0712414
0.0713222
0.0712725
0.0710923
0.0707818
0.070342
0.0697739
0.0690791
0.0682593
0.0673168
0.0662539
0.0650734
0.0637783
0.0623718
0.060857
0.0592372
0.0575154
0.0556945
0.0537758
0.0517604
0.0496637
0.0474986
0.0450708
0.0422151
0.0258012
0.022651
0.0200013
0.0176682
0.0154339
0.0133102
0.0113119
0.0094376
0.00768593
0.00605697
0.00455095
0.00316807
0.00190851
0.00077245
-0.000239975
-0.0011286
-0.00189338
-0.00253445
-0.00305221
-0.00344714
-0.00371981
-0.00387084
-0.00390103
-0.00381145
-0.00360349
-0.00327879
-0.0028393
-0.00228708
-0.00162428
-0.00085324
2.34639e-05
0.00100301
0.00208229
0.00325793
0.00452636
0.00588382
0.00732648
0.00885033
0.0104511
0.0121242
0.0138651
0.0156687
0.0175299
0.0194433
0.0214036
0.0234051
0.0254419
0.027508
0.0295974
0.0317037
0.0338205
0.0359412
0.0380592
0.040168
0.0422609
0.0443311
0.0463719
0.0483763
0.0503377
0.0522493
0.0541044
0.0558967
0.0576195
0.0592666
0.0608319
0.0623095
0.0636938
0.0649795
0.0661617
0.0672356
0.0681967
0.0690408
0.0697645
0.0703642
0.0708373
0.0711812
0.0713939
0.071474
0.0714204
0.0712326
0.0709107
0.070455
0.0698664
0.069146
0.0682953
0.067316
0.0662102
0.0649802
0.0636287
0.0621586
0.0605727
0.0588739
0.057065
0.0551486
0.0531258
0.0509977
0.0487804
0.0464876
0.0439135
0.0408826
0.0267647
0.0234414
0.0206483
0.0181916
0.0158413
0.0136101
0.0115135
0.00954956
0.00771676
0.00601485
0.00444361
0.00300271
0.00169186
0.000510829
-0.000540601
-0.00146274
-0.00225607
-0.00292125
-0.00345906
-0.00387032
-0.00415586
-0.00431665
-0.00435383
-0.00426885
-0.00406348
-0.00373959
-0.0032993
-0.00274485
-0.00207847
-0.00130269
-0.000420269
0.000565792
0.00165226
0.0028357
0.00411251
0.00547892
0.00693107
0.00846493
0.0100761
0.0117602
0.0135124
0.0153277
0.0172012
0.0191274
0.0211009
0.0231163
0.0251675
0.0272487
0.0293536
0.0314762
0.0336098
0.035748
0.0378842
0.0400118
0.042124
0.0442142
0.0462756
0.0483012
0.0502841
0.0522176
0.054095
0.0559096
0.0576549
0.0593244
0.0609119
0.0624116
0.0638175
0.0651243
0.0663266
0.0674195
0.0683983
0.0692585
0.0699964
0.0706082
0.071091
0.071442
0.0716589
0.0717399
0.0716837
0.0714893
0.0711564
0.0706852
0.0700759
0.0693295
0.0684471
0.0674299
0.0662799
0.064999
0.0635897
0.0620543
0.0603956
0.0586161
0.0567185
0.0547051
0.0525771
0.0503353
0.0479969
0.0455764
0.0428562
0.0396513
0.0275883
0.0240938
0.0211584
0.0185787
0.0161128
0.0137742
0.0115789
0.00952496
0.00761049
0.00583488
0.00419752
0.00269766
0.00133464
0.000107879
-0.000983264
-0.00193959
-0.00276207
-0.00345177
-0.00400981
-0.00443728
-0.00473532
-0.00490527
-0.00494868
-0.00486736
-0.00466335
-0.00433873
-0.00389576
-0.00333685
-0.00266443
-0.00188121
-0.000990183
5.5199e-06
0.00110258
0.00229753
0.00358671
0.0049663
0.00643239
0.0079809
0.00960742
0.0113074
0.013076
0.0149086
0.0167998
0.0187445
0.0207372
0.0227724
0.0248442
0.0269466
0.0290734
0.0312185
0.0333754
0.0355376
0.0376985
0.0398514
0.0419897
0.0441065
0.046195
0.0482482
0.0502592
0.052221
0.0541268
0.0559699
0.0577436
0.0594415
0.0610571
0.0625843
0.0640172
0.0653501
0.0665774
0.0676939
0.0686946
0.069575
0.0703307
0.0709581
0.0714537
0.0718146
0.072038
0.072122
0.0720648
0.0718651
0.0715223
0.071036
0.0704065
0.069634
0.0687195
0.067664
0.0664689
0.0651361
0.0636676
0.0620658
0.0603329
0.0584713
0.0564836
0.0543721
0.0521377
0.0497813
0.0473211
0.0447725
0.0419063
0.0385278
0.028264
0.0245995
0.0215228
0.0188207
0.0162395
0.0137933
0.0114992
0.00935508
0.00735856
0.00550873
0.00380463
0.00224521
0.000829517
-0.000443414
-0.0015747
-0.00256561
-0.0034175
-0.00413176
-0.0047098
-0.00515302
-0.00546293
-0.00564127
-0.00568995
-0.00561108
-0.00540694
-0.00507976
-0.00463198
-0.00406624
-0.00338519
-0.00259178
-0.00168914
-0.000680534
0.000430682
0.00164097
0.0029466
0.00434366
0.00582818
0.007396
0.00904266
0.0107635
0.012554
0.0144091
0.0163237
0.0182926
0.0203104
0.0223714
0.0244698
0.0265996
0.0287547
0.0309287
0.0331154
0.0353081
0.0375002
0.0396851
0.041856
0.0440059
0.0461281
0.0482155
0.050261
0.0522575
0.0541982
0.0560761
0.0578844
0.0596166
0.0612662
0.0628267
0.064292
0.0656562
0.0669136
0.0680585
0.0690857
0.0699904
0.0707681
0.0714147
0.0719265
0.0723003
0.0725331
0.0726225
0.0725663
0.0723631
0.0720117
0.0715115
0.0708622
0.0700641
0.0691176
0.0680234
0.0667829
0.0653976
0.0638692
0.0621998
0.0603916
0.0584469
0.0563679
0.054157
0.0518152
0.0493433
0.0467605
0.0440833
0.0410707
0.0375186
0.0287838
0.0249503
0.0217328
0.0189085
0.0162122
0.0136587
0.0112659
0.00903135
0.00695249
0.00502809
0.00325691
0.00163766
0.000169073
-0.00115023
-0.00232184
-0.00334741
-0.0042286
-0.00496708
-0.00556457
-0.00602284
-0.00634378
-0.00652952
-0.00658227
-0.00650438
-0.0062983
-0.00596647
-0.00551157
-0.00493648
-0.00424413
-0.00343764
-0.00252025
-0.0014953
-0.000366224
0.000863358
0.00218959
0.00360845
0.00511592
0.00670775
0.00837943
0.0101263
0.0119438
0.013827
0.0157706
0.0177695
0.0198182
0.021911
0.0240421
0.0262056
0.0283952
0.0306046
0.0328275
0.0350572
0.0372872
0.0395107
0.0417208
0.0439105
0.0460731
0.0482012
0.0502878
0.0523256
0.0543075
0.0562266
0.0580758
0.0598486
0.061538
0.0631377
0.0646411
0.0660422
0.0673348
0.0685131
0.0695716
0.0705053
0.0713092
0.0719791
0.0725109
0.0729011
0.0731463
0.0732438
0.0731911
0.0729864
0.0726282
0.0721155
0.0714477
0.0706246
0.0696465
0.0685139
0.0672279
0.0657896
0.0642008
0.0624632
0.0605789
0.05855
0.0563787
0.0540674
0.0516171
0.0490287
0.0463224
0.0435158
0.0403562
0.0366298
0.0291401
0.0251381
0.02178
0.0188337
0.0160225
0.0133618
0.0108703
0.00854522
0.00638382
0.00438469
0.00254635
0.000867249
-0.000654249
-0.00201993
-0.00323177
-0.00429174
-0.00520178
-0.00596384
-0.00657998
-0.00705238
-0.00738332
-0.00757522
-0.00763053
-0.0075518
-0.00734172
-0.00700295
-0.00653847
-0.00595144
-0.00524497
-0.00442231
-0.00348683
-0.00244193
-0.00129115
-3.82424e-05
0.00131281
0.00275788
0.00429286
0.00591346
0.00761512
0.00939321
0.0112431
0.0131598
0.0151381
0.0171727
0.0192582
0.0213888
0.0235588
0.0257622
0.0279926
0.0302438
0.0325094
0.0347828
0.0370573
0.039326
0.0415819
0.0438182
0.0460278
0.0482034
0.0503377
0.0524234
0.0544532
0.0564199
0.0583165
0.0601361
0.0618717
0.0635166
0.065064
0.0665075
0.0678409
0.069058
0.0701529
0.0711203
0.0719551
0.0726526
0.0732085
0.0736188
0.0738799
0.0739887
0.0739424
0.0737386
0.0733757
0.0728523
0.0721674
0.0713205
0.0703117
0.0691412
0.0678099
0.0663187
0.0646692
0.0628629
0.0609018
0.0587879
0.0565234
0.0541108
0.0515509
0.0488449
0.0460141
0.043077
0.0397693
0.0358676
0.0293249
0.0251545
0.0216561
0.018588
0.0156619
0.0128941
0.0103038
0.0078881
0.00564413
0.00357029
0.00166492
-7.389e-05
-0.00164815
-0.00306
-0.0043117
-0.0054055
-0.00634362
-0.00712837
-0.00776219
-0.0082476
-0.00858722
-0.00878374
-0.00883979
-0.00875815
-0.00854178
-0.00819364
-0.00771701
-0.00711526
-0.00639166
-0.00554957
-0.00459245
-0.00352385
-0.00234741
-0.00106705
0.000313118
0.00178886
0.003356
0.00501022
0.00674691
0.0085614
0.010449
0.0124048
0.0144235
0.0164996
0.0186278
0.0208023
0.0230173
0.0252668
0.0275444
0.029844
0.0321588
0.0344825
0.0368081
0.0391287
0.0414373
0.0437269
0.0459902
0.0482201
0.0504089
0.0525492
0.0546335
0.0566546
0.0586052
0.0604781
0.0622663
0.0639626
0.0655601
0.0670521
0.068432
0.0696934
0.0708302
0.0718366
0.0727072
0.073437
0.0740213
0.0744559
0.0747367
0.0748603
0.0748235
0.0746236
0.0742585
0.0737264
0.0730262
0.072157
0.0711186
0.0699112
0.0685351
0.0669913
0.0652811
0.0634059
0.0613676
0.059168
0.0568095
0.0542946
0.0516242
0.0487994
0.0458429
0.0427739
0.0393168
0.0352381
0.0293308
0.0249918
0.021353
0.0181631
0.0151221
0.0122469
0.00955768
0.00705142
0.00472497
0.0025766
0.000604429
-0.00119383
-0.00282052
-0.00427807
-0.00556897
-0.00669576
-0.007661
-0.00846736
-0.00911764
-0.00961471
-0.00996141
-0.0101607
-0.0102154
-0.0101285
-0.00990342
-0.00954334
-0.00905181
-0.00843236
-0.0076884
-0.00682338
-0.00584093
-0.00474473
-0.00353859
-0.00222656
-0.000812908
0.000698058
0.00230211
0.00399488
0.00577172
0.00762792
0.00955874
0.0115592
0.0136239
0.0157474
0.0179242
0.0201486
0.0224148
0.0247168
0.0270481
0.0294024
0.0317732
0.0341537
0.0365372
0.0389165
0.0412846
0.0436342
0.0459583
0.0482492
0.0504994
0.0527012
0.054847
0.0569292
0.0589406
0.0608736
0.0627209
0.0644751
0.0661291
0.0676758
0.0691083
0.0704199
0.0716042
0.0726551
0.0735668
0.074334
0.0749515
0.0754148
0.0757196
0.0758618
0.075838
0.0756452
0.0752808
0.0747426
0.0740293
0.0731397
0.0720733
0.07083
0.0694101
0.0678143
0.0660436
0.0640995
0.0619837
0.059698
0.0572448
0.0546266
0.0518445
0.0488998
0.045816
0.0426138
0.0390055
0.0347475
0.02915
0.0246421
0.0208625