/*--------------------------------*- C++ -*----------------------------------*\
  =========                 |
  \\      /  F ield         | OpenFOAM: The Open Source CFD Toolbox
   \\    /   O peration     | Website:  https://openfoam.org
    \\  /    A nd           | Version:  11
     \\/     M anipulation  |
\*---------------------------------------------------------------------------*/
FoamFile
{
    format      ascii;
    class       surfaceScalarField;
    location    "8.5";
    object      phi;
}
// * * * * * * * * * * * * * * * * * * * * * * * * * * * * * * * * * * * * * //

dimensions      [0 3 -1 0 0 0 0];

internalField   nonuniform List<scalar> 
19980
(
7.20588e-07
-6.86238e-07
2.42307e-06
-1.7027e-06
4.32494e-06
-1.90174e-06
5.82606e-06
-1.501e-06
6.58982e-06
-7.63171e-07
6.42933e-06
1.60586e-07
5.25168e-06
1.17742e-06
3.02392e-06
2.22769e-06
-2.51047e-07
3.27497e-06
-4.54554e-06
4.29482e-06
-9.8171e-06
5.27162e-06
-1.60122e-05
6.19495e-06
-2.30709e-05
7.05873e-06
-3.09291e-05
7.85793e-06
-3.95194e-05
8.59015e-06
-4.87733e-05
9.25384e-06
-5.86216e-05
9.84812e-06
-6.89949e-05
1.03732e-05
-7.98246e-05
1.08298e-05
-9.10431e-05
1.12185e-05
-0.000102583
1.15404e-05
-0.000114381
1.17972e-05
-0.000126371
1.19904e-05
-0.000138493
1.21216e-05
-0.000150685
1.21926e-05
-0.00016289
1.22051e-05
-0.000175052
1.21614e-05
-0.000187115
1.20631e-05
-0.000199027
1.19125e-05
-0.000210739
1.17116e-05
-0.000222201
1.14624e-05
-0.000233369
1.11672e-05
-0.000244197
1.08283e-05
-0.000254645
1.04478e-05
-0.000264672
1.00276e-05
-0.000274242
9.5699e-06
-0.000283319
9.07698e-06
-0.00029187
8.55097e-06
-0.000299864
7.99395e-06
-0.000307272
7.40803e-06
-0.000314068
6.79546e-06
-0.000320226
6.15856e-06
-0.000325726
5.49967e-06
-0.000330547
4.82099e-06
-0.000334672
4.12472e-06
-0.000338085
3.41311e-06
-0.000340773
2.68844e-06
-0.000342726
1.95308e-06
-0.000343936
1.20946e-06
-0.000344396
4.60037e-07
-0.000344103
-2.92649e-07
-0.000343057
-1.04612e-06
-0.000341259
-1.79793e-06
-0.000338714
-2.54552e-06
-0.000335427
-3.28627e-06
-0.00033141
-4.01751e-06
-0.000326673
-4.73651e-06
-0.000321233
-5.44057e-06
-0.000315106
-6.12695e-06
-0.000308313
-6.79287e-06
-0.000300877
-7.43548e-06
-0.000292825
-8.05195e-06
-0.000284186
-8.63944e-06
-0.000274991
-9.19511e-06
-0.000265275
-9.71618e-06
-0.000255075
-1.02e-05
-0.000244431
-1.06439e-05
-0.000233385
-1.10452e-05
-0.000221984
-1.14013e-05
-0.000210275
-1.17094e-05
-0.000198308
-1.1967e-05
-0.000186136
-1.21716e-05
-0.000173815
-1.23209e-05
-0.000161403
-1.24127e-05
-0.000148958
-1.2445e-05
-0.000136542
-1.24158e-05
-0.000124219
-1.23233e-05
-0.000112053
-1.21657e-05
-0.000100111
-1.19418e-05
-8.84607e-05
-1.16503e-05
-7.71704e-05
-1.12903e-05
-6.63092e-05
-1.08612e-05
-5.59464e-05
-1.03627e-05
-4.61515e-05
-9.79493e-06
-3.6993e-05
-9.15841e-06
-2.85387e-05
-8.45433e-06
-2.08542e-05
-7.68455e-06
-1.40022e-05
-6.85192e-06
-8.04169e-06
-5.96055e-06
-3.02542e-06
-5.01627e-06
1.0019e-06
-4.0273e-06
4.00722e-06
-3.00533e-06
5.9744e-06
-1.96718e-06
6.9121e-06
-9.37713e-07
6.86662e-06
4.54562e-08
5.94258e-06
9.24076e-07
4.33504e-06
1.60758e-06
2.38441e-06
1.95063e-06
6.69636e-07
1.71476e-06
6.6959e-07
1.72269e-06
-2.40931e-06
4.71701e-06
-4.69651e-06
7.59845e-06
-4.78377e-06
9.3514e-06
-3.25443e-06
9.26082e-06
-6.7288e-07
6.87037e-06
2.55128e-06
1.91438e-06
6.13356e-06
-5.73661e-06
9.87837e-06
-1.61142e-05
1.36525e-05
-2.91826e-05
1.73628e-05
-4.48569e-05
2.09457e-05
-6.3018e-05
2.43564e-05
-8.35228e-05
2.75637e-05
-0.000106211
3.05463e-05
-0.000130911
3.32902e-05
-0.000157443
3.57859e-05
-0.000185623
3.80283e-05
-0.000215265
4.00152e-05
-0.000246182
4.17466e-05
-0.000278187
4.32241e-05
-0.000311098
4.44508e-05
-0.000344731
4.54309e-05
-0.00037891
4.61695e-05
-0.000413461
4.66722e-05
-0.000448214
4.69451e-05
-0.000483003
4.69948e-05
-0.00051767
4.68284e-05
-0.00055206
4.64532e-05
-0.000586024
4.58766e-05
-0.000619419
4.51063e-05
-0.000652107
4.41504e-05
-0.000683956
4.30169e-05
-0.000714842
4.1714e-05
-0.000744644
4.02499e-05
-0.000773249
3.86325e-05
-0.000800549
3.68702e-05
-0.000826444
3.49712e-05
-0.000850837
3.2944e-05
-0.00087364
3.07969e-05
-0.00089477
2.85382e-05
-0.000914151
2.61766e-05
-0.000931713
2.37208e-05
-0.000947393
2.11795e-05
-0.000961134
1.85616e-05
-0.000972885
1.58757e-05
-0.000982603
1.31309e-05
-0.00099025
1.03361e-05
-0.000995798
7.50033e-06
-0.000999222
4.63316e-06
-0.00100051
1.74404e-06
-0.000999641
-1.15745e-06
-0.000996625
-4.06162e-06
-0.000991465
-6.95861e-06
-0.000984172
-9.83846e-06
-0.000974767
-1.26911e-05
-0.000963278
-1.55062e-05
-0.000949741
-1.82735e-05
-0.000934199
-2.09825e-05
-0.000916704
-2.36224e-05
-0.000897314
-2.61827e-05
-0.000876096
-2.86526e-05
-0.000853127
-3.10213e-05
-0.000828488
-3.3278e-05
-0.000802272
-3.54119e-05
-0.000774575
-3.74125e-05
-0.000745506
-3.92692e-05
-0.000715178
-4.09719e-05
-0.000683713
-4.25103e-05
-0.00065124
-4.38742e-05
-0.000617895
-4.50539e-05
-0.000583823
-4.60398e-05
-0.000549171
-4.68227e-05
-0.000514098
-4.7394e-05
-0.000478765
-4.77455e-05
-0.000443341
-4.78694e-05
-0.000407998
-4.77586e-05
-0.000372915
-4.74067e-05
-0.000338272
-4.68079e-05
-0.000304257
-4.59576e-05
-0.000271055
-4.4852e-05
-0.000238857
-4.34883e-05
-0.000207853
-4.18652e-05
-0.000178233
-3.99828e-05
-0.000150185
-3.78427e-05
-0.000123895
-3.5449e-05
-9.95409e-05
-3.2808e-05
-7.72961e-05
-2.99293e-05
-5.73213e-05
-2.68268e-05
-3.97625e-05
-2.35194e-05
-2.47454e-05
-2.00333e-05
-1.23684e-05
-1.64043e-05
-2.69246e-06
-1.26813e-05
4.27253e-06
-8.93222e-06
8.58676e-06
-5.25195e-06
1.04075e-05
-1.77524e-06
1.00265e-05
1.3051e-06
7.92071e-06
3.71346e-06
4.81155e-06
5.05974e-06
1.71455e-06
4.81168e-06
2.3841e-06
1.87501e-06
-4.28417e-06
4.74969e-06
-7.57106e-06
6.90286e-06
-6.93628e-06
7.10737e-06
-3.45947e-06
4.47311e-06
1.96177e-06
-1.60973e-06
8.63383e-06
-1.15202e-05
1.60442e-05
-2.54636e-05
2.38224e-05
-4.35107e-05
3.16995e-05
-6.56318e-05
3.94839e-05
-9.17217e-05
4.70356e-05
-0.00012162
5.42543e-05
-0.000155124
6.10677e-05
-0.000192002
6.74243e-05
-0.000232
7.32882e-05
-0.000274849
7.8635e-05
-0.00032027
8.34494e-05
-0.000367978
8.77231e-05
-0.000417685
9.14529e-05
-0.000469101
9.46402e-05
-0.000521939
9.72892e-05
-0.000575916
9.94075e-05
-0.000630751
0.000101004
-0.000686169
0.000102091
-0.000741903
0.000102679
-0.00079769
0.000102782
-0.000853277
0.000102416
-0.000908419
0.000101594
-0.000962876
0.000100334
-0.00101642
9.86511e-05
-0.00106883
9.65624e-05
-0.0011199
9.40854e-05
-0.00116942
9.12373e-05
-0.00121721
8.80359e-05
-0.00126308
8.44988e-05
-0.00130685
8.06441e-05
-0.00134837
7.64898e-05
-0.00138748
7.20542e-05
-0.00142404
6.73556e-05
-0.00145791
6.24128e-05
-0.00148898
5.72444e-05
-0.00151713
5.18694e-05
-0.00154226
4.63071e-05
-0.00156427
4.05767e-05
-0.00158309
3.46977e-05
-0.00159865
2.86897e-05
-0.00161089
2.25727e-05
-0.00161976
1.63668e-05
-0.00162522
1.00927e-05
-0.00162724
3.77107e-06
-0.00162582
-2.57692e-06
-0.00162096
-8.92991e-06
-0.00161265
-1.52662e-05
-0.00160092
-2.15641e-05
-0.00158581
-2.78013e-05
-0.00156736
-3.39553e-05
-0.00154563
-4.00036e-05
-0.00152069
-4.5923e-05
-0.00149262
-5.16905e-05
-0.00146152
-5.72827e-05
-0.0014275
-6.26765e-05
-0.00139067
-6.78482e-05
-0.00135118
-7.27744e-05
-0.00130916
-7.7432e-05
-0.00126477
-8.17978e-05
-0.00121819
-8.58491e-05
-0.0011696
-8.95634e-05
-0.00111919
-9.29185e-05
-0.00106717
-9.58929e-05
-0.00101376
-9.84653e-05
-0.000959185
-0.000100616
-0.000903684
-0.000102324
-0.000847506
-0.000103572
-0.000790909
-0.000104342
-0.00073416
-0.000104619
-0.000677532
-0.000104386
-0.000621307
-0.000103632
-0.000565772
-0.000102344
-0.000511216
-0.000100513
-0.000457935
-9.81326e-05
-0.000406226
-9.51977e-05
-0.000356384
-9.1707e-05
-0.000308704
-8.76625e-05
-0.000263477
-8.30702e-05
-0.000220985
-7.79411e-05
-0.000181501
-7.22921e-05
-0.000145282
-6.61476e-05
-0.000112568
-5.95411e-05
-8.35691e-05
-5.25181e-05
-5.84628e-05
-4.51396e-05
-3.73802e-05
-3.74869e-05
-2.03927e-05
-2.96689e-05
-7.49327e-06
-2.18317e-05
1.42772e-06
-1.41729e-05
6.61367e-06
-6.96116e-06
8.48126e-06
-5.62467e-07
7.66821e-06
4.52656e-06
5.08364e-06
7.64429e-06
1.95757e-06
7.93771e-06
4.34164e-06
1.4801e-06
-5.76456e-06
3.23714e-06
-9.32822e-06
3.46248e-06
-7.16185e-06
8.4712e-07
-8.43816e-07
-5.5716e-06
8.38021e-06
-1.64692e-05
1.95311e-05
-3.2285e-05
3.186e-05
-5.3267e-05
4.48042e-05
-7.95112e-05
5.79438e-05
-0.000110993
7.09656e-05
-0.000147593
8.36365e-05
-0.000189123
9.57838e-05
-0.000235335
0.000107279
-0.000285941
0.00011803
-0.000340622
0.000127969
-0.000399035
0.000137048
-0.000460823
0.000145237
-0.000525616
0.000152516
-0.000593039
0.000158876
-0.000662714
0.000164316
-0.000734264
0.000168839
-0.000807314
0.000172457
-0.000881491
0.000175182
-0.000956433
0.000177032
-0.00103178
0.000178027
-0.00110719
0.000178188
-0.00118231
0.000177539
-0.00125682
0.000176106
-0.0013304
0.000173915
-0.00140275
0.000170994
-0.00147356
0.000167371
-0.00154255
0.000163076
-0.00160945
0.000158138
-0.001674
0.000152587
-0.00173595
0.000146455
-0.00179508
0.000139771
-0.00185116
0.000132568
-0.00190398
0.000124876
-0.00195335
0.000116729
-0.0019991
0.000108157
-0.00204105
9.91946e-05
-0.00207905
8.98737e-05
-0.00211297
8.02276e-05
-0.00214269
7.02901e-05
-0.00216808
6.0095e-05
-0.00218907
4.96768e-05
-0.00220557
3.907e-05
-0.00221751
2.83101e-05
-0.00222485
1.74325e-05
-0.00222755
6.47364e-06
-0.0022256
-4.52986e-06
-0.00221899
-1.55409e-05
-0.00220774
-2.65219e-05
-0.00219186
-3.74347e-05
-0.00217142
-4.8241e-05
-0.00214648
-5.89016e-05
-0.0021171
-6.93773e-05
-0.0020834
-7.96284e-05
-0.00204547
-8.96149e-05
-0.00200346
-9.92967e-05
-0.0019575
-0.000108633
-0.00190777
-0.000117584
-0.00185443
-0.00012611
-0.00179769
-0.000134169
-0.00173777
-0.000141724
-0.00167488
-0.000148733
-0.00160929
-0.000155159
-0.00154124
-0.000160964
-0.00147103
-0.00016611
-0.00139893
-0.000170562
-0.00132526
-0.000174286
-0.00125034
-0.000177248
-0.00117449
-0.000179416
-0.00109807
-0.000180762
-0.00102143
-0.000181258
-0.000944938
-0.000180881
-0.000868963
-0.000179607
-0.000793887
-0.00017742
-0.000720096
-0.000174304
-0.00064798
-0.000170249
-0.000577928
-0.000165249
-0.000510331
-0.000159305
-0.000445572
-0.000152421
-0.00038403
-0.000144612
-0.000326071
-0.0001359
-0.000272045
-0.000126318
-0.00022228
-0.000115912
-0.000177077
-0.000104745
-0.000136697
-9.28981e-05
-0.000101356
-8.04808e-05
-7.12078e-05
-6.76348e-05
-4.63305e-05
-5.45462e-05
-2.67039e-05
-4.14584e-05
-1.21852e-05
-2.86915e-05
-2.47948e-06
-1.66668e-05
2.89707e-06
-5.93899e-06
4.65881e-06
2.76486e-06
3.7958e-06
8.50729e-06
1.63255e-06
1.01009e-05
5.97417e-06
7.67995e-07
-6.53217e-06
7.24678e-07
-9.28536e-06
-1.84486e-06
-4.59176e-06
-8.22147e-06
5.53286e-06
-1.93602e-05
1.95194e-05
-3.59444e-05
3.61153e-05
-5.84266e-05
5.43423e-05
-8.70679e-05
7.34454e-05
-0.00012197
9.2846e-05
-0.000163106
0.000112101
-0.000210342
0.000130873
-0.000263462
0.000148904
-0.000322184
0.000166002
-0.000386175
0.00018202
-0.000455059
0.000196853
-0.000528434
0.000210424
-0.000605875
0.000222678
-0.000686942
0.000233582
-0.000771183
0.000243118
-0.000858145
0.000251277
-0.000947369
0.000258064
-0.0010384
0.000263489
-0.00113079
0.00026757
-0.00122409
0.00027033
-0.00131786
0.000271798
-0.00141167
0.000272004
-0.00150512
0.000270983
-0.00159778
0.000268771
-0.00168927
0.000265409
-0.00177922
0.000260937
-0.00186724
0.000255397
-0.001953
0.000248834
-0.00203615
0.000241291
-0.00211638
0.000232814
-0.00219338
0.000223451
-0.00226685
0.000213247
-0.00233654
0.00020225
-0.00240217
0.000190508
-0.00246351
0.000178071
-0.00252034
0.000164986
-0.00257245
0.000151305
-0.00261965
0.000137077
-0.00266178
0.000122353
-0.00269867
0.000107184
-0.0027302
9.16236e-05
-0.00275625
7.57227e-05
-0.00277671
5.95351e-05
-0.00279152
4.31148e-05
-0.0028006
2.65163e-05
-0.00280392
9.79503e-06
-0.00280146
-6.99296e-06
-0.00279321
-2.37909e-05
-0.00277919
-4.05414e-05
-0.00275944
-5.71863e-05
-0.00273401
-7.36667e-05
-0.00270299
-8.99232e-05
-0.00266647
-0.000105896
-0.00262458
-0.000121524
-0.00257744
-0.000136748
-0.00252523
-0.000151505
-0.00246813
-0.000165735
-0.00240634
-0.000179377
-0.00234008
-0.000192369
-0.0022696
-0.00020465
-0.00219516
-0.000216161
-0.00211705
-0.000226842
-0.00203558
-0.000236635
-0.00195106
-0.000245483
-0.00186384
-0.00025333
-0.00177428
-0.000260122
-0.00168276
-0.000265807
-0.00158967
-0.000270336
-0.00149542
-0.000273663
-0.00140044
-0.000275743
-0.00130516
-0.000276538
-0.00121003
-0.000276011
-0.00111551
-0.000274131
-0.00102205
-0.000270872
-0.000930142
-0.000266215
-0.000840246
-0.000260145
-0.000752837
-0.000252658
-0.000668387
-0.000243754
-0.00058736
-0.000233449
-0.000510208
-0.000221764
-0.000437368
-0.00020874
-0.000369257
-0.000194429
-0.000306261
-0.000178908
-0.000248733
-0.000162273
-0.000196976
-0.000144655
-0.000151238
-0.000126219
-0.000111693
-0.00010718
-7.84275e-05
-8.78117e-05
-5.14185e-05
-6.84675e-05
-3.05104e-05
-4.95995e-05
-1.53885e-05
-3.17887e-05
-5.54737e-06
-1.57801e-05
-2.56084e-07
-2.52634e-06
1.4812e-06
6.77e-06
9.78724e-07
1.06033e-05
6.95287e-06
-1.19475e-07
-6.41251e-06
-2.40646e-06
-6.99829e-06
-8.37289e-06
1.37424e-06
-1.91889e-05
1.63487e-05
-3.57426e-05
3.60731e-05
-5.86769e-05
5.90499e-05
-8.84216e-05
8.40869e-05
-0.000125223
0.000110246
-0.000169169
0.000136793
-0.000220218
0.00016315
-0.000278218
0.000188872
-0.000342925
0.000213611
-0.000414024
0.000237101
-0.000491141
0.000259137
-0.000573854
0.000279567
-0.000661709
0.000298278
-0.000754222
0.000315191
-0.000850891
0.000330251
-0.000951201
0.000343428
-0.00105463
0.000354704
-0.00116065
0.000364081
-0.00126873
0.00037157
-0.00137835
0.000377191
-0.00148899
0.000380974
-0.00160015
0.000382955
-0.00171132
0.000383175
-0.00182202
0.00038168
-0.00193177
0.000378519
-0.0020401
0.000373747
-0.00214659
0.00036742
-0.00225079
0.000359595
-0.00235229
0.000350333
-0.00245069
0.000339696
-0.00254562
0.000327748
-0.00263673
0.000314552
-0.00272365
0.000300175
-0.00280609
0.000284683
-0.00288372
0.000268143
-0.00295628
0.000250625
-0.00302349
0.000232196
-0.00308511
0.000212928
-0.00314092
0.000192891
-0.00319073
0.000172157
-0.00323434
0.000150797
-0.0032716
0.000128887
-0.00330238
0.000106498
-0.00332655
8.37078e-05
-0.00334403
6.0591e-05
-0.00335474
3.72252e-05
-0.00335863
1.36882e-05
-0.00335568
-9.94087e-06
-0.00334589
-3.35821e-05
-0.00332928
-5.71546e-05
-0.00330589
-8.05765e-05
-0.00327579
-0.000103765
-0.00323908
-0.000126636
-0.00319586
-0.000149107
-0.0031463
-0.000171091
-0.00309054
-0.000192504
-0.00302879
-0.00021326
-0.00296125
-0.000233274
-0.00288817
-0.000252459
-0.0028098
-0.00027073
-0.00272645
-0.000288002
-0.00263842
-0.000304192
-0.00254605
-0.000319217
-0.00244969
-0.000332995
-0.00234972
-0.000345447
-0.00224656
-0.000356495
-0.00214062
-0.000366065
-0.00203234
-0.000374085
-0.00192219
-0.000380488
-0.00181064
-0.000385208
-0.0016982
-0.000388188
-0.00158536
-0.000389372
-0.00147266
-0.000388712
-0.00136062
-0.000386168
-0.00124979
-0.000381705
-0.00114071
-0.000375297
-0.00103393
-0.000366929
-0.000929986
-0.000356597
-0.000829434
-0.000344306
-0.000732803
-0.00033008
-0.000640611
-0.000313956
-0.000553358
-0.000295993
-0.000471515
-0.000276272
-0.000395523
-0.0002549
-0.000325776
-0.00023202
-0.000262617
-0.000207814
-0.000206323
-0.000182513
-0.000157091
-0.000156412
-0.000115022
-0.000129881
-8.01031e-05
-0.000103386
-5.2186e-05
-7.75167e-05
-3.09635e-05
-5.3011e-05
-1.59457e-05
-3.07978e-05
-6.4311e-06
-1.20409e-05
-1.47688e-06
1.81579e-06
1.39732e-07
8.98661e-06
7.09258e-06
-1.09724e-06
-5.31531e-06
-5.89778e-06
-2.1977e-06
-1.56569e-05
1.11334e-05
-3.13807e-05
3.20724e-05
-5.38464e-05
5.85389e-05
-8.36207e-05
8.88241e-05
-0.00012108
0.000121546
-0.000166431
0.000155597
-0.000219731
0.000190094
-0.000280912
0.000224331
-0.000349793
0.000257753
-0.000426099
0.000289918
-0.000509483
0.000320484
-0.000599531
0.000349185
-0.00069578
0.000375816
-0.000797727
0.000400225
-0.000904838
0.000422302
-0.00101656
0.00044197
-0.00113231
0.00045918
-0.00125151
0.000473907
-0.00137358
0.000486146
-0.00149791
0.000495906
-0.00162393
0.000503211
-0.00175105
0.000508095
-0.0018787
0.000510603
-0.00200631
0.000510785
-0.00213333
0.000508701
-0.00225923
0.000504415
-0.00238347
0.000497994
-0.00250557
0.000489512
-0.00262501
0.000479044
-0.00274135
0.000466669
-0.00285412
0.000452469
-0.0029629
0.000436527
-0.00306728
0.000418928
-0.00316686
0.000399758
-0.00326129
0.000379107
-0.00335021
0.000357063
-0.0034333
0.000333716
-0.00351026
0.00030916
-0.00358082
0.000283488
-0.00364472
0.000256792
-0.00370174
0.00022917
-0.00375166
0.000200717
-0.0037943
0.000171532
-0.00382952
0.000141712
-0.00385717
0.000111358
-0.00387715
8.05726e-05
-0.00388938
4.9457e-05
-0.00389381
1.81156e-05
-0.0038904
-1.33462e-05
-0.00387916
-4.4822e-05
-0.00386011
-7.62041e-05
-0.0038333
-0.000107384
-0.00379882
-0.00013825
-0.00375676
-0.000168693
-0.00370727
-0.0001986
-0.0036505
-0.000227859
-0.00358665
-0.000256357
-0.00351593
-0.000283979
-0.00343859
-0.000310613
-0.00335491
-0.000336144
-0.00326518
-0.00036046
-0.00316973
-0.00038345
-0.00306892
-0.000405001
-0.00296313
-0.000425004
-0.00285277
-0.000443353
-0.00273828
-0.000459943
-0.0026201
-0.000474673
-0.00249872
-0.000487443
-0.00237465
-0.000498161
-0.00224839
-0.000506738
-0.00212051
-0.000513091
-0.00199156
-0.000517142
-0.00186211
-0.000518823
-0.00173275
-0.00051807
-0.00160408
-0.000514833
-0.00147672
-0.000509069
-0.00135127
-0.000500748
-0.00122835
-0.000489851
-0.00110856
-0.000476377
-0.000992532
-0.000460339
-0.000880841
-0.000441771
-0.00077407
-0.000420727
-0.000672773
-0.000397291
-0.000577473
-0.000371571
-0.000488656
-0.000343717
-0.000406759
-0.000313917
-0.00033216
-0.000282413
-0.000265167
-0.000249506
-0.000206005
-0.000215574
-0.000154799
-0.000181087
-0.000111558
-0.000146627
-7.61593e-05
-0.000112915
-4.83283e-05
-8.08419e-05
-2.76197e-05
-5.15064e-05
-1.33975e-05
-2.62631e-05
-4.81573e-06
-6.76597e-06
-7.97419e-07
4.9682e-06
6.29512e-06
-2.11513e-06
-3.20011e-06
-9.57828e-06
5.26528e-06
-2.33715e-05
2.49273e-05
-4.43094e-05
5.30102e-05
-7.30271e-05
8.72563e-05
-0.000109987
0.000125784
-0.00015549
0.000167048
-0.000209682
0.00020979
-0.000272576
0.000252987
-0.00034406
0.000295815
-0.000423917
0.00033761
-0.000511839
0.00037784
-0.00060744
0.000416085
-0.000710269
0.000452013
-0.000819821
0.000485368
-0.000935549
0.000515953
-0.00105687
0.000543625
-0.00118318
0.000568281
-0.00131386
0.000589855
-0.00144826
0.000608308
-0.00158574
0.000623628
-0.00172566
0.000635822
-0.00186736
0.000644914
-0.00201021
0.000650946
-0.00215357
0.000653968
-0.00229683
0.000654042
-0.00243937
0.00065124
-0.0025806
0.000645641
-0.00271993
0.000637329
-0.00285682
0.000626395
-0.00299071
0.000612934
-0.00312108
0.000597045
-0.00324744
0.000578829
-0.00336931
0.000558393
-0.00348622
0.000535844
-0.00359776
0.000511292
-0.0037035
0.000484849
-0.00380307
0.000456629
-0.0038961
0.000426748
-0.00398226
0.000395322
-0.00406124
0.000362472
-0.00413277
0.000328317
-0.00419658
0.000292978
-0.00425244
0.00025658
-0.00430016
0.000219248
-0.00433955
0.000181107
-0.00437048
0.000142286
-0.00439282
0.000102915
-0.00440649
6.31249e-05
-0.00441142
2.30486e-05
-0.00440759
-1.71793e-05
-0.00439499
-5.74227e-05
-0.00437365
-9.7544e-05
-0.00434363
-0.000137404
-0.00430502
-0.000176862
-0.00425793
-0.000215777
-0.00420253
-0.000254006
-0.00413898
-0.000291406
-0.0040675
-0.000327831
-0.00398834
-0.000363138
-0.00390177
-0.000397183
-0.0038081
-0.00042982
-0.00370765
-0.000460907
-0.0036008
-0.000490301
-0.00348794
-0.000517861
-0.00336949
-0.00054345
-0.00324592
-0.000566931
-0.00311769
-0.000588172
-0.00298532
-0.000607045
-0.00284933
-0.000623427
-0.00271029
-0.000637199
-0.00256878
-0.000648251
-0.00242539
-0.000656478
-0.00228075
-0.000661785
-0.00213549
-0.000664085
-0.00199026
-0.000663302
-0.00184572
-0.000659374
-0.00170254
-0.000652249
-0.00156139
-0.000641892
-0.00142296
-0.000628284
-0.00128791
-0.000611427
-0.00115691
-0.000591343
-0.0010306
-0.000568078
-0.000909623
-0.000541707
-0.000794575
-0.000512338
-0.000686031
-0.000480116
-0.000584519
-0.00044523
-0.000490515
-0.000407921
-0.000404437
-0.000368491
-0.000326626
-0.000327317
-0.00025734
-0.00028486
-0.000196736
-0.00024169
-0.000144861
-0.000198502
-0.000101634
-0.000156143
-6.68308e-05
-0.000115645
-4.00756e-05
-7.82616e-05
-2.08248e-05
-4.55139e-05
-8.3594e-06
-1.92314e-05
-1.77921e-06
-1.6121e-06
4.51587e-06
-3.14156e-06
-5.86264e-08
-1.33355e-05
1.54594e-05
-3.12961e-05
4.28878e-05
-5.76298e-05
7.93438e-05
-9.28144e-05
0.000122441
-0.000137191
0.000170161
-0.000190963
0.000220821
-0.000254203
0.00027303
-0.000326861
0.000325645
-0.000408775
0.000377729
-0.000499682
0.000428517
-0.000599231
0.00047739
-0.000706996
0.00052385
-0.000822485
0.000567502
-0.000945152
0.000608035
-0.00107441
0.000645209
-0.00120963
0.000678843
-0.00135015
0.000708809
-0.00149532
0.00073502
-0.00164443
0.000757422
-0.0017968
0.000775996
-0.00195172
0.000790745
-0.0021085
0.000801694
-0.00226645
0.000808888
-0.00242486
0.000812386
-0.00258308
0.000812262
-0.00274044
0.000808599
-0.00289629
0.000801491
-0.00305
0.000791042
-0.00320097
0.000777359
-0.00334859
0.000760559
-0.00349231
0.000740761
-0.00363157
0.000718091
-0.00376586
0.000692678
-0.00389466
0.000664654
-0.00401753
0.000634154
-0.00413399
0.000601316
-0.00424364
0.00056628
-0.00434609
0.000529191
-0.00444096
0.000490191
-0.00452791
0.000449429
-0.00460665
0.000407053
-0.00467689
0.000363214
-0.00473837
0.000318066
-0.00479089
0.000271762
-0.00483424
0.000224459
-0.00486827
0.000176316
-0.00489285
0.000127495
-0.00490788
7.81565e-05
-0.0049133
2.84666e-05
-0.00490907
-2.14086e-05
-0.00489519
-7.13005e-05
-0.0048717
-0.000121039
-0.00483865
-0.000170451
-0.00479615
-0.000219364
-0.00474432
-0.000267603
-0.00468334
-0.00031499
-0.00461339
-0.000361349
-0.00453472
-0.000406502
-0.00444759
-0.000450271
-0.0043523
-0.000492476
-0.00424918
-0.000532941
-0.00413859
-0.000571489
-0.00402095
-0.000607944
-0.00389668
-0.000642134
-0.00376624
-0.000673888
-0.00363013
-0.000703041
-0.00348887
-0.00072943
-0.00334302
-0.000752897
-0.00319315
-0.000773293
-0.00303988
-0.000790472
-0.00288383
-0.000804301
-0.00272566
-0.000814652
-0.00256603
-0.000821409
-0.00240565
-0.000824469
-0.00224521
-0.000823741
-0.00208543
-0.00081915
-0.00192704
-0.000810637
-0.00177077
-0.000798162
-0.00161735
-0.000781706
-0.0014675
-0.000761275
-0.00132195
-0.000736899
-0.00118139
-0.00070864
-0.0010465
-0.000676596
-0.000917931
-0.000640902
-0.000796308
-0.000601739
-0.000682198
-0.00055934
-0.000576119
-0.000513999
-0.000478527
-0.000466083
-0.000389803
-0.000416041
-0.000310244
-0.000364419
-0.000240051
-0.000311883
-0.000179317
-0.000259236
-0.000128016
-0.000207444
-8.59943e-05
-0.000157666
-5.29614e-05
-0.000111294
-2.84854e-05
-6.99899e-05
-1.19925e-05
-3.57244e-05
-2.77336e-06
-1.08313e-05
1.74249e-06
-4.1593e-06
4.10093e-06
-1.70993e-05
2.83991e-05
-3.92794e-05
6.5068e-05
-7.11002e-05
0.000111165
-0.000112872
0.000164213
-0.000164803
0.000222091
-0.000226987
0.000283005
-0.000299409
0.000345452
-0.000381946
0.000408182
-0.000474374
0.000470157
-0.000576377
0.000530519
-0.000687555
0.000588568
-0.000807436
0.000643731
-0.000935485
0.000695552
-0.00107111
0.000743664
-0.00121369
0.000787784
-0.00136254
0.000827696
-0.00151697
0.000863243
-0.00167627
0.000894315
-0.00183969
0.000920846
-0.0020065
0.000942805
-0.00217595
0.000960193
-0.00234729
0.000973034
-0.00251978
0.000981378
-0.00269269
0.000985291
-0.00286528
0.000984857
-0.00303686
0.000980175
-0.00320672
0.000971353
-0.00337419
0.000958513
-0.00353862
0.000941784
-0.00369936
0.000921301
-0.00385581
0.000897209
-0.00400737
0.000869656
-0.00415349
0.000838797
-0.00429363
0.00080479
-0.00442727
0.000767797
-0.00455394
0.000727985
-0.00467318
0.000685522
-0.00478457
0.000640581
-0.00488772
0.000593335
-0.00498225
0.000543963
-0.00506784
0.000492643
-0.00514418
0.000439558
-0.00521101
0.000384894
-0.00526808
0.000328835
-0.0053152
0.000271573
-0.00535218
0.000213299
-0.00537889
0.000154207
-0.00539523
9.44931e-05
-0.00540112
3.4357e-05
-0.00539653
-2.60004e-05
-0.00538145
-8.63755e-05
-0.00535593
-0.000146563
-0.00532003
-0.000206354
-0.00527385
-0.00026554
-0.00521754
-0.00032391
-0.00515128
-0.00038125
-0.00507528
-0.000437348
-0.0049898
-0.000491989
-0.00489511
-0.000544957
-0.00479155
-0.00059604
-0.00467947
-0.000645022
-0.00455926
-0.000691691
-0.00443137
-0.000735838
-0.00429625
-0.000777254
-0.0041544
-0.000815736
-0.00400636
-0.000851083
-0.00385269
-0.000883102
-0.00369398
-0.000911606
-0.00353086
-0.000936413
-0.00336398
-0.000957352
-0.00319402
-0.000974263
-0.00302168
-0.000986995
-0.00284767
-0.000995412
-0.00267275
-0.00099939
-0.00249767
-0.000998824
-0.00232319
-0.000993626
-0.0021501
-0.000983729
-0.00197918
-0.000969089
-0.0018112
-0.000949687
-0.00164694
-0.000925532
-0.00148717
-0.000896666
-0.00133264
-0.000863169
-0.00118408
-0.000825158
-0.00104218
-0.0007828
-0.000907609
-0.000736312
-0.000780976
-0.000685972
-0.000662845
-0.000632131
-0.000553714
-0.000575215
-0.000454007
-0.000515747
-0.00036407
-0.000454357
-0.000284152
-0.000391801
-0.000214405
-0.000328983
-0.000154871
-0.000266978
-0.000105476
-0.000207061
-6.60305e-05
-0.00015074
-3.62252e-05
-9.97953e-05
-1.56407e-05
-5.6309e-05
-3.76073e-06
-2.27114e-05
-2.01823e-06
-5.15795e-06
9.25889e-06
-2.08246e-05
4.40656e-05
-4.72246e-05
9.1468e-05
-8.45572e-05
0.000148497
-0.000132965
0.000212621
-0.000192516
0.000281641
-0.000263187
0.000353676
-0.000344866
0.000427131
-0.000437348
0.000500664
-0.000540338
0.000573147
-0.000653458
0.000643639
-0.000776254
0.000711364
-0.000908205
0.000775682
-0.00104873
0.000836075
-0.00119719
0.000892125
-0.00135291
0.000943507
-0.00151519
0.000989969
-0.00168327
0.00103132
-0.00185639
0.00106744
-0.00203379
0.00109824
-0.00221467
0.00112368
-0.00239823
0.00114376
-0.0025837
0.0011585
-0.00277027
0.00116795
-0.00295718
0.0011722
-0.00314365
0.00117133
-0.00332893
0.00116545
-0.00351228
0.0011547
-0.00369298
0.00113921
-0.00387033
0.00111913
-0.00404365
0.00109463
-0.0042123
0.00106586
-0.00437565
0.001033
-0.00453309
0.00099624
-0.00468406
0.000955758
-0.00482801
0.000911747
-0.00496443
0.000864402
-0.00509283
0.000813923
-0.00521276
0.000760512
-0.0053238
0.000704377
-0.00542556
0.000645726
-0.00551769
0.000584772
-0.00559986
0.00052173
-0.00567179
0.000456821
-0.00573322
0.000390263
-0.00578393
0.000322283
-0.00582374
0.000253106
-0.00585249
0.000182964
-0.00587009
0.000112088
-0.00587645
4.07146e-05
-0.00587153
-3.09185e-05
-0.00585533
-0.00010257
-0.0058279
-0.000173998
-0.0057893
-0.000244954
-0.00573964
-0.000315193
-0.00567909
-0.000384463
-0.00560783
-0.000452514
-0.00552608
-0.000519094
-0.00543412
-0.000583949
-0.00533225
-0.000646825
-0.00522082
-0.00070747
-0.00510021
-0.000765632
-0.00497085
-0.000821059
-0.00483318
-0.000873505
-0.00468771
-0.000922725
-0.00453496
-0.000968478
-0.00437552
-0.00101053
-0.00420996
-0.00104866
-0.00403894
-0.00108263
-0.00386311
-0.00111224
-0.00368316
-0.0011373
-0.00349982
-0.0011576
-0.00331383
-0.00117298
-0.00312597
-0.00118328
-0.002937
-0.00118835
-0.00274775
-0.00118808
-0.00255903
-0.00118235
-0.00237165
-0.0011711
-0.00218646
-0.00115428
-0.00200427
-0.00113187
-0.00182592
-0.00110388
-0.00165222
-0.00107037
-0.00148396
-0.00103143
-0.00132191
-0.000987204
-0.00116682
-0.000937886
-0.0010194
-0.000883733
-0.000880307
-0.000825068
-0.000750143
-0.000762295
-0.000629456
-0.000695902
-0.00051872
-0.000626482
-0.000418333
-0.000554744
-0.000328603
-0.000481531
-0.000249748
-0.000407838
-0.000181887
-0.000334839
-0.000125037
-0.000263911
-7.91148e-05
-0.000196662
-4.39428e-05
-0.000134967
-1.92574e-05
-8.09944e-05
-4.73029e-06
-3.72386e-05
-6.74849e-06
-6.1322e-06
1.53909e-05
-2.44849e-05
6.24185e-05
-5.50688e-05
0.000122052
-9.78924e-05
0.000191321
-0.000152933
0.000267662
-0.000220116
0.000348824
-0.000299297
0.000432858
-0.000390261
0.000518095
-0.000492713
0.000603116
-0.00060628
0.000686714
-0.000730518
0.000767878
-0.000864912
0.000845758
-0.00100889
0.000919655
-0.00116181
0.000988994
-0.00132299
0.00105331
-0.00149172
0.00111223
-0.00166723
0.00116548
-0.00184874
0.00121284
-0.00203545
0.00125415
-0.00222654
0.00128933
-0.00242117
0.00131832
-0.00261852
0.00134111
-0.00281774
0.00135772
-0.00301802
0.00136823
-0.00321851
0.0013727
-0.00341843
0.00137124
-0.00361697
0.00136399
-0.00381335
0.00135108
-0.00400682
0.00133268
-0.00419664
0.00130895
-0.00438209
0.00128008
-0.00456248
0.00124625
-0.00473716
0.00120768
-0.00490548
0.00116457
-0.00506685
0.00111713
-0.00522069
0.00106559
-0.00536646
0.00101017
-0.00550365
0.000951106
-0.00563177
0.000888632
-0.00575038
0.000822988
-0.00585907
0.000754417
-0.00595746
0.000683167
-0.00604522
0.000609489
-0.00612204
0.000533637
-0.00618764
0.000455869
-0.00624181
0.000376446
-0.00628433
0.000295632
-0.00631506
0.000213695
-0.00633388
0.000130907
-0.00634071
4.75412e-05
-0.0063355
-3.61248e-05
-0.00631826
-0.000119811
-0.00628903
-0.000203233
-0.00624788
-0.000286106
-0.00619493
-0.000368142
-0.00613034
-0.000449049
-0.00605432
-0.000528536
-0.0059671
-0.00060631
-0.00586898
-0.000682076
-0.00576026
-0.000755541
-0.00564132
-0.000826409
-0.00551256
-0.000894389
-0.00537443
-0.00095919
-0.00522741
-0.00102053
-0.00507203
-0.00107811
-0.00490883
-0.00113167
-0.00473844
-0.00118093
-0.00456147
-0.00122562
-0.00437859
-0.0012655
-0.00419052
-0.00130032
-0.00399797
-0.00132985
-0.00380171
-0.00135386
-0.00360252
-0.00137217
-0.00340122
-0.00138458
-0.00319864
-0.00139094
-0.00299561
-0.0013911
-0.00279301
-0.00138495
-0.0025917
-0.00137241
-0.00239256
-0.00135343
-0.00219645
-0.00132797
-0.00200426
-0.00129608
-0.00181684
-0.00125779
-0.00163503
-0.00121324
-0.00145965
-0.00116258
-0.00129149
-0.00110605
-0.00113129
-0.00104392
-0.000979782
-0.000976581
-0.000837603
-0.000904474
-0.000705353
-0.000828152
-0.000583561
-0.000748274
-0.000472683
-0.000665623
-0.000373092
-0.000581122
-0.00028508
-0.00049585
-0.000208848
-0.000411071
-0.000144513
-0.000328246