/*--------------------------------*- C++ -*----------------------------------*\
  =========                 |
  \\      /  F ield         | OpenFOAM: The Open Source CFD Toolbox
   \\    /   O peration     | Website:  https://openfoam.org
    \\  /    A nd           | Version:  11
     \\/     M anipulation  |
\*---------------------------------------------------------------------------*/
FoamFile
{
    format      ascii;
    class       volVectorField;
    location    "8.5";
    object      U;
}
// * * * * * * * * * * * * * * * * * * * * * * * * * * * * * * * * * * * * * //

dimensions      [0 1 -1 0 0 0 0];

internalField   nonuniform List<vector> 
10100
(
(3.21787e-06 -2.80169e-06 0)
(1.5039e-05 -7.5789e-06 0)
(3.40666e-05 -8.99418e-06 0)
(5.19976e-05 -7.82112e-06 0)
(6.39398e-05 -5.32856e-06 0)
(6.7278e-05 -2.18255e-06 0)
(6.07556e-05 1.23064e-06 0)
(4.37863e-05 4.69461e-06 0)
(1.62557e-05 8.09432e-06 0)
(-2.16555e-05 1.13573e-05 0)
(-6.95894e-05 1.44399e-05 0)
(-0.000127043 1.73221e-05 0)
(-0.00019345 1.99931e-05 0)
(-0.000268185 2.2443e-05 0)
(-0.000350583 2.46715e-05 0)
(-0.000439963 2.66786e-05 0)
(-0.000535636 2.84651e-05 0)
(-0.000636908 3.00359e-05 0)
(-0.000743084 3.13955e-05 0)
(-0.000853484 3.2548e-05 0)
(-0.000967436 3.34983e-05 0)
(-0.00108428 3.42526e-05 0)
(-0.00120337 3.4819e-05 0)
(-0.00132407 3.52032e-05 0)
(-0.00144579 3.54083e-05 0)
(-0.00156792 3.54407e-05 0)
(-0.00168988 3.53088e-05 0)
(-0.00181113 3.5019e-05 0)
(-0.00193114 3.4577e-05 0)
(-0.00204938 3.39886e-05 0)
(-0.00216536 3.32591e-05 0)
(-0.00227862 3.23962e-05 0)
(-0.0023887 3.14085e-05 0)
(-0.00249518 3.03019e-05 0)
(-0.00259765 2.90812e-05 0)
(-0.00269573 2.77522e-05 0)
(-0.00278904 2.6322e-05 0)
(-0.00287726 2.47972e-05 0)
(-0.00296006 2.31835e-05 0)
(-0.00303714 2.14867e-05 0)
(-0.00310822 1.97128e-05 0)
(-0.00317304 1.78685e-05 0)
(-0.00323139 1.59608e-05 0)
(-0.00328303 1.39963e-05 0)
(-0.0033278 1.19819e-05 0)
(-0.00336553 9.9237e-06 0)
(-0.00339606 7.82749e-06 0)
(-0.00341929 5.69915e-06 0)
(-0.00343512 3.54533e-06 0)
(-0.00344348 1.37373e-06 0)
(-0.00344432 -8.0737e-07 0)
(-0.00343763 -2.99045e-06 0)
(-0.0034234 -5.16901e-06 0)
(-0.00340167 -7.33658e-06 0)
(-0.00337249 -9.48612e-06 0)
(-0.00333594 -1.16099e-05 0)
(-0.00329214 -1.36994e-05 0)
(-0.00324122 -1.57464e-05 0)
(-0.00318333 -1.77426e-05 0)
(-0.00311868 -1.96802e-05 0)
(-0.00304748 -2.15513e-05 0)
(-0.00296997 -2.33477e-05 0)
(-0.00288644 -2.50609e-05 0)
(-0.00279719 -2.66819e-05 0)
(-0.00270254 -2.82024e-05 0)
(-0.00260287 -2.96148e-05 0)
(-0.00249855 -3.09117e-05 0)
(-0.00238999 -3.20854e-05 0)
(-0.00227765 -3.31281e-05 0)
(-0.00216198 -3.40315e-05 0)
(-0.00204347 -3.47876e-05 0)
(-0.00192265 -3.53887e-05 0)
(-0.00180005 -3.58278e-05 0)
(-0.00167624 -3.60982e-05 0)
(-0.00155181 -3.61934e-05 0)
(-0.00142735 -3.6107e-05 0)
(-0.0013035 -3.5833e-05 0)
(-0.0011809 -3.53658e-05 0)
(-0.0010602 -3.47005e-05 0)
(-0.000942078 -3.3833e-05 0)
(-0.000827212 -3.27596e-05 0)
(-0.00071629 -3.14769e-05 0)
(-0.000610006 -2.99821e-05 0)
(-0.000509055 -2.82734e-05 0)
(-0.000414128 -2.63502e-05 0)
(-0.000325909 -2.42133e-05 0)
(-0.000245067 -2.18648e-05 0)
(-0.000172247 -1.93091e-05 0)
(-0.00010806 -1.65535e-05 0)
(-5.30711e-05 -1.361e-05 0)
(-7.77437e-06 -1.04967e-05 0)
(2.74312e-05 -7.24139e-06 0)
(5.22846e-05 -3.88853e-06 0)
(6.67256e-05 -5.10785e-07 0)
(7.09973e-05 2.76944e-06 0)
(6.58052e-05 5.74147e-06 0)
(5.25393e-05 8.04176e-06 0)
(3.37394e-05 9.025e-06 0)
(1.44714e-05 7.59774e-06 0)
(2.79088e-06 2.78968e-06 0)
(7.85066e-06 -1.47807e-05 0)
(3.14266e-05 -3.10736e-05 0)
(6.29673e-05 -3.35745e-05 0)
(8.84047e-05 -2.58202e-05 0)
(9.8127e-05 -1.17647e-05 0)
(8.65656e-05 5.91524e-06 0)
(5.03018e-05 2.54984e-05 0)
(-1.25287e-05 4.58321e-05 0)
(-0.000102667 6.62036e-05 0)
(-0.000220039 8.61065e-05 0)
(-0.00036399 0.000105229 0)
(-0.000533481 0.000123348 0)
(-0.000727174 0.000140323 0)
(-0.000943538 0.000156055 0)
(-0.0011809 0.000170487 0)
(-0.0014375 0.00018358 0)
(-0.00171152 0.000195316 0)
(-0.00200108 0.000205696 0)
(-0.00230433 0.000214726 0)
(-0.0026194 0.00022242 0)
(-0.00294443 0.000228799 0)
(-0.00327759 0.00023389 0)
(-0.00361708 0.000237723 0)
(-0.00396115 0.000240331 0)
(-0.00430808 0.000241746 0)
(-0.00465619 0.000242004 0)
(-0.00500386 0.000241144 0)
(-0.00534952 0.000239206 0)
(-0.00569165 0.000236229 0)
(-0.00602879 0.000232254 0)
(-0.00635954 0.000227322 0)
(-0.00668254 0.000221476 0)
(-0.00699652 0.00021476 0)
(-0.00730025 0.000207218 0)
(-0.00759256 0.000198888 0)
(-0.00787234 0.000189813 0)
(-0.00813856 0.000180038 0)
(-0.00839023 0.000169604 0)
(-0.00862642 0.000158555 0)
(-0.00884628 0.000146933 0)
(-0.00904902 0.000134782 0)
(-0.0092339 0.000122148 0)
(-0.00940026 0.000109075 0)
(-0.00954749 9.56078e-05 0)
(-0.00967507 8.17923e-05 0)
(-0.00978251 6.76734e-05 0)
(-0.00986942 5.32963e-05 0)
(-0.00993546 3.87075e-05 0)
(-0.00998037 2.39548e-05 0)
(-0.0100039 9.08727e-06 0)
(-0.010006 -5.8452e-06 0)
(-0.00998664 -2.07927e-05 0)
(-0.00994573 -3.57053e-05 0)
(-0.00988342 -5.05325e-05 0)
(-0.00979987 -6.52226e-05 0)
(-0.00969533 -7.97232e-05 0)
(-0.0095701 -9.39807e-05 0)
(-0.00942459 -0.000107941 0)
(-0.00925927 -0.000121548 0)
(-0.00907468 -0.000134747 0)
(-0.00887147 -0.000147484 0)
(-0.00865034 -0.000159701 0)
(-0.00841209 -0.000171343 0)
(-0.00815758 -0.000182353 0)
(-0.00788776 -0.000192678 0)
(-0.00760366 -0.000202262 0)
(-0.00730638 -0.000211054 0)
(-0.0069971 -0.000219 0)
(-0.00667708 -0.000226047 0)
(-0.00634765 -0.000232143 0)
(-0.0060102 -0.000237239 0)
(-0.00566621 -0.000241286 0)
(-0.00531719 -0.000244238 0)
(-0.00496475 -0.000246051 0)
(-0.00461055 -0.000246685 0)
(-0.00425628 -0.0002461 0)
(-0.00390371 -0.000244263 0)
(-0.00355463 -0.000241141 0)
(-0.00321088 -0.000236707 0)
(-0.00287433 -0.00023094 0)
(-0.00254687 -0.000223822 0)
(-0.00223039 -0.000215342 0)
(-0.00192681 -0.000205496 0)
(-0.00163801 -0.000194287 0)
(-0.00136588 -0.000181731 0)
(-0.00111223 -0.000167851 0)
(-0.000878831 -0.000152691 0)
(-0.000667362 -0.00013631 0)
(-0.000479368 -0.000118798 0)
(-0.000316223 -0.000100275 0)
(-0.000179066 -8.09158e-05 0)
(-6.87228e-05 -6.09616e-05 0)
(1.44143e-05 -4.07584e-05 0)
(7.05426e-05 -2.08086e-05 0)
(0.000100681 -1.85517e-06 0)
(0.000106985 1.49859e-05 0)
(9.31019e-05 2.80344e-05 0)
(6.47375e-05 3.47562e-05 0)
(3.14951e-05 3.14796e-05 0)
(7.5976e-06 1.44601e-05 0)
(8.83125e-06 -3.36567e-05 0)
(3.33e-05 -6.26987e-05 0)
(6.13782e-05 -6.16706e-05 0)
(7.60182e-05 -3.88324e-05 0)
(6.57329e-05 -1.39023e-06 0)
(2.33125e-05 4.52117e-05 0)
(-5.59507e-05 9.70531e-05 0)
(-0.000174888 0.000151398 0)
(-0.00033479 0.000206295 0)
(-0.000535796 0.000260403 0)
(-0.000777179 0.000312756 0)
(-0.00105756 0.00036268 0)
(-0.00137511 0.000409701 0)
(-0.00172761 0.000453485 0)
(-0.00211264 0.000493807 0)
(-0.00252755 0.000530518 0)
(-0.0029696 0.000563531 0)
(-0.00343595 0.000592804 0)
(-0.00392373 0.000618329 0)
(-0.00443006 0.000640124 0)
(-0.00495204 0.000658227 0)
(-0.00548681 0.000672698 0)
(-0.00603155 0.000683609 0)
(-0.00658349 0.000691037 0)
(-0.00713991 0.000695071 0)
(-0.00769815 0.000695808 0)
(-0.00825565 0.000693349 0)
(-0.00880989 0.000687802 0)
(-0.00935846 0.000679276 0)
(-0.00989903 0.000667883 0)
(-0.0104293 0.00065374 0)
(-0.0109473 0.000636967 0)
(-0.0114507 0.000617684 0)
(-0.0119377 0.000596011 0)
(-0.0124064 0.000572066 0)
(-0.012855 0.000545973 0)
(-0.0132819 0.000517853 0)
(-0.0136854 0.000487832 0)
(-0.0140641 0.000456033 0)
(-0.0144166 0.000422581 0)
(-0.0147416 0.000387605 0)
(-0.0150379 0.000351231 0)
(-0.0153046 0.00031359 0)
(-0.0155405 0.000274812 0)
(-0.0157449 0.000235029 0)
(-0.0159169 0.000194372 0)
(-0.016056 0.000152975 0)
(-0.0161616 0.000110975 0)
(-0.0162334 6.85094e-05 0)
(-0.0162708 2.57202e-05 0)
(-0.0162739 -1.72504e-05 0)
(-0.0162424 -6.02582e-05 0)
(-0.0161765 -0.000103157 0)
(-0.0160763 -0.0001458 0)
(-0.015942 -0.000188036 0)
(-0.0157741 -0.000229715 0)
(-0.015573 -0.000270682 0)
(-0.0153395 -0.000310782 0)
(-0.0150742 -0.000349857 0)
(-0.0147781 -0.00038775 0)
(-0.0144522 -0.000424302 0)
(-0.0140977 -0.000459353 0)
(-0.0137157 -0.000492744 0)
(-0.0133077 -0.000524317 0)
(-0.0128753 -0.000553915 0)
(-0.01242 -0.000581383 0)
(-0.0119437 -0.000606568 0)
(-0.0114482 -0.000629319 0)
(-0.0109355 -0.000649489 0)
(-0.0104078 -0.000666932 0)
(-0.00986733 -0.000681508 0)
(-0.00931634 -0.000693084 0)
(-0.00875732 -0.000701531 0)
(-0.00819279 -0.00070673 0)
(-0.00762539 -0.000708565 0)
(-0.00705782 -0.000706936 0)
(-0.00649285 -0.000701747 0)
(-0.00593333 -0.000692918 0)
(-0.00538215 -0.000680381 0)
(-0.00484224 -0.000664082 0)
(-0.00431656 -0.000643986 0)
(-0.00380807 -0.000620074 0)
(-0.00331974 -0.000592354 0)
(-0.0028545 -0.000560856 0)
(-0.00241522 -0.000525644 0)
(-0.00200468 -0.000486822 0)
(-0.00162556 -0.000444541 0)
(-0.00128034 -0.000399014 0)
(-0.000971299 -0.000350537 0)
(-0.000700396 -0.000299509 0)
(-0.000469203 -0.000246471 0)
(-0.000278773 -0.000192162 0)
(-0.00012948 -0.000137589 0)
(-2.08061e-05 -8.41455e-05 0)
(4.89335e-05 -3.37719e-05 0)
(8.2947e-05 1.08162e-05 0)
(8.6304e-05 4.58327e-05 0)
(6.64058e-05 6.6091e-05 0)
(3.49146e-05 6.47583e-05 0)
(9.05117e-06 3.37431e-05 0)
(7.62634e-06 -5.15095e-05 0)
(2.55861e-05 -8.80929e-05 0)
(3.87863e-05 -7.63827e-05 0)
(2.98559e-05 -2.97381e-05 0)
(-1.32721e-05 4.1073e-05 0)
(-9.85125e-05 0.000127686 0)
(-0.000231251 0.000223795 0)
(-0.000414822 0.000324753 0)
(-0.000650873 0.000427144 0)
(-0.000939681 0.000528481 0)
(-0.00128048 0.000626934 0)
(-0.00167167 0.000721175 0)
(-0.00211104 0.00081023 0)
(-0.00259588 0.000893403 0)
(-0.00312313 0.000970201 0)
(-0.00368947 0.00104028 0)
(-0.00429138 0.00110343 0)
(-0.0049252 0.00115953 0)
(-0.00558722 0.0012085 0)
(-0.00627365 0.00125038 0)
(-0.00698071 0.00128519 0)
(-0.00770463 0.00131303 0)
(-0.00844168 0.00133402 0)
(-0.00918818 0.00134829 0)
(-0.00994051 0.00135601 0)
(-0.0106951 0.00135734 0)
(-0.0114486 0.00135248 0)
(-0.0121976 0.00134162 0)
(-0.0129388 0.00132498 0)
(-0.0136692 0.00130275 0)
(-0.0143857 0.00127517 0)
(-0.0150854 0.00124247 0)
(-0.0157655 0.00120486 0)
(-0.0164234 0.00116258 0)
(-0.0170565 0.00111587 0)
(-0.0176625 0.00106496 0)
(-0.018239 0.0010101 0)
(-0.018784 0.000951515 0)
(-0.0192955 0.000889458 0)
(-0.0197715 0.000824171 0)
(-0.0202104 0.000755904 0)
(-0.0206105 0.000684908 0)
(-0.0209705 0.000611437 0)
(-0.0212889 0.000535745 0)
(-0.0215647 0.00045809 0)
(-0.0217969 0.000378732 0)
(-0.0219845 0.000297936 0)
(-0.0221268 0.000215968 0)
(-0.0222233 0.000133101 0)
(-0.0222736 4.96106e-05 0)
(-0.0222774 -3.42247e-05 0)
(-0.0222345 -0.000118123 0)
(-0.0221452 -0.000201798 0)
(-0.0220094 -0.00028496 0)
(-0.0218277 -0.000367316 0)
(-0.0216006 -0.000448569 0)
(-0.0213288 -0.000528419 0)
(-0.0210132 -0.000606564 0)
(-0.0206547 -0.000682698 0)
(-0.0202547 -0.000756515 0)
(-0.0198144 -0.000827705 0)
(-0.0193355 -0.000895962 0)
(-0.0188197 -0.000960975 0)
(-0.0182688 -0.00102244 0)
(-0.017685 -0.00108005 0)
(-0.0170703 -0.00113351 0)
(-0.0164273 -0.00118252 0)
(-0.0157584 -0.00122678 0)
(-0.0150664 -0.00126603 0)
(-0.0143541 -0.00129997 0)
(-0.0136245 -0.00132834 0)
(-0.0128807 -0.00135089 0)
(-0.012126 -0.00136737 0)
(-0.0113638 -0.00137756 0)
(-0.0105976 -0.00138124 0)
(-0.00983104 -0.00137823 0)
(-0.00906775 -0.00136835 0)
(-0.00831155 -0.00135145 0)
(-0.00756625 -0.00132742 0)
(-0.00683575 -0.00129617 0)
(-0.00612394 -0.00125764 0)
(-0.00543474 -0.00121182 0)
(-0.00477201 -0.00115876 0)
(-0.00413959 -0.00109853 0)
(-0.00354119 -0.0010313 0)
(-0.00298043 -0.00095729 0)
(-0.00246069 -0.000876848 0)
(-0.00198515 -0.000790427 0)
(-0.00155664 -0.000698645 0)
(-0.00117758 -0.000602318 0)
(-0.000849844 -0.000502531 0)
(-0.000574644 -0.000400722 0)
(-0.000352319 -0.000298802 0)
(-0.000182125 -0.000199324 0)
(-6.19502e-05 -0.000105704 0)
(1.20151e-05 -2.25276e-05 0)
(4.5582e-05 4.40939e-05 0)
(4.69682e-05 8.61584e-05 0)
(2.85376e-05 9.34376e-05 0)
(8.13599e-06 5.26798e-05 0)
(5.22006e-06 -6.32965e-05 0)
(1.19754e-05 -9.80354e-05 0)
(2.25262e-06 -6.64737e-05 0)
(-3.96085e-05 1.32087e-05 0)
(-0.000125141 0.000126839 0)
(-0.000262373 0.000263195 0)
(-0.000456835 0.000413624 0)
(-0.000712016 0.000571511 0)
(-0.00102965 0.000731875 0)
(-0.00141005 0.000890946 0)
(-0.00185234 0.00104589 0)
(-0.00235475 0.00119458 0)
(-0.00291473 0.00133542 0)
(-0.00352917 0.00146726 0)
(-0.00419451 0.00158923 0)
(-0.00490684 0.00170073 0)
(-0.00566199 0.00180135 0)
(-0.00645563 0.00189084 0)
(-0.0072833 0.00196906 0)
(-0.00814045 0.00203598 0)
(-0.00902252 0.00209164 0)
(-0.00992493 0.00213615 0)
(-0.0108431 0.00216968 0)
(-0.0117727 0.0021924 0)
(-0.0127091 0.00220458 0)
(-0.0136481 0.00220647 0)
(-0.0145854 0.00219836 0)
(-0.0155169 0.00218056 0)
(-0.0164387 0.00215339 0)
(-0.0173468 0.00211719 0)
(-0.0182375 0.00207231 0)
(-0.0191073 0.00201911 0)
(-0.0199527 0.00195796 0)
(-0.0207704 0.00188922 0)
(-0.0215572 0.00181327 0)
(-0.0223103 0.00173051 0)
(-0.0230267 0.00164131 0)
(-0.0237039 0.00154606 0)
(-0.0243394 0.00144517 0)
(-0.0249307 0.00133902 0)
(-0.0254759 0.00122803 0)
(-0.025973 0.0011126 0)
(-0.02642 0.000993148 0)
(-0.0268155 0.000870087 0)
(-0.0271579 0.000743838 0)
(-0.027446 0.000614826 0)
(-0.0276788 0.000483484 0)
(-0.0278553 0.000350247 0)
(-0.0279749 0.000215559 0)
(-0.028037 7.98684e-05 0)
(-0.0280413 -5.63697e-05 0)
(-0.0279877 -0.000192696 0)
(-0.0278763 -0.000328644 0)
(-0.0277073 -0.000463743 0)
(-0.0274813 -0.000597516 0)
(-0.0271988 -0.000729479 0)
(-0.0268609 -0.000859146 0)
(-0.0264685 -0.000986026 0)
(-0.0260229 -0.00110962 0)
(-0.0255258 -0.00122945 0)
(-0.0249788 -0.00134499 0)
(-0.0243838 -0.00145576 0)
(-0.0237429 -0.00156125 0)
(-0.0230586 -0.00166098 0)
(-0.0223333 -0.00175446 0)
(-0.0215698 -0.00184119 0)
(-0.0207711 -0.0019207 0)
(-0.0199403 -0.00199253 0)
(-0.0190807 -0.00205621 0)
(-0.0181959 -0.00211132 0)
(-0.0172896 -0.00215742 0)
(-0.0163655 -0.0021941 0)
(-0.0154278 -0.00222098 0)
(-0.0144806 -0.00223771 0)
(-0.0135282 -0.00224396 0)
(-0.012575 -0.00223942 0)
(-0.0116256 -0.00222383 0)
(-0.0106846 -0.00219698 0)
(-0.00975656 -0.00215869 0)
(-0.00884635 -0.00210885 0)
(-0.00795865 -0.00204738 0)
(-0.0070982 -0.0019743 0)
(-0.00626967 -0.00188969 0)
(-0.00547767 -0.00179375 0)
(-0.00472665 -0.00168675 0)
(-0.00402089 -0.00156912 0)
(-0.00336444 -0.00144145 0)
(-0.002761 -0.00130453 0)
(-0.00221389 -0.00115939 0)
(-0.00172589 -0.00100739 0)
(-0.00129915 -0.000850281 0)
(-0.000935009 -0.000690344 0)
(-0.00063385 -0.00053054 0)
(-0.000394839 -0.000374718 0)
(-0.000215692 -0.000227882 0)
(-9.23845e-05 -9.65391e-05 0)
(-1.88738e-05 1.08841e-05 0)
(1.32623e-05 8.364e-05 0)
(1.60479e-05 0.000108166 0)
(5.95005e-06 6.6323e-05 0)
(2.24705e-06 -6.68485e-05 0)
(-5.0783e-06 -8.72129e-05 0)
(-4.31457e-05 -2.49869e-05 0)
(-0.000124555 9.77832e-05 0)
(-0.000259505 0.000263843 0)
(-0.000455618 0.000459368 0)
(-0.000718189 0.000673446 0)
(-0.00105052 0.000897589 0)
(-0.0014542 0.00112521 0)
(-0.00192943 0.00135122 0)
(-0.00247518 0.00157169 0)
(-0.00308941 0.00178362 0)
(-0.0037693 0.00198471 0)
(-0.00451137 0.00217324 0)
(-0.00531161 0.00234793 0)
(-0.00616562 0.00250783 0)
(-0.00706869 0.0026523 0)
(-0.00801587 0.0027809 0)
(-0.00900205 0.00289338 0)
(-0.010022 0.00298965 0)
(-0.0110706 0.00306972 0)
(-0.0121424 0.00313371 0)
(-0.0132322 0.00318182 0)
(-0.0143348 0.00321429 0)
(-0.0154451 0.00323147 0)
(-0.0165579 0.0032337 0)
(-0.0176685 0.00322139 0)
(-0.0187719 0.00319496 0)
(-0.0198634 0.00315489 0)
(-0.0209386 0.00310164 0)
(-0.0219931 0.00303573 0)
(-0.0230226 0.00295766 0)
(-0.0240231 0.00286795 0)
(-0.0249907 0.00276716 0)
(-0.0259217 0.00265583 0)
(-0.0268127 0.00253451 0)
(-0.0276603 0.00240377 0)
(-0.0284614 0.00226418 0)
(-0.029213 0.00211632 0)
(-0.0299124 0.00196077 0)
(-0.0305572 0.00179813 0)
(-0.0311449 0.00162899 0)
(-0.0316735 0.00145396 0)
(-0.032141 0.00127365 0)
(-0.0325457 0.00108867 0)
(-0.0328862 0.000899663 0)
(-0.0331612 0.000707247 0)
(-0.0333697 0.000512071 0)
(-0.0335108 0.000314783 0)
(-0.0335839 0.000116042 0)
(-0.0335886 -8.34858e-05 0)
(-0.0335249 -0.000283125 0)
(-0.0333928 -0.000482192 0)
(-0.0331926 -0.000679996 0)
(-0.032925 -0.000875837 0)
(-0.0325907 -0.00106901 0)
(-0.0321907 -0.0012588 0)
(-0.0317265 -0.0014445 0)
(-0.0311994 -0.00162538 0)
(-0.0306113 -0.00180071 0)
(-0.0299643 -0.00196977 0)
(-0.0292606 -0.00213183 0)
(-0.0285027 -0.00228618 0)
(-0.0276933 -0.00243208 0)
(-0.0268356 -0.00256883 0)
(-0.0259327 -0.00269573 0)
(-0.0249881 -0.00281208 0)
(-0.0240055 -0.00291721 0)
(-0.0229889 -0.00301046 0)
(-0.0219423 -0.0030912 0)
(-0.02087 -0.00315881 0)
(-0.0197767 -0.00321271 0)
(-0.018667 -0.00325235 0)
(-0.0175458 -0.00327723 0)
(-0.0164181 -0.00328688 0)
(-0.0152891 -0.00328087 0)
(-0.0141641 -0.00325886 0)
(-0.0130484 -0.00322054 0)
(-0.0119475 -0.00316568 0)
(-0.0108668 -0.00309414 0)
(-0.00981181 -0.00300585 0)
(-0.00878802 -0.00290087 0)
(-0.00780079 -0.00277935 0)
(-0.0068554 -0.00264162 0)
(-0.00595697 -0.00248813 0)
(-0.00511035 -0.00231955 0)
(-0.00432013 -0.00213679 0)
(-0.00359052 -0.00194103 0)
(-0.00292521 -0.00173381 0)
(-0.00232736 -0.00151711 0)
(-0.00179935 -0.00129345 0)
(-0.00134273 -0.00106605 0)
(-0.000957982 -0.00083899 0)
(-0.000644358 -0.000617481 0)
(-0.000399638 -0.000408132 0)
(-0.000219905 -0.000219336 0)
(-9.92844e-05 -6.17225e-05 0)
(-2.96287e-05 5.14048e-05 0)
(-5.36176e-08 0.000103459 0)
(3.13471e-06 7.22445e-05 0)
(-9.67322e-07 -6.093e-05 0)
(-2.39886e-05 -5.22821e-05 0)
(-9.38599e-05 5.28695e-05 0)
(-0.000219284 0.000229535 0)
(-0.000408572 0.000457918 0)
(-0.000668594 0.000721883 0)
(-0.00100405 0.0010085 0)
(-0.00141778 0.00130751 0)
(-0.00191106 0.00161077 0)
(-0.00248379 0.00191188 0)
(-0.00313467 0.00220582 0)
(-0.00386138 0.00248865 0)
(-0.00466079 0.00275732 0)
(-0.00552904 0.00300949 0)
(-0.00646173 0.00324339 0)
(-0.007454 0.0034577 0)
(-0.00850066 0.00365148 0)
(-0.00959622 0.00382408 0)
(-0.010735 0.00397511 0)
(-0.0119113 0.00410437 0)
(-0.0131191 0.00421184 0)
(-0.0143525 0.00429762 0)
(-0.0156058 0.00436194 0)
(-0.0168729 0.00440512 0)
(-0.0181482 0.00442756 0)
(-0.0194258 0.00442973 0)
(-0.0207004 0.00441213 0)
(-0.0219663 0.00437535 0)
(-0.0232183 0.00431999 0)
(-0.0244512 0.00424669 0)
(-0.0256601 0.00415611 0)
(-0.0268402 0.00404895 0)
(-0.0279868 0.00392591 0)
(-0.0290956 0.00378774 0)
(-0.0301624 0.00363516 0)
(-0.0311831 0.00346893 0)
(-0.0321541 0.00328983 0)
(-0.0330716 0.00309864 0)
(-0.0339324 0.00289613 0)
(-0.0347334 0.00268311 0)
(-0.0354717 0.0024604 0)
(-0.0361446 0.0022288 0)
(-0.0367497 0.00198915 0)
(-0.0372849 0.00174228 0)
(-0.0377481 0.00148904 0)
(-0.0381378 0.00123029 0)
(-0.0384524 0.000966899 0)
(-0.0386908 0.000699746 0)
(-0.038852 0.000429722 0)
(-0.0389354 0.000157728 0)
(-0.0389406 -0.000115322 0)
(-0.0388673 -0.000388503 0)
(-0.0387158 -0.000660881 0)
(-0.0384863 -0.000931509 0)
(-0.0381796 -0.00119943 0)
(-0.0377966 -0.00146368 0)
(-0.0373385 -0.00172329 0)
(-0.0368068 -0.00197728 0)
(-0.0362032 -0.00222466 0)
(-0.0355297 -0.00246445 0)
(-0.0347888 -0.00269565 0)
(-0.0339829 -0.00291728 0)
(-0.0331151 -0.00312836 0)
(-0.0321883 -0.0033279 0)
(-0.0312061 -0.00351494 0)
(-0.0301722 -0.00368853 0)
(-0.0290904 -0.00384774 0)
(-0.027965 -0.00399164 0)
(-0.0268005 -0.00411935 0)
(-0.0256015 -0.00423001 0)
(-0.0243729 -0.00432281 0)
(-0.02312 -0.00439695 0)
(-0.0218479 -0.00445172 0)
(-0.0205623 -0.00448643 0)
(-0.0192688 -0.00450046 0)
(-0.0179733 -0.00449328 0)
(-0.0166817 -0.0044644 0)
(-0.0154 -0.00441346 0)
(-0.0141344 -0.00434017 0)
(-0.012891 -0.00424437 0)
(-0.011676 -0.004126 0)
(-0.0104954 -0.00398519 0)
(-0.00935533 -0.00382218 0)
(-0.00826161 -0.00363746 0)
(-0.00721992 -0.0034317 0)
(-0.00623568 -0.00320586 0)
(-0.00531394 -0.0029612 0)
(-0.00445935 -0.00269938 0)
(-0.00367601 -0.0024225 0)
(-0.00296739 -0.00213321 0)
(-0.00233618 -0.00183488 0)
(-0.00178416 -0.00153169 0)
(-0.00131205 -0.00122889 0)
(-0.000919341 -0.000933048 0)
(-0.000604079 -0.000652326 0)
(-0.000362728 -0.000396902 0)
(-0.000189904 -0.000179425 0)
(-7.81074e-05 -1.54695e-05 0)
(-1.81554e-05 7.58154e-05 0)
(4.20782e-08 6.91395e-05 0)
(-4.243e-06 -4.49493e-05 0)
(-4.37914e-05 8.7687e-06 0)
(-0.000147461 0.000170178 0)
(-0.000319729 0.000412247 0)
(-0.000566667 0.00071315 0)
(-0.000894088 0.00105485 0)
(-0.00130585 0.00142263 0)
(-0.00180414 0.00180461 0)
(-0.0023897 0.00219124 0)
(-0.003062 0.00257484 0)
(-0.00381937 0.00294931 0)
(-0.00465914 0.00330977 0)
(-0.00557781 0.0036524 0)
(-0.00657115 0.00397422 0)
(-0.00763437 0.00427293 0)
(-0.00876217 0.00454679 0)
(-0.00994891 0.00479454 0)
(-0.0111886 0.00501528 0)
(-0.0124751 0.00520845 0)
(-0.0138021 0.00537373 0)
(-0.0151631 0.00551103 0)
(-0.0165517 0.00562044 0)
(-0.0179614 0.00570221 0)
(-0.0193858 0.00575672 0)
(-0.0208184 0.00578443 0)
(-0.0222531 0.00578592 0)
(-0.0236836 0.00576183 0)
(-0.0251038 0.00571287 0)
(-0.0265081 0.00563982 0)
(-0.0278905 0.00554348 0)
(-0.0292457 0.00542471 0)
(-0.0305683 0.00528438 0)
(-0.0318533 0.00512342 0)
(-0.0330955 0.00494275 0)
(-0.0342906 0.00474335 0)
(-0.0354339 0.00452619 0)
(-0.0365212 0.00429226 0)
(-0.0375487 0.00404257 0)
(-0.0385126 0.00377816 0)
(-0.0394093 0.00350006 0)
(-0.0402358 0.00320933 0)
(-0.040989 0.00290702 0)
(-0.0416663 0.00259424 0)
(-0.0422652 0.00227205 0)
(-0.0427835 0.00194158 0)
(-0.0432195 0.00160394 0)
(-0.0435714 0.00126026 0)
(-0.043838 0.000911703 0)
(-0.0440183 0.000559421 0)
(-0.0441114 0.000204592 0)
(-0.0441169 -0.00015159 0)
(-0.0440347 -0.00050792 0)
(-0.0438649 -0.00086318 0)
(-0.0436079 -0.00121614 0)
(-0.0432645 -0.00156554 0)
(-0.0428357 -0.00191014 0)
(-0.0423228 -0.00224867 0)
(-0.0417276 -0.00257986 0)
(-0.0410519 -0.00290242 0)
(-0.0402981 -0.00321508 0)
(-0.0394687 -0.00351655 0)
(-0.0385667 -0.00380554 0)
(-0.0375952 -0.00408079 0)
(-0.0365578 -0.00434102 0)
(-0.0354582 -0.004585 0)
(-0.0343006 -0.00481148 0)
(-0.0330893 -0.00501925 0)
(-0.031829 -0.00520715 0)
(-0.0305247 -0.00537402 0)
(-0.0291816 -0.00551877 0)
(-0.027805 -0.00564034 0)
(-0.0264008 -0.00573773 0)
(-0.0249748 -0.00581001 0)
(-0.0235331 -0.00585633 0)
(-0.022082 -0.0058759 0)
(-0.0206279 -0.00586805 0)
(-0.0191773 -0.00583218 0)
(-0.0177371 -0.00576784 0)
(-0.0163138 -0.00567471 0)
(-0.0149142 -0.00555259 0)
(-0.0135451 -0.00540147 0)
(-0.0122132 -0.00522154 0)
(-0.0109251 -0.00501318 0)
(-0.00968709 -0.00477705 0)
(-0.00850549 -0.00451408 0)
(-0.00738616 -0.00422556 0)
(-0.00633462 -0.00391314 0)
(-0.00535592 -0.00357899 0)
(-0.00445456 -0.0032258 0)
(-0.00363436 -0.00285697 0)
(-0.00289835 -0.0024767 0)
(-0.00224864 -0.00209018 0)
(-0.00168629 -0.00170381 0)
(-0.00121114 -0.00132545 0)
(-0.00082173 -0.000964745 0)
(-0.000515102 -0.000633501 0)
(-0.000286617 -0.000346156 0)
(-0.000129703 -0.000120217 0)
(-3.72322e-05 2.31172e-05 0)
(-3.13271e-06 5.63451e-05 0)
(-7.48159e-06 -1.86866e-05 0)
(-6.38474e-05 9.69423e-05 0)
(-0.000202356 0.000328722 0)
(-0.000423081 0.000648268 0)
(-0.000729694 0.00103225 0)
(-0.00112678 0.00146108 0)
(-0.00161719 0.00191855 0)
(-0.00220223 0.00239136 0)
(-0.002882 0.00286864 0)
(-0.00365539 0.00334157 0)
(-0.00452027 0.00380298 0)
(-0.00547352 0.00424711 0)
(-0.00651124 0.00466936 0)
(-0.00762881 0.00506608 0)
(-0.00882101 0.00543445 0)
(-0.0100821 0.00577228 0)
(-0.0114061 0.00607796 0)
(-0.0127865 0.00635034 0)
(-0.0142167 0.00658863 0)
(-0.0156898 0.00679241 0)
(-0.0171989 0.00696149 0)
(-0.0187371 0.00709595 0)
(-0.0202974 0.00719603 0)
(-0.0218727 0.00726216 0)
(-0.0234562 0.00729488 0)
(-0.0250411 0.00729488 0)
(-0.0266206 0.00726294 0)
(-0.0281882 0.00719991 0)
(-0.0297376 0.00710672 0)
(-0.0312625 0.00698438 0)
(-0.0327569 0.00683394 0)
(-0.034215 0.00665647 0)
(-0.0356312 0.00645313 0)
(-0.0370002 0.00622507 0)
(-0.0383169 0.0059735 0)
(-0.0395764 0.00569962 0)
(-0.0407741 0.00540469 0)
(-0.0419057 0.00508998 0)
(-0.0429671 0.00475677 0)
(-0.0439546 0.00440637 0)
(-0.0448645 0.00404009 0)
(-0.0456937 0.00365929 0)
(-0.0464392 0.00326532 0)
(-0.0470984 0.00285954 0)
(-0.0476689 0.00244337 0)
(-0.0481487 0.0020182 0)
(-0.048536 0.00158546 0)
(-0.0488293 0.0011466 0)
(-0.0490276 0.000703083 0)
(-0.0491299 0.000256389 0)
(-0.0491359 -0.000191983 0)
(-0.0490453 -0.000640517 0)
(-0.0488584 -0.00108768 0)
(-0.0485754 -0.00153192 0)
(-0.0481974 -0.00197168 0)
(-0.0477254 -0.00240537 0)
(-0.0471609 -0.00283142 0)
(-0.0465057 -0.00324821 0)
(-0.045762 -0.00365416 0)
(-0.0449323 -0.00404764 0)
(-0.0440194 -0.00442706 0)
(-0.0430264 -0.00479081 0)
(-0.041957 -0.0051373 0)
(-0.0408148 -0.00546494 0)
(-0.0396041 -0.00577217 0)
(-0.0383294 -0.00605746 0)
(-0.0369953 -0.0063193 0)
(-0.0356072 -0.00655623 0)
(-0.0341702 -0.00676682 0)
(-0.0326901 -0.0069497 0)
(-0.0311729 -0.00710358 0)
(-0.0296247 -0.00722723 0)
(-0.0280519 -0.00731948 0)
(-0.0264612 -0.0073793 0)
(-0.0248594 -0.00740573 0)
(-0.0232535 -0.00739794 0)
(-0.0216507 -0.00735523 0)
(-0.020058 -0.00727707 0)
(-0.0184829 -0.00716307 0)
(-0.0169326 -0.00701305 0)
(-0.0154145 -0.00682703 0)
(-0.0139357 -0.00660528 0)
(-0.0125034 -0.00634834 0)
(-0.0111244 -0.00605706 0)
(-0.00980558 -0.00573266 0)
(-0.00855316 -0.00537676 0)
(-0.00737313 -0.00499147 0)
(-0.00627097 -0.00457947 0)
(-0.00525156 -0.00414408 0)
(-0.00431913 -0.00368945 0)
(-0.00347709 -0.00322061 0)
(-0.00272796 -0.00274376 0)
(-0.00207324 -0.00226639 0)
(-0.00151327 -0.0017976 0)
(-0.00104721 -0.00134838 0)
(-0.000672869 -0.000931992 0)
(-0.000386538 -0.000564422 0)
(-0.000182759 -0.000264752 0)
(-5.66446e-05 -5.57497e-05 0)
(-6.28449e-06 3.36095e-05 0)
(-1.0637e-05 1.78363e-05 0)
(-8.38157e-05 0.000212603 0)
(-0.000257474 0.000529356 0)
(-0.000527392 0.000938899 0)
(-0.000894771 0.00141683 0)
(-0.00136285 0.00194237 0)
(-0.00193332 0.00249806 0)
(-0.00260654 0.00306941 0)
(-0.00338178 0.0036444 0)
(-0.00425728 0.00421312 0)
(-0.00523034 0.00476745 0)
(-0.00629733 0.00530076 0)
(-0.00745389 0.00580771 0)
(-0.00869494 0.00628401 0)
(-0.0100149 0.00672628 0)
(-0.0114075 0.00713191 0)
(-0.0128664 0.00749891 0)
(-0.0143846 0.00782585 0)
(-0.015955 0.00811175 0)
(-0.0175705 0.00835602 0)
(-0.0192235 0.0085584 0)
(-0.0209066 0.00871892 0)
(-0.0226124 0.00883782 0)
(-0.0243334 0.00891557 0)
(-0.0260622 0.00895281 0)
(-0.0277915 0.00895031 0)
(-0.0295141 0.008909 0)
(-0.031223 0.00882989 0)
(-0.0329114 0.00871408 0)
(-0.0345724 0.00856276 0)
(-0.0361998 0.0083772 0)
(-0.0377873 0.00815871 0)
(-0.0393288 0.00790866 0)
(-0.0408186 0.00762846 0)
(-0.0422512 0.00731955 0)
(-0.0436213 0.00698342 0)
(-0.044924 0.0066216 0)
(-0.0461547 0.0062356 0)
(-0.0473089 0.00582702 0)
(-0.0483825 0.00539744 0)
(-0.0493717 0.00494848 0)
(-0.0502732 0.00448176 0)
(-0.0510835 0.00399897 0)
(-0.0518 0.00350176 0)
(-0.0524201 0.00299186 0)
(-0.0529415 0.00247098 0)
(-0.0533624 0.00194087 0)
(-0.0536812 0.0014033 0)
(-0.0538966 0.000860056 0)
(-0.0540079 0.000312954 0)
(-0.0540144 -0.000236175 0)
(-0.053916 -0.000785477 0)
(-0.0537129 -0.00133308 0)
(-0.0534056 -0.00187708 0)
(-0.0529949 -0.00241558 0)
(-0.0524821 -0.00294665 0)
(-0.0518687 -0.00346835 0)
(-0.0511568 -0.00397874 0)
(-0.0503488 -0.00447585 0)
(-0.0494471 -0.00495773 0)
(-0.048455 -0.00542242 0)
(-0.0473759 -0.00586796 0)
(-0.0462134 -0.00629243 0)
(-0.0449718 -0.00669389 0)
(-0.0436555 -0.00707046 0)
(-0.0422694 -0.00742026 0)
(-0.0408186 -0.00774147 0)
(-0.0393086 -0.00803231 0)
(-0.0377452 -0.00829107 0)
(-0.0361344 -0.00851609 0)
(-0.0344828 -0.00870581 0)
(-0.0327968 -0.00885873 0)
(-0.0310835 -0.00897349 0)
(-0.02935 -0.00904882 0)
(-0.0276035 -0.0090836 0)
(-0.0258516 -0.00907684 0)
(-0.0241018 -0.00902772 0)
(-0.0223621 -0.00893563 0)
(-0.02064 -0.00880013 0)
(-0.0189435 -0.00862104 0)
(-0.0172804 -0.00839843 0)
(-0.0156584 -0.00813267 0)
(-0.0140851 -0.00782445 0)
(-0.0125678 -0.00747485 0)
(-0.0111138 -0.00708538 0)
(-0.0097299 -0.00665803 0)
(-0.0084224 -0.00619536 0)
(-0.00719726 -0.00570057 0)
(-0.00605979 -0.00517765 0)
(-0.00501463 -0.00463145 0)
(-0.00406567 -0.00406788 0)
(-0.00321588 -0.00349404 0)
(-0.00246731 -0.00291849 0)
(-0.00182093 -0.00235146 0)
(-0.00127661 -0.00180517 0)
(-0.000833084 -0.00129414 0)
(-0.000487683 -0.000835654 0)
(-0.000236181 -0.000450047 0)
(-7.60016e-05 -0.000161225 0)
(-9.35917e-06 9.28505e-07 0)
(-1.36926e-05 6.44563e-05 0)
(-0.000103458 0.000355699 0)
(-0.000312159 0.000772298 0)
(-0.000631386 0.00128466 0)
(-0.0010599 0.00186768 0)
(-0.00159957 0.00249967 0)
(-0.00225084 0.00316222 0)
(-0.003013 0.0038398 0)
(-0.00388444 0.00451939 0)
(-0.00486264 0.00519014 0)
(-0.00594423 0.00584304 0)
(-0.00712504 0.00647067 0)
(-0.00840016 0.00706699 0)
(-0.00976405 0.00762707 0)
(-0.0112106 0.00814703 0)
(-0.0127333 0.0086238 0)
(-0.0143251 0.00905503 0)
(-0.0159787 0.00943901 0)
(-0.0176867 0.00977454 0)
(-0.0194412 0.0100609 0)
(-0.0212346 0.0102977 0)
(-0.0230588 0.0104849 0)
(-0.0249059 0.0106228 0)
(-0.0267681 0.010712 0)
(-0.0286374 0.010753 0)
(-0.0305062 0.0107468 0)
(-0.0323668 0.0106945 0)
(-0.0342118 0.0105972 0)
(-0.0360338 0.0104562 0)
(-0.0378257 0.0102729 0)
(-0.0395808 0.0100488 0)
(-0.0412922 0.00978543 0)
(-0.0429537 0.00948443 0)
(-0.0445592 0.00914746 0)
(-0.0461026 0.00877623 0)
(-0.0475785 0.0083725 0)
(-0.0489816 0.00793809 0)
(-0.0503069 0.00747483 0)
(-0.0515496 0.00698458 0)
(-0.0527055 0.00646925 0)
(-0.0537704 0.00593077 0)
(-0.0547407 0.00537109 0)
(-0.055613 0.0047922 0)
(-0.0563842 0.0041961 0)
(-0.0570515 0.00358485 0)
(-0.0576127 0.00296049 0)
(-0.0580657 0.00232511 0)
(-0.0584089 0.00168084 0)
(-0.0586409 0.00102982 0)
(-0.0587608 0.000374198 0)
(-0.058768 -0.000283817 0)
(-0.0586624 -0.000942015 0)
(-0.0584441 -0.00159816 0)
(-0.0581137 -0.00224998 0)
(-0.0576721 -0.0028952 0)
(-0.0571207 -0.00353152 0)
(-0.0564611 -0.00415662 0)
(-0.0556954 -0.00476819 0)
(-0.0548261 -0.00536389 0)
(-0.0538562 -0.00594138 0)
(-0.0527888 -0.00649834 0)
(-0.0516276 -0.00703243 0)
(-0.0503766 -0.00754135 0)
(-0.0490402 -0.00802282 0)
(-0.0476233 -0.00847457 0)
(-0.0461308 -0.0088944 0)
(-0.0445684 -0.00928014 0)
(-0.0429419 -0.00962968 0)
(-0.0412574 -0.00994099 0)
(-0.0395214 -0.0102121 0)
(-0.0377407 -0.0104412 0)
(-0.0359225 -0.0106265 0)
(-0.0340739 -0.0107664 0)