/*--------------------------------*- C++ -*----------------------------------*\
  =========                 |
  \\      /  F ield         | OpenFOAM: The Open Source CFD Toolbox
   \\    /   O peration     | Website:  https://openfoam.org
    \\  /    A nd           | Version:  11
     \\/     M anipulation  |
\*---------------------------------------------------------------------------*/
FoamFile
{
    format      ascii;
    class       surfaceScalarField;
    location    "1.9";
    object      phi;
}
// * * * * * * * * * * * * * * * * * * * * * * * * * * * * * * * * * * * * * //

dimensions      [0 3 -1 0 0 0 0];

internalField   nonuniform List<scalar> 
19980
(
7.46493e-07
-7.46641e-07
1.72513e-06
-9.78529e-07
1.8903e-06
-1.65243e-07
1.19243e-06
6.98034e-07
-2.97141e-07
1.48957e-06
-2.48195e-06
2.18485e-06
-5.29804e-06
2.81593e-06
-8.69264e-06
3.39467e-06
-1.26216e-05
3.92893e-06
-1.70533e-05
4.43176e-06
-2.19556e-05
4.90219e-06
-2.73011e-05
5.34562e-06
-3.30528e-05
5.75161e-06
-3.91842e-05
6.1314e-06
-4.56627e-05
6.47857e-06
-5.24581e-05
6.79546e-06
-5.95388e-05
7.08067e-06
-6.68799e-05
7.34105e-06
-7.44451e-05
7.56524e-06
-8.22113e-05
7.76631e-06
-9.01433e-05
7.93209e-06
-9.8216e-05
8.07275e-06
-0.000106392
8.17614e-06
-0.000114623
8.23057e-06
-0.00012286
8.23724e-06
-0.000131064
8.20403e-06
-0.000139193
8.12863e-06
-0.000147209
8.0166e-06
-0.000155086
7.87682e-06
-0.000162791
7.70548e-06
-0.000170294
7.50242e-06
-0.000177567
7.27303e-06
-0.000184587
7.02068e-06
-0.000191332
6.74421e-06
-0.000197777
6.44542e-06
-0.000203906
6.12856e-06
-0.000209696
5.79012e-06
-0.000215125
5.4287e-06
-0.000220173
5.04816e-06
-0.000224823
4.64956e-06
-0.000229056
4.23314e-06
-0.000232856
3.80038e-06
-0.000236211
3.35521e-06
-0.000239114
2.9025e-06
-0.000241558
2.44433e-06
-0.00024354
1.98171e-06
-0.000245056
1.51662e-06
-0.000246108
1.05149e-06
-0.000246696
5.87551e-07
-0.00024682
1.24156e-07
-0.000246483
-3.37097e-07
-0.000245692
-7.90897e-07
-0.000244458
-1.23375e-06
-0.000242792
-1.66656e-06
-0.0002407
-2.09162e-06
-0.000238189
-2.51131e-06
-0.000235262
-2.92706e-06
-0.000231925
-3.337e-06
-0.000228186
-3.73861e-06
-0.000224053
-4.13306e-06
-0.000219531
-4.5221e-06
-0.000214627
-4.90329e-06
-0.000209354
-5.27356e-06
-0.00020372
-5.63431e-06
-0.000197731
-5.98831e-06
-0.000191397
-6.33412e-06
-0.00018473
-6.66721e-06
-0.000177746
-6.98422e-06
-0.000170463
-7.28294e-06
-0.000162902
-7.56034e-06
-0.000155088
-7.81382e-06
-0.000147046
-8.04255e-06
-0.000138801
-8.24514e-06
-0.000130383
-8.41791e-06
-0.000121825
-8.55752e-06
-0.000113163
-8.66281e-06
-0.000104431
-8.73157e-06
-9.56735e-05
-8.75758e-06
-8.69397e-05
-8.73382e-06
-7.82818e-05
-8.65799e-06
-6.97499e-05
-8.53189e-06
-6.13949e-05
-8.35501e-06
-5.32734e-05
-8.12142e-06
-4.54487e-05
-7.82476e-06
-3.79851e-05
-7.46359e-06
-3.09449e-05
-7.0401e-06
-2.43886e-05
-6.55632e-06
-1.83761e-05
-6.0125e-06
-1.29689e-05
-5.40712e-06
-8.2291e-06
-4.73982e-06
-4.2153e-06
-4.01389e-06
-9.79596e-07
-3.23577e-06
1.43807e-06
-2.41763e-06
3.01661e-06
-1.57851e-06
3.75906e-06
-7.4248e-07
3.70722e-06
5.18752e-08
2.97053e-06
7.36727e-07
1.77979e-06
1.19063e-06
5.74317e-07
1.2053e-06
5.74149e-07
1.7651e-06
-2.51159e-06
3.70067e-06
-2.91429e-06
4.08421e-06
-5.48835e-07
2.54931e-06
2.23298e-06
-9.25679e-07
4.96454e-06
-6.37093e-06
7.63014e-06
-1.37281e-05
1.01733e-05
-2.29394e-05
1.26059e-05
-3.39097e-05
1.48992e-05
-4.65433e-05
1.70653e-05
-6.07297e-05
1.90887e-05
-7.63541e-05
2.09703e-05
-9.33069e-05
2.27045e-05
-0.000111462
2.42867e-05
-0.000130697
2.5713e-05
-0.000150898
2.69965e-05
-0.000171943
2.81257e-05
-0.000193713
2.91111e-05
-0.000216103
2.9955e-05
-0.000238991
3.06548e-05
-0.000262272
3.12132e-05
-0.000285833
3.16341e-05
-0.000309559
3.19019e-05
-0.00033334
3.20122e-05
-0.000357074
3.19706e-05
-0.000380647
3.17771e-05
-0.000403958
3.14391e-05
-0.000426914
3.09734e-05
-0.000449428
3.03903e-05
-0.000471413
2.96903e-05
-0.000492792
2.88818e-05
-0.000513495
2.79756e-05
-0.00053345
2.69763e-05
-0.000552596
2.58901e-05
-0.000570874
2.4724e-05
-0.00058823
2.34837e-05
-0.000604609
2.21697e-05
-0.000619963
2.07829e-05
-0.000634246
1.93306e-05
-0.000647415
1.78186e-05
-0.000659431
1.62496e-05
-0.00067026
1.46296e-05
-0.000679874
1.29688e-05
-0.000688248
1.12767e-05
-0.000695363
9.55886e-06
-0.000701203
7.82124e-06
-0.000705757
6.07091e-06
-0.000709018
4.31251e-06
-0.00071098
2.5499e-06
-0.000711643
7.86804e-07
-0.000711008
-9.72204e-07
-0.000709081
-2.71803e-06
-0.000705873
-4.44159e-06
-0.000701397
-6.14209e-06
-0.000695665
-7.82379e-06
-0.000688689
-9.48696e-06
-0.000680488
-1.11284e-05
-0.000671078
-1.27466e-05
-0.000660477
-1.43401e-05
-0.000648705
-1.59053e-05
-0.000635789
-1.74376e-05
-0.000621759
-1.89334e-05
-0.000606643
-2.03895e-05
-0.000590473
-2.18036e-05
-0.000573288
-2.31734e-05
-0.000555128
-2.44944e-05
-0.000536037
-2.57584e-05
-0.000516066
-2.69546e-05
-0.000495277
-2.80728e-05
-0.000473732
-2.91053e-05
-0.000451499
-3.0046e-05
-0.000428655
-3.08874e-05
-0.00040528
-3.16196e-05
-0.000381465
-3.22332e-05
-0.000357302
-3.27208e-05
-0.00033289
-3.30748e-05
-0.000308337
-3.32844e-05
-0.000283759
-3.33353e-05
-0.000259278
-3.32149e-05
-0.000235021
-3.29149e-05
-0.000211124
-3.2429e-05
-0.00018773
-3.17493e-05
-0.000164987
-3.08645e-05
-0.000143047
-2.97646e-05
-0.000122066
-2.84445e-05
-0.000102202
-2.69038e-05
-8.36144e-05
-2.5144e-05
-6.64591e-05
-2.31677e-05
-5.08893e-05
-2.09769e-05
-3.70532e-05
-1.85759e-05
-2.50882e-05
-1.59788e-05
-1.51121e-05
-1.32119e-05
-7.21232e-06
-1.03175e-05
-1.43173e-06
-7.35922e-06
2.25254e-06
-4.42679e-06
3.96108e-06
-1.65666e-06
3.96363e-06
7.34207e-07
2.74946e-06
2.40507e-06
1.08727e-06
2.86792e-06
1.66131e-06
2.198e-06
-4.70969e-06
4.29798e-06
-5.01419e-06
4.22346e-06
-4.74547e-07
1.47431e-06
4.98213e-06
-4.17692e-06
1.06158e-05
-1.28547e-05
1.63077e-05
-2.45953e-05
2.19138e-05
-3.934e-05
2.73507e-05
-5.7002e-05
3.25612e-05
-7.74244e-05
3.74877e-05
-0.000100446
4.21106e-05
-0.000125871
4.63952e-05
-0.000153497
5.03303e-05
-0.000183117
5.39065e-05
-0.000214528
5.71245e-05
-0.000247502
5.997e-05
-0.000281842
6.24665e-05
-0.000317332
6.46005e-05
-0.000353772
6.63959e-05
-0.000390963
6.78458e-05
-0.000428716
6.89659e-05
-0.000466835
6.97525e-05
-0.000505144
7.02118e-05
-0.000543472
7.03395e-05
-0.000581647
7.01457e-05
-0.000619513
6.96435e-05
-0.000656922
6.88486e-05
-0.000693728
6.77795e-05
-0.000729791
6.6453e-05
-0.000764985
6.48837e-05
-0.000799189
6.30858e-05
-0.000832289
6.1076e-05
-0.000864179
5.8866e-05
-0.000894759
5.64704e-05
-0.00092394
5.39053e-05
-0.000951636
5.11788e-05
-0.000977765
4.82992e-05
-0.00100226
4.52769e-05
-0.00102505
4.21223e-05
-0.00104608
3.88461e-05
-0.00106529
3.54588e-05
-0.00108263
3.19722e-05
-0.00109806
2.8402e-05
-0.00111155
2.47623e-05
-0.00112305
2.10635e-05
-0.00113255
1.73168e-05
-0.00114001
1.35354e-05
-0.00114543
9.72985e-06
-0.00114879
5.90691e-06
-0.00115008
2.07452e-06
-0.00114929
-1.75471e-06
-0.00114644
-5.56773e-06
-0.00114153
-9.35608e-06
-0.00113456
-1.31139e-05
-0.00112555
-1.6836e-05
-0.00111451
-2.05191e-05
-0.00110148
-2.41596e-05
-0.00108648
-2.77495e-05
-0.00106954
-3.12796e-05
-0.0010507
-3.4744e-05
-0.00103
-3.81357e-05
-0.00100749
-4.14427e-05
-0.00098323
-4.46533e-05
-0.000957272
-4.77613e-05
-0.000929685
-5.07604e-05
-0.000900542
-5.36369e-05
-0.000869928
-5.63721e-05
-0.000837934
-5.89493e-05
-0.000804653
-6.13534e-05
-0.000770191
-6.35677e-05
-0.000734662
-6.55747e-05
-0.000698191
-6.7358e-05
-0.00066091
-6.89009e-05
-0.000622958
-7.01852e-05
-0.000584486
-7.11927e-05
-0.000545655
-7.19061e-05
-0.000506633
-7.23061e-05
-0.000467598
-7.23706e-05
-0.000428736
-7.20771e-05
-0.000390243
-7.14073e-05
-0.000352327
-7.03458e-05
-0.000315199
-6.8877e-05
-0.00027908
-6.69831e-05
-0.000244197
-6.46481e-05
-0.000210779
-6.18627e-05
-0.000179059
-5.86236e-05
-0.000149271
-5.49318e-05
-0.000121647
-5.07916e-05
-9.64122e-05
-4.62119e-05
-7.37781e-05
-4.121e-05
-5.39363e-05
-3.58206e-05
-3.70484e-05
-3.00998e-05
-2.3233e-05
-2.41329e-05
-1.25454e-05
-1.80467e-05
-4.94893e-06
-1.20233e-05
-2.76544e-07
-6.32926e-06
1.81929e-06
-1.3618e-06
1.92837e-06
2.29588e-06
9.33825e-07
3.86269e-06
2.59512e-06
1.91613e-06
-6.6257e-06
3.15359e-06
-6.25163e-06
1.4776e-06
1.20145e-06
-3.62448e-06
1.00842e-05
-1.2438e-05
1.94295e-05
-2.51252e-05
2.89949e-05
-4.17713e-05
3.85599e-05
-6.23471e-05
4.79266e-05
-8.67411e-05
5.69553e-05
-0.000114791
6.55377e-05
-0.000146285
7.3605e-05
-0.000180979
8.10886e-05
-0.000218614
8.79661e-05
-0.000258914
9.42058e-05
-0.000301587
9.97975e-05
-0.000346361
0.000104744
-0.000392944
0.000109049
-0.000441055
0.000112711
-0.000490412
0.000115753
-0.000540749
0.000118182
-0.000591796
0.000120013
-0.000643308
0.000121264
-0.000695036
0.00012194
-0.000746754
0.000122057
-0.000798243
0.000121635
-0.000849292
0.000120692
-0.000899698
0.000119255
-0.000949272
0.000117353
-0.000997832
0.000115013
-0.00104521
0.000112262
-0.00109125
0.000109122
-0.00113579
0.000105619
-0.0011787
0.000101777
-0.00121985
9.76162e-05
-0.0012591
9.31626e-05
-0.00129636
8.84351e-05
-0.00133151
8.34499e-05
-0.00136446
7.82284e-05
-0.00139513
7.27891e-05
-0.00142343
6.71482e-05
-0.0014493
6.13248e-05
-0.00147267
5.53397e-05
-0.00149348
4.92127e-05
-0.00151168
4.29629e-05
-0.00152722
3.66095e-05
-0.00154008
3.01723e-05
-0.00155021
2.36678e-05
-0.00155759
1.71111e-05
-0.0015622
1.05187e-05
-0.00156403
3.90569e-06
-0.00156308
-2.71369e-06
-0.00155932
-9.32035e-06
-0.00155278
-1.58958e-05
-0.00154347
-2.24305e-05
-0.00153139
-2.89169e-05
-0.00151656
-3.53406e-05
-0.00149904
-4.16861e-05
-0.00147885
-4.79425e-05
-0.00145603
-5.40982e-05
-0.00143063
-6.01369e-05
-0.00140273
-6.60398e-05
-0.00137238
-7.17894e-05
-0.00133967
-7.73698e-05
-0.00130466
-8.27639e-05
-0.00126747
-8.79518e-05
-0.0012282
-9.29106e-05
-0.00118695
-9.76157e-05
-0.00114386
-0.000102041
-0.00109906
-0.000106159
-0.00105268
-0.000109943
-0.00100489
-0.000113365
-0.000955852
-0.000116398
-0.000905741
-0.000119012
-0.00085475
-0.000121176
-0.000803079
-0.000122864
-0.00075094
-0.000124045
-0.000698557
-0.000124689
-0.000646165
-0.000124762
-0.000594012
-0.000124231
-0.000542353
-0.000123066
-0.000491454
-0.000121244
-0.000441593
-0.000118738
-0.000393053
-0.000115523
-0.000346123
-0.000111578
-0.000301097
-0.000106889
-0.000258272
-0.000101449
-0.000217944
-9.52595e-05
-0.000180405
-8.83312e-05
-0.000145933
-8.06842e-05
-0.000114788
-7.23542e-05
-8.7206e-05
-6.34031e-05
-6.33788e-05
-5.3927e-05
-4.34455e-05
-4.40662e-05
-2.74679e-05
-3.40242e-05
-1.54029e-05
-2.40882e-05
-7.069e-06
-1.46631e-05
-2.10069e-06
-6.33009e-06
1.04295e-07
9.06736e-08
4.23547e-07
3.5435e-06
3.01868e-06
1.22218e-06
-7.8479e-06
8.10193e-07
-5.83963e-06
-3.27445e-06
5.28617e-06
-1.1526e-05
1.83358e-05
-2.42224e-05
3.2126e-05
-4.15385e-05
4.63112e-05
-6.35441e-05
6.05656e-05
-9.02157e-05
7.45981e-05
-0.000121433
8.81728e-05
-0.000157022
0.000101127
-0.00019673
0.000113313
-0.000240291
0.00012465
-0.000287391
0.000135066
-0.000337707
0.000144522
-0.000390903
0.000152994
-0.000446638
0.000160479
-0.000504556
0.000166966
-0.000564329
0.000172485
-0.000625609
0.000177033
-0.00068807
0.000180644
-0.000751387
0.00018333
-0.000815249
0.000185126
-0.000879361
0.000186052
-0.000943441
0.000186137
-0.00100722
0.000185413
-0.00107044
0.000183911
-0.00113285
0.000181671
-0.00119423
0.000178732
-0.00125435
0.00017513
-0.00131299
0.000170908
-0.00136998
0.000166104
-0.00142511
0.00016075
-0.00147821
0.000154884
-0.00152914
0.00014854
-0.00157773
0.000141751
-0.00162384
0.000134548
-0.00166735
0.000126962
-0.00170814
0.00011902
-0.00174611
0.000110754
-0.00178115
0.00010219
-0.00181318
9.33563e-05
-0.00184212
8.42802e-05
-0.0018679
7.4991e-05
-0.00189045
6.55163e-05
-0.00190972
5.58804e-05
-0.00192566
4.61104e-05
-0.00193823
3.62356e-05
-0.0019474
2.62775e-05
-0.00195313
1.62545e-05
-0.00195542
6.19143e-06
-0.00195425
-3.88364e-06
-0.00194962
-1.39483e-05
-0.00194153
-2.39835e-05
-0.00193
-3.39681e-05
-0.00191503
-4.3879e-05
-0.00189668
-5.36961e-05
-0.00187496
-6.34004e-05
-0.00184994
-7.29697e-05
-0.00182166
-8.23788e-05
-0.00179019
-9.16035e-05
-0.00175561
-0.000100619
-0.001718
-0.000109398
-0.00167746
-0.000117909
-0.0016341
-0.000126126
-0.00158803
-0.000134019
-0.00153939
-0.000141552
-0.00148832
-0.000148688
-0.00143497
-0.000155389
-0.00137951
-0.000161617
-0.00132212
-0.000167334
-0.00126299
-0.000172497
-0.00120233
-0.000177063
-0.00114035
-0.00018099
-0.00107729
-0.000184237
-0.00101339
-0.00018676
-0.000948919
-0.000188516
-0.000884148
-0.00018946
-0.000819364
-0.000189546
-0.000754865
-0.00018873
-0.000690961
-0.000186971
-0.000627973
-0.000184231
-0.000566234
-0.000180477
-0.000506083
-0.000175674
-0.000447866
-0.000169796
-0.00039193
-0.000162824
-0.000338627
-0.000154751
-0.000288304
-0.000145583
-0.000241299
-0.000135336
-0.000197938
-0.000124046
-0.000158519
-0.000111773
-0.000123309
-9.8613e-05
-9.25266e-05
-8.47093e-05
-6.63281e-05
-7.02647e-05
-4.47872e-05
-5.55651e-05
-2.78706e-05
-4.1005e-05
-1.54073e-05
-2.71263e-05
-7.05572e-06
-1.46816e-05
-2.26367e-06
-4.70143e-06
-2.46988e-07
1.52682e-06
2.77169e-06
2.92649e-07
-8.14056e-06
-2.16586e-06
-3.38112e-06
-9.12958e-06
1.22497e-05
-2.10222e-05
3.02284e-05
-3.8052e-05
4.91559e-05
-6.03695e-05
6.86286e-05
-8.8022e-05
8.82181e-05
-0.000120962
0.000107538
-0.000159063
0.000126274
-0.000202107
0.000144171
-0.000249846
0.000161051
-0.000301962
0.000176765
-0.000358115
0.000191219
-0.000417943
0.00020435
-0.000481064
0.000216115
-0.000547085
0.0002265
-0.000615623
0.000235504
-0.000686274
0.000243136
-0.00075866
0.000249418
-0.000832392
0.000254376
-0.000907108
0.000258046
-0.000982443
0.000260461
-0.00105805
0.000261662
-0.00113361
0.000261691
-0.00120879
0.000260595
-0.0012833
0.000258424
-0.00135686
0.000255226
-0.00142918
0.000251057
-0.00150002
0.000245967
-0.00156912
0.000240011
-0.00163626
0.000233241
-0.00170121
0.000225705
-0.00176378
0.000217454
-0.00182378
0.000208538
-0.00188103
0.000198999
-0.00193536
0.000188882
-0.00198663
0.000178232
-0.0020347
0.00016709
-0.00207945
0.000155496
-0.00212074
0.000143486
-0.00215849
0.000131104
-0.0021926
0.000118389
-0.00222298
0.000105373
-0.00224956
9.20926e-05
-0.00227226
7.85886e-05
-0.00229105
6.48964e-05
-0.00230586
5.10459e-05
-0.00231665
3.70698e-05
-0.0023234
2.30035e-05
-0.00232609
8.87851e-06
-0.0023247
-5.27569e-06
-0.00231922
-1.94256e-05
-0.00230966
-3.35379e-05
-0.00229605
-4.75841e-05
-0.00227839
-6.15355e-05
-0.00225673
-7.53587e-05
-0.00223111
-8.90203e-05
-0.00220159
-0.00010249
-0.00216823
-0.000115735
-0.00213112
-0.000128718
-0.00209034
-0.0001414
-0.002046
-0.000153741
-0.0019982
-0.000165702
-0.00194709
-0.000177242
-0.00189279
-0.000188317
-0.00183547
-0.000198876
-0.00177528
-0.000208869
-0.00171243
-0.000218246
-0.00164709
-0.000226956
-0.00157948
-0.000234943
-0.00150983
-0.000242149
-0.00143837
-0.000248516
-0.00136537
-0.000253989
-0.0012911
-0.000258509
-0.00121585
-0.000262017
-0.00113991
-0.000264454
-0.00106361
-0.000265761
-0.000987274
-0.000265878
-0.000911258
-0.000264746
-0.000835916
-0.000262313
-0.000761618
-0.00025853
-0.000688743
-0.000253352
-0.000617681
-0.000246736
-0.000548826
-0.000238651
-0.000482575
-0.000229075
-0.000419323
-0.000218004
-0.000359459
-0.000205446
-0.000303365
-0.00019143
-0.000251401
-0.00017601
-0.0002039
-0.000159274
-0.000161156
-0.000141357
-0.000123412
-0.000122453
-9.0847e-05
-0.00010283
-6.35547e-05
-8.28575e-05
-4.15268e-05
-6.30329e-05
-2.46274e-05
-4.40258e-05
-1.25714e-05
-2.67376e-05
-4.90234e-06
-1.23704e-05
-9.82376e-07
-2.39318e-06
1.78931e-06
-7.26691e-07
-7.41402e-06
-5.45544e-06
1.34774e-06
-1.55401e-05
2.23343e-05
-3.13144e-05
4.60026e-05
-5.29265e-05
7.07679e-05
-8.04604e-05
9.61625e-05
-0.000113921
0.000121679
-0.000153226
0.000146843
-0.00019821
0.000171258
-0.000248652
0.000194613
-0.000304249
0.000216648
-0.000364672
0.000237188
-0.000429547
0.000256094
-0.000498473
0.000273277
-0.000571043
0.000288684
-0.000646819
0.000302276
-0.000725374
0.00031406
-0.000806268
0.00032403
-0.00088908
0.000332229
-0.000973379
0.000338675
-0.00105876
0.000343422
-0.00114481
0.000346513
-0.00123115
0.000348004
-0.00131741
0.000347951
-0.00140323
0.000346414
-0.00148827
0.000343463
-0.0015722
0.000339162
-0.00165473
0.000333579
-0.00173554
0.000326785
-0.00181438
0.000318846
-0.00189097
0.00030983
-0.00196507
0.000299805
-0.00203645
0.000288835
-0.00210489
0.000276981
-0.0021702
0.000264305
-0.00223218
0.000250867
-0.00229068
0.000236724
-0.00234551
0.000221928
-0.00239655
0.000206536
-0.00244367
0.000190601
-0.00248674
0.000174171
-0.00252564
0.000157295
-0.0025603
0.000140025
-0.00259061
0.000122408
-0.00261651
0.000104487
-0.00263792
8.63102e-05
-0.0026548
6.79239e-05
-0.0026671
4.93679e-05
-0.00267478
3.06824e-05
-0.00267781
1.19134e-05
-0.00267619
-6.89452e-06
-0.00266992
-2.5702e-05
-0.00265899
-4.44699e-05
-0.00264341
-6.31557e-05
-0.00262324
-8.17142e-05
-0.00259849
-0.000100102
-0.00256923
-0.00011828
-0.00253552
-0.000136202
-0.00249744
-0.000153821
-0.00245507
-0.000171085
-0.00240852
-0.000187945
-0.00235791
-0.000204349
-0.00230337
-0.000220244
-0.00224505
-0.00023557
-0.0021831
-0.000250268
-0.0021177
-0.000264274
-0.00204904
-0.000277524
-0.00197734
-0.000289952
-0.0019028
-0.000301488
-0.00182569
-0.000312061
-0.00174624
-0.000321597
-0.00166473
-0.000330021
-0.00158146
-0.000337258
-0.00149674
-0.000343235
-0.00141088
-0.000347876
-0.00132423
-0.000351104
-0.00123715
-0.000352842
-0.00115001
-0.000353016
-0.0010632
-0.000351555
-0.000977121
-0.000348392
-0.000892185
-0.000343466
-0.000808816
-0.000336721
-0.000727446
-0.000328106
-0.000648511
-0.000317585
-0.000572449
-0.000305137
-0.000499695
-0.000290758
-0.000430677
-0.000274465
-0.00036581
-0.000256298
-0.000305487
-0.000236332
-0.000250073
-0.000214689
-0.000199887
-0.000191542
-0.000155201
-0.000167138
-0.00011622
-0.000141812
-8.30688e-05
-0.000116009
-5.57793e-05
-9.03224e-05
-3.427e-05
-6.55352e-05
-1.83356e-05
-4.2672e-05
-7.64423e-06
-2.30617e-05
-1.73132e-06
-8.30612e-06
5.79923e-08
-1.77495e-06
-5.63903e-06
-8.82727e-06
8.39994e-06
-2.21384e-05
3.56453e-05
-4.19024e-05
6.57668e-05
-6.81992e-05
9.70647e-05
-0.000101045
0.000129008
-0.000140378
0.000161011
-0.00018607
0.000192535
-0.00023792
0.000223108
-0.000295658
0.000252351
-0.000358969
0.00027996
-0.000427485
0.000305704
-0.000500802
0.000329411
-0.000578496
0.000350971
-0.00066011
0.000370298
-0.000745192
0.000387359
-0.000833268
0.000402135
-0.000923877
0.000414639
-0.00101654
0.000424895
-0.00111081
0.000432943
-0.00120623
0.00043884
-0.00130236
0.000442644
-0.00139878
0.000444422
-0.00149507
0.000444248
-0.00159086
0.000442201
-0.00168576
0.000438361
-0.00177941
0.000432813
-0.00187147
0.000425642
-0.00196162
0.000416935
-0.00204955
0.000406778
-0.00213498
0.000395254
-0.00221762
0.000382447
-0.00229722
0.00036844
-0.00237355
0.000353311
-0.00244639
0.000337137
-0.00251551
0.000319991
-0.00258074
0.000301951
-0.00264189
0.000283085
-0.00269881
0.000263457
-0.00275135
0.000243137
-0.00279937
0.000222191
-0.00284276
0.00020068
-0.00288139
0.000178661
-0.00291518
0.000156198
-0.00294405
0.000133351
-0.00296791
0.000110176
-0.00298671
8.67243e-05
-0.0030004
6.3052e-05
-0.00300893
3.92167e-05
-0.00301229
1.52722e-05
-0.00301045
-8.73087e-06
-0.00300341
-3.27395e-05
-0.00299119
-5.6698e-05
-0.00297379
-8.0552e-05
-0.00295126
-0.000104248
-0.00292363
-0.00012773
-0.00289097
-0.000150941
-0.00285335
-0.000173824
-0.00281085
-0.000196316
-0.00276358
-0.000218353
-0.00271166
-0.000239871
-0.0026552
-0.000260803
-0.00259437
-0.000281078
-0.00252932
-0.000300622
-0.00246022
-0.000319359
-0.00238729
-0.000337208
-0.00231073
-0.000354089
-0.00223076
-0.000369916
-0.00214764
-0.000384606
-0.00206164
-0.000398065
-0.00197303
-0.000410203
-0.00188213
-0.000420925
-0.00178925
-0.00043014
-0.00169473
-0.000437754
-0.00159893
-0.000443674
-0.00150223
-0.000447803
-0.00140503
-0.000450048
-0.00130773
-0.000450319
-0.00121075
-0.000448531
-0.00111454
-0.000444602
-0.00101955
-0.000438459
-0.000926235
-0.000430033
-0.000835074
-0.000419268
-0.000746535
-0.000406123
-0.000661094
-0.000390578
-0.000579221
-0.000372631
-0.000501378
-0.000352308
-0.000428012
-0.000329664
-0.000359546
-0.000304797
-0.000296375
-0.000277861
-0.000238848
-0.000249069
-0.000187267
-0.000218719
-0.000141871
-0.000187207
-0.000102827
-0.000155053
-7.02166e-05
-0.000122933
-4.40276e-05
-9.17242e-05
-2.41523e-05
-6.25474e-05
-1.03943e-05
-3.68197e-05
-2.47184e-06
-1.62286e-05
-2.41385e-06
-2.79966e-06
-2.83942e-06
-1.21695e-05
1.77697e-05
-2.86906e-05
5.21663e-05
-5.24574e-05
8.95336e-05
-8.34564e-05
0.000128064
-0.000121613
0.000167165
-0.000166814
0.000206212
-0.000218859
0.000244581
-0.000277506
0.000281755
-0.000342445
0.00031729
-0.000413321
0.000350836
-0.000489736
0.000382118
-0.000571256
0.000410931
-0.000657422
0.000437136
-0.000747754
0.000460631
-0.000841767
0.000481372
-0.000938952
0.00049932
-0.00103882
0.000514504
-0.00114086
0.000526935
-0.00124459
0.000536672
-0.00134952
0.000543769
-0.00145518
0.000548303
-0.00156111
0.000550355
-0.00166687
0.000550013
-0.00177205
0.000547375
-0.00187622
0.000542535
-0.00197901
0.000535599
-0.00208004
0.00052667
-0.00217895
0.000515852
-0.00227542
0.000503248
-0.00236913
0.000488964
-0.00245979
0.000473101
-0.0025471
0.000455757
-0.00263082
0.000437029
-0.0027107
0.000417015
-0.00278651
0.000395806
-0.00285805
0.000373488
-0.00292512
0.000350149
-0.00298754
0.000325877
-0.00304515
0.000300752
-0.00309781
0.000274848
-0.00314537
0.000248244
-0.00318773
0.000221019
-0.00322478
0.000193244
-0.00325641
0.000164989
-0.00328256
0.000136323
-0.00330315
0.000107317
-0.00331814
7.80371e-05
-0.00332747
4.85504e-05
-0.00333112
1.89237e-05
-0.00332908
-1.07773e-05
-0.00332133
-4.04865e-05
-0.00330789
-7.01366e-05
-0.00328878
-9.96603e-05
-0.00326404
-0.000128989
-0.00323372
-0.000158054
-0.00319788
-0.000186783
-0.0031566
-0.000215103
-0.00310997
-0.000242938
-0.00305812
-0.000270206
-0.00300116
-0.000296829
-0.00293924
-0.000322724
-0.00287252
-0.000347801
-0.00280117
-0.00037197
-0.00272539
-0.000395135
-0.0026454
-0.000417199
-0.00256143
-0.000438063
-0.00247372
-0.000457624
-0.00238255
-0.000475775
-0.00228821
-0.000492406
-0.00219101
-0.000507404
-0.00209128
-0.000520659
-0.00198936
-0.000532058
-0.00188562
-0.000541487
-0.00178047
-0.000548831
-0.00167429
-0.000553976
-0.00156753
-0.000556812
-0.00146062
-0.000557231
-0.00135402
-0.000555133
-0.0012482
-0.000550421
-0.00114365
-0.000543007
-0.00104087
-0.000532814
-0.000940355
-0.000519779
-0.00084262
-0.000503858
-0.000748169
-0.000485029
-0.000657506
-0.000463295
-0.000571124
-0.00043869
-0.0004895
-0.000411288
-0.000413088
-0.000381209
-0.000342312
-0.000348637
-0.000277555
-0.000313826
-0.000219155
-0.00027712
-0.00016739
-0.000238972
-0.000122477
-0.000199966
-8.45576e-05
-0.000160852
-5.37e-05
-0.000122582
-2.99021e-05
-8.63453e-05
-1.3103e-05
-5.36188e-05
-3.19988e-06
-2.61317e-05
-5.61372e-06
-3.76841e-06
9.29032e-07
-1.53845e-05
2.93858e-05
-3.50666e-05
7.18484e-05
-6.27789e-05
0.000117246
-9.84154e-05
0.0001637
-0.000141841
0.00021059
-0.000192839
0.00025721
-0.000251171
0.000302912
-0.000316523
0.000347107
-0.000388544
0.000389311
-0.000466838
0.00042913
-0.00055097
0.00046625
-0.000640479
0.00050044
-0.000734868
0.000531525
-0.000833637
0.0005594
-0.000936253
0.000583988
-0.0010422
0.000605268
-0.00115094
0.000623244
-0.00126195
0.000637945
-0.00137471
0.000649427
-0.00148869
0.000657758
-0.00160342
0.000663025
-0.00171838
0.000665322
-0.00183312
0.000664755
-0.00194719
0.000661437
-0.00206014
0.000655485
-0.00217156
0.000647018
-0.00228105
0.000636161
-0.00238823
0.000623037
-0.00249275
0.00060777
-0.00259427
0.000590483
-0.00269247
0.000571297
-0.00278704
0.000550332
-0.00287772
0.000527704
-0.00296423
0.000503524
-0.00304633
0.000477904
-0.00312379
0.000450954
-0.00319642
0.000422775
-0.00326401
0.000393467
-0.00332638
0.000363128
-0.00338339
0.000331857
-0.00343489
0.000299742
-0.00348074
0.000266873
-0.00352084
0.000233339
-0.00355508
0.000199227
-0.00358337
0.000164618
-0.00360565
0.000129595
-0.00362185
9.42387e-05
-0.00363193
5.8632e-05
-0.00363586
2.28542e-05
-0.00363362
-1.30162e-05
-0.00362521
-4.8899e-05
-0.00361064
-8.47113e-05
-0.00358992
-0.000120372
-0.00356312
-0.000155798
-0.00353026
-0.000190906
-0.00349144
-0.000225608
-0.00344673
-0.000259813
-0.00339624
-0.00029343
-0.00334008
-0.000326361
-0.0032784
-0.000358511
-0.00321135
-0.000389778
-0.00313909
-0.000420056
-0.00306183
-0.000449231
-0.00297977
-0.000477193
-0.00289315
-0.000503826
-0.0028022
-0.000529009
-0.00270721
-0.000552618
-0.00260845
-0.000574526
-0.00250626
-0.000594602
-0.00240095
-0.000612713
-0.00229288
-0.000628729
-0.00218242
-0.000642513
-0.00206998
-0.000653931
-0.00195596
-0.000662848
-0.00184081
-0.000669129
-0.00172498
-0.000672647
-0.00160893
-0.000673276
-0.00149317
-0.000670898
-0.00137818
-0.000665402
-0.00126451
-0.000656685
-0.00115266
-0.000644663
-0.00104317
-0.000629264
-0.000936589
-0.000610441
-0.000833446
-0.000588173
-0.000734275
-0.000562465
-0.000639603
-0.000533362
-0.000549937
-0.000500954
-0.000465761
-0.000465385
-0.000387532
-0.000426866
-0.000315668
-0.000385689
-0.000250547
-0.000342241
-0.000192495
-0.000297024
-0.000141781
-0.000250679
-9.86187e-05
-0.000204015
-6.31601e-05
-0.00015804
-3.55106e-05
-0.000113995
-1.57411e-05
-7.33882e-05
-3.91203e-06
-3.79608e-05
-9.52573e-06
-4.67487e-06
5.60379e-06
-1.84429e-05
4.31539e-05
-4.11756e-05
9.45811e-05
-7.27348e-05
0.000148805
-0.00011293
0.000203896
-0.000161517
0.000259178
-0.000218227
0.000313919
-0.000282733
0.000367418
-0.000354676
0.00041905
-0.00043365
0.000468285
-0.000519214
0.000514695
-0.000610898
0.000557934
-0.000708197
0.00059774
-0.00081059
0.000633917
-0.000917541
0.000666351
-0.0010285
0.000694943
-0.0011429
0.000719675
-0.0012602
0.000740538
-0.00137983
0.000757578
-0.00150125
0.000770846
-0.00162391
0.000780423
-0.0017473
0.000786407
-0.00187088
0.000788911
-0.00199418
0.000788053
-0.00211671
0.000783961
-0.002238
0.000776775
-0.00235762
0.000766636
-0.00247514
0.000753684
-0.00259016
0.000738062
-0.00270231
0.000719917
-0.00281122
0.000699395
-0.00291656
0.000676635
-0.003018
0.000651772
-0.00311524
0.000624947
-0.00320801
0.000596296
-0.00329606
0.000565945
-0.00337912
0.000534018
-0.00345698
0.00050064
-0.00352945
0.000465931
-0.00359632
0.000430005
-0.00365744
0.000392972
-0.00371264
0.000354942
-0.00376179
0.000316022
-0.00380476
0.000276315
-0.00384146
0.00023592
-0.00387178
0.000194936
-0.00389564
0.000153462
-0.003913
0.000111593
-0.00392379
6.94247e-05
-0.00392799
2.70513e-05
-0.00392557
-1.5433e-05
-0.00391654
-5.7932e-05
-0.0039009
-0.000100348
-0.00387869
-0.000142586
-0.00384993
-0.000184549
-0.00381471
-0.000226134
-0.00377308
-0.000267236
-0.00372514
-0.000307749
-0.00367101
-0.000347563
-0.0036108
-0.000386566
-0.00354467
-0.000424642
-0.00347278
-0.00046167
-0.00339532
-0.000497523
-0.00331248
-0.000532071
-0.00322449
-0.000565182
-0.00313159
-0.000596719
-0.00303406
-0.000626541
-0.00293218
-0.000654501
-0.00282625
-0.00068045
-0.00271662
-0.000704237
-0.00260362
-0.000725707
-0.00248765
-0.000744704
-0.00236909
-0.000761073
-0.00224836
-0.000774656
-0.00212592
-0.000785296
-0.00200221
-0.000792839
-0.00187772
-0.000797137
-0.00175295
-0.000798046
-0.00162841
-0.000795431
-0.00150465
-0.000789165
-0.0013822
-0.000779132
-0.00126163
-0.000765237
-0.00114349
-0.000747403
-0.00102836
-0.000725577
-0.00091679
-0.000699738
-0.000809359
-0.000669896
-0.000706617
-0.000636105
-0.000609102
-0.000598469
-0.000517332
-0.000557154
-0.000431799
-0.000512399
-0.00035296
-0.000464528
-0.000281235
-0.000413966
-0.000217003
-0.000361257
-0.000160593
-0.00030709
-0.000112289
-0.000252319
-7.23328e-05
-0.000197996
-4.0934e-05
-0.000145394
-1.82893e-05
-9.60329e-05
-4.59955e-06
-5.16506e-05
-1.41253e-05
-5.51504e-06
1.11188e-05
-2.13222e-05
5.89612e-05
-4.69945e-05
0.000120253
-8.22821e-05
0.000184093
-0.0001269
0.000248514
-0.000180535
0.000312812
-0.000242829
0.000376214
-0.00031339
0.00043798
-0.000391796
0.000497455
-0.000477588
0.000554078
-0.000570274
0.000607381
-0.000669343
0.000657003
-0.000774256
0.000702653
-0.000884462
0.000744123
-0.000999377
0.000781266
-0.00111843
0.000814
-0.00124104
0.000842283
-0.00136662
0.000866118
-0.00149458
0.000885541
-0.00162436
0.000900616
-0.00175537
0.000911441
-0.00188708
0.000918118
-0.00201895
0.000920773
-0.00215044
0.000919545
-0.00228106
0.000914583
-0.00241033
0.000906044
-0.00253778
0.000894083
-0.00266296
0.000878864
-0.00278545
0.000860559
-0.00290487
0.000839331
-0.00302081
0.000815341
-0.00313293
0.000788754
-0.00324089
0.000759734
-0.00334438
0.000728437
-0.0034431
0.000695013
-0.00353677
0.000659615
-0.00362514
0.00062239
-0.00370798
0.000583479
-0.00378507
0.000543018
-0.0038562
0.000501141
-0.00392121
0.000457977
-0.00397992
0.000413655
-0.0040322
0.000368296
-0.0040779
0.000322019
-0.00411692
0.00027494
-0.00414916
0.000227176
-0.00417454
0.000178841
-0.00419299
0.000130044
-0.00420446
8.08961e-05
-0.00420892
3.15088e-05
-0.00420635
-1.80077e-05
-0.00419673
-6.75422e-05
-0.0041801
-0.000116982
-0.00415647
-0.000166215
-0.00412589
-0.000215127
-0.00408843
-0.000263599
-0.00404416
-0.000311507
-0.00399318
-0.000358729
-0.0039356
-0.000405136
-0.00387157
-0.000450598
-0.00380124
-0.000494979
-0.00372477
-0.000538137
-0.00364237
-0.000579926
-0.00355424
-0.000620195
-0.00346063
-0.000658792
-0.00336179
-0.000695557
-0.00325801
-0.000730325
-0.00314958
-0.000762929
-0.00303684
-0.000793196
-0.00292012
-0.000820952
-0.00279981
-0.000846019
-0.00267629
-0.000868218
-0.00255
-0.00088737
-0.00242136
-0.000903294
-0.00229085
-0.00091581
-0.00215894
-0.000924745
-0.00202615
-0.000929929
-0.001893
-0.000931199
-0.00176003
-0.0009284
-0.0016278
-0.000921391
-0.00149689
-0.000910043
-0.00136788
-0.00089425
-0.00124135
-0.000873926
-0.00111792
-0.000849015
-0.00099816
-0.000819493
-0.000882681
-0.000785376
-0.000772062
-0.000746724
-0.000666874
-0.000703657
-0.000567669
-0.000656359
-0.000474977