/*--------------------------------*- C++ -*----------------------------------*\
  =========                 |
  \\      /  F ield         | OpenFOAM: The Open Source CFD Toolbox
   \\    /   O peration     | Website:  https://openfoam.org
    \\  /    A nd           | Version:  11
     \\/     M anipulation  |
\*---------------------------------------------------------------------------*/
FoamFile
{
    format      ascii;
    class       surfaceScalarField;
    location    "3.8";
    object      phi;
}
// * * * * * * * * * * * * * * * * * * * * * * * * * * * * * * * * * * * * * //

dimensions      [0 3 -1 0 0 0 0];

internalField   nonuniform List<scalar> 
19980
(
6.66826e-07
-6.66895e-07
2.5218e-06
-1.85499e-06
4.79589e-06
-2.27418e-06
6.65756e-06
-1.8617e-06
7.6908e-06
-1.03333e-06
7.73984e-06
-4.89413e-08
6.76529e-06
9.74514e-07
4.77626e-06
1.98922e-06
1.81272e-06
2.96343e-06
-2.07731e-06
3.89022e-06
-6.83452e-06
4.75705e-06
-1.23949e-05
5.56039e-06
-1.8696e-05
6.30103e-06
-2.56702e-05
6.9743e-06
-3.32527e-05
7.58248e-06
-4.13782e-05
8.12563e-06
-4.99841e-05
8.60576e-06
-5.90077e-05
9.02354e-06
-6.83891e-05
9.38143e-06
-7.8068e-05
9.67893e-06
-8.79873e-05
9.91923e-06
-9.80921e-05
1.01048e-05
-0.000108329
1.02369e-05
-0.000118647
1.03175e-05
-0.000128995
1.03488e-05
-0.000139327
1.03317e-05
-0.000149596
1.02684e-05
-0.000159757
1.01617e-05
-0.000169771
1.00139e-05
-0.000179598
9.82613e-06
-0.000189197
9.59976e-06
-0.000198535
9.33748e-06
-0.000207576
9.04148e-06
-0.000216289
8.71277e-06
-0.000224642
8.353e-06
-0.000232606
7.96448e-06
-0.000240156
7.54918e-06
-0.000247264
7.1086e-06
-0.000253908
6.6442e-06
-0.000260066
6.15751e-06
-0.000265716
5.65017e-06
-0.00027084
5.12387e-06
-0.00027542
4.58016e-06
-0.000279441
4.02067e-06
-0.000282888
3.44731e-06
-0.00028575
2.86189e-06
-0.000288016
2.26613e-06
-0.000289678
1.6618e-06
-0.000290729
1.05066e-06
-0.000291163
4.34677e-07
-0.00029098
-1.8382e-07
-0.000290177
-8.02704e-07
-0.000288756
-1.42062e-06
-0.00028672
-2.03614e-06
-0.000284073
-2.64689e-06
-0.000280823
-3.25005e-06
-0.00027698
-3.8432e-06
-0.000272556
-4.42438e-06
-0.000267564
-4.99205e-06
-0.000262019
-5.54439e-06
-0.000255941
-6.07867e-06
-0.000249349
-6.59172e-06
-0.000242268
-7.08108e-06
-0.000234723
-7.54528e-06
-0.00022674
-7.98304e-06
-0.000218347
-8.39247e-06
-0.000209576
-8.77107e-06
-0.00020046
-9.11629e-06
-0.000191034
-9.42581e-06
-0.000181336
-9.69742e-06
-0.000171407
-9.92901e-06
-0.000161289
-1.01186e-05
-0.000151025
-1.02641e-05
-0.000140661
-1.03634e-05
-0.000130247
-1.04145e-05
-0.000119831
-1.04157e-05
-0.000109465
-1.03657e-05
-9.92023e-05
-1.0263e-05
-8.9096e-05
-1.01062e-05
-7.92017e-05
-9.89426e-06
-6.95755e-05
-9.62622e-06
-6.02741e-05
-9.30143e-06
-5.13549e-05
-8.91917e-06
-4.28763e-05
-8.47866e-06
-3.48972e-05
-7.97912e-06
-2.74771e-05
-7.4202e-06
-2.06748e-05
-6.80228e-06
-1.45482e-05
-6.12667e-06
-9.15228e-06
-5.39595e-06
-4.53839e-06
-4.61388e-06
-7.52673e-07
-3.7857e-06
2.16665e-06
-2.91932e-06
4.1934e-06
-2.02674e-06
5.32018e-06
-1.12674e-06
5.56971e-06
-2.49493e-07
5.0121e-06
5.57613e-07
3.7927e-06
1.21942e-06
2.18042e-06
1.61234e-06
6.59886e-07
1.52056e-06
6.59894e-07
1.12122e-06
-1.78798e-06
3.58241e-06
-4.31632e-06
6.39373e-06
-5.08524e-06
8.32581e-06
-3.79382e-06
8.55359e-06
-1.2611e-06
6.61932e-06
1.88514e-06
2.29597e-06
5.29794e-06
-4.48996e-06
8.77487e-06
-1.37253e-05
1.21988e-05
-2.53351e-05
1.55e-05
-3.92113e-05
1.86332e-05
-5.52222e-05
2.15715e-05
-7.32183e-05
2.4297e-05
-9.30445e-05
2.68003e-05
-0.000114537
2.90754e-05
-0.00013753
3.11187e-05
-0.000161858
3.29334e-05
-0.000187355
3.45209e-05
-0.000213858
3.58835e-05
-0.000241205
3.70259e-05
-0.00026924
3.79546e-05
-0.000297809
3.8674e-05
-0.000326763
3.91905e-05
-0.000355956
3.95111e-05
-0.00038525
3.96421e-05
-0.000414507
3.95896e-05
-0.0004436
3.93609e-05
-0.000472401
3.89635e-05
-0.000500793
3.84049e-05
-0.000528659
3.76922e-05
-0.000555891
3.68318e-05
-0.000582384
3.58309e-05
-0.00060804
3.46974e-05
-0.000632766
3.34379e-05
-0.000656471
3.20585e-05
-0.000679073
3.05664e-05
-0.000700493
2.89691e-05
-0.000720658
2.72733e-05
-0.000739498
2.5485e-05
-0.000756951
2.36105e-05
-0.000772957
2.16566e-05
-0.000787463
1.96299e-05
-0.00080042
1.7537e-05
-0.000811784
1.53845e-05
-0.000821516
1.31792e-05
-0.000829583
1.09283e-05
-0.000835955
8.6387e-06
-0.00084061
6.3169e-06
-0.00084353
3.96978e-06
-0.0008447
1.60521e-06
-0.000844115
-7.68829e-07
-0.000841773
-3.14511e-06
-0.000837677
-5.51705e-06
-0.000831835
-7.87764e-06
-0.000824263
-1.02186e-05
-0.000814983
-1.25309e-05
-0.00080402
-1.4806e-05
-0.000791408
-1.70363e-05
-0.000777186
-1.92143e-05
-0.000761398
-2.13317e-05
-0.000744098
-2.33795e-05
-0.000725341
-2.53485e-05
-0.000705192
-2.72299e-05
-0.000683721
-2.90159e-05
-0.000661005
-3.0699e-05
-0.000637126
-3.22714e-05
-0.000612173
-3.37248e-05
-0.000586239
-3.50502e-05
-0.000559426
-3.62387e-05
-0.000531841
-3.72821e-05
-0.000503598
-3.81724e-05
-0.000474814
-3.89016e-05
-0.000445617
-3.94619e-05
-0.000416134
-3.98458e-05
-0.000386502
-4.00461e-05
-0.000356862
-4.00564e-05
-0.000327356
-3.98708e-05
-0.000298135
-3.9484e-05
-0.000269351
-3.88908e-05
-0.000241158
-3.80874e-05
-0.000213714
-3.70704e-05
-0.000187178
-3.58371e-05
-0.000161712
-3.43854e-05
-0.000137477
-3.27141e-05
-0.000114632
-3.08233e-05
-9.33377e-05
-2.8715e-05
-7.37462e-05
-2.63937e-05
-5.60054e-05
-2.38674e-05
-4.02531e-05
-2.11483e-05
-2.66125e-05
-1.82544e-05
-1.51875e-05
-1.52107e-05
-6.05363e-06
-1.20531e-05
7.53115e-07
-8.83342e-06
5.25245e-06
-5.62613e-06
7.54321e-06
-2.54031e-06
7.83602e-06
2.64789e-07
6.49809e-06
2.55729e-06
4.10907e-06
4.0013e-06
1.52265e-06
4.10689e-06
2.18249e-06
8.1355e-07
-2.60161e-06
2.37588e-06
-5.87864e-06
3.72403e-06
-6.43358e-06
3.62912e-06
-3.69882e-06
1.14435e-06
1.22377e-06
-4.35146e-06
7.38122e-06
-1.32174e-05
1.4164e-05
-2.56219e-05
2.11793e-05
-4.16013e-05
2.81785e-05
-6.10982e-05
3.49966e-05
-8.39898e-05
4.15249e-05
-0.000110108
4.76899e-05
-0.000139254
5.34425e-05
-0.000171207
5.87532e-05
-0.000205731
6.35996e-05
-0.000242587
6.79744e-05
-0.000281523
7.18695e-05
-0.000322289
7.52872e-05
-0.000364636
7.82304e-05
-0.000408316
8.07057e-05
-0.000453084
8.27223e-05
-0.000498699
8.42897e-05
-0.000544929
8.54199e-05
-0.000591543
8.61259e-05
-0.000638322
8.64203e-05
-0.000685049
8.63165e-05
-0.000731517
8.58292e-05
-0.000777527
8.4974e-05
-0.000822888
8.3766e-05
-0.000867415
8.22192e-05
-0.000910933
8.03492e-05
-0.000953274
7.8172e-05
-0.000994279
7.57025e-05
-0.0010338
7.29554e-05
-0.00107168
6.99454e-05
-0.00110781
6.66883e-05
-0.00114204
6.31992e-05
-0.00117425
5.94928e-05
-0.00120435
5.55833e-05
-0.00123223
5.14854e-05
-0.00125779
4.72143e-05
-0.00128094
4.27844e-05
-0.00130161
3.82101e-05
-0.00131973
3.35062e-05
-0.00133524
2.86882e-05
-0.00134809
2.37715e-05
-0.00135822
1.87707e-05
-0.0013656
1.37008e-05
-0.00137021
8.57762e-06
-0.00137202
3.41733e-06
-0.00137103
-1.76386e-06
-0.00136722
-6.9502e-06
-0.00136061
-1.21258e-05
-0.00135122
-1.72744e-05
-0.00133906
-2.23786e-05
-0.00132417
-2.74208e-05
-0.00130659
-3.2383e-05
-0.00128638
-3.72477e-05
-0.0012636
-4.19977e-05
-0.00123831
-4.66151e-05
-0.00121061
-5.10811e-05
-0.00118058
-5.53766e-05
-0.00114833
-5.9483e-05
-0.00111396
-6.33825e-05
-0.0010776
-6.70575e-05
-0.00103939
-7.049e-05
-0.00099945
-7.36615e-05
-0.000957946
-7.65536e-05
-0.000915037
-7.91477e-05
-0.000870893
-8.14259e-05
-0.000825695
-8.33707e-05
-0.000779631
-8.49651e-05
-0.000732901
-8.61923e-05
-0.00068571
-8.70363e-05
-0.000638274
-8.74821e-05
-0.000590815
-8.75158e-05
-0.000543561
-8.71247e-05
-0.000496748
-8.62971e-05
-0.000450616
-8.50227e-05
-0.00040541
-8.32932e-05
-0.000361379
-8.11016e-05
-0.000318773
-7.84431e-05
-0.000277843
-7.53151e-05
-0.00023884
-7.17174e-05
-0.00020201
-6.76535e-05
-0.000167594
-6.31312e-05
-0.000135823
-5.81645e-05
-0.000106916
-5.27746e-05
-8.10717e-05
-4.69924e-05
-5.8465e-05
-4.08612e-05
-3.9235e-05
-3.44406e-05
-2.3475e-05
-2.78131e-05
-1.12156e-05
-2.10929e-05
-2.40446e-06
-1.44373e-05
3.12069e-06
-8.06537e-06
5.66709e-06
-2.2815e-06
5.73035e-06
2.49399e-06
4.04223e-06
5.68944e-06
1.62763e-06
6.52143e-06
3.81007e-06
3.89165e-07
-2.99075e-06
6.09096e-07
-6.09857e-06
-2.75497e-07
-5.54876e-06
-3.38195e-06
-5.92464e-07
-9.63017e-06
7.47179e-06
-1.96708e-05
1.74218e-05
-3.39172e-05
2.84103e-05
-5.25921e-05
3.98542e-05
-7.57661e-05
5.13526e-05
-0.000103395
6.26252e-05
-0.000135351
7.34815e-05
-0.000171447
8.37851e-05
-0.000211446
9.34422e-05
-0.000255082
0.000102389
-0.000302066
0.000110584
-0.00035209
0.000117998
-0.000404838
0.000124618
-0.00045999
0.000130439
-0.000517222
0.000135463
-0.000576212
0.000139695
-0.000636637
0.000143147
-0.000698182
0.000145835
-0.000760538
0.000147776
-0.000823401
0.000148989
-0.000886476
0.000149495
-0.000949477
0.000149317
-0.00101213
0.000148479
-0.00107416
0.000147005
-0.00113531
0.00014492
-0.00119534
0.000142249
-0.00125401
0.000139019
-0.0013111
0.000135256
-0.00136638
0.000130984
-0.00141965
0.000126232
-0.00147073
0.000121023
-0.00151943
0.000115385
-0.00156557
0.000109343
-0.001609
0.000102923
-0.00164957
9.61511e-05
-0.00168714
8.90529e-05
-0.00172158
8.16541e-05
-0.00175277
7.39801e-05
-0.00178062
6.60569e-05
-0.00180502
5.79104e-05
-0.0018259
4.95666e-05
-0.00184318
4.10521e-05
-0.0018568
3.23933e-05
-0.00186672
2.36164e-05
-0.00187289
1.47484e-05
-0.00187529
5.81688e-06
-0.0018739
-3.15021e-06
-0.00186873
-1.21252e-05
-0.00185977
-2.10805e-05
-0.00184706
-2.99875e-05
-0.00183062
-3.88166e-05
-0.00181051
-4.75375e-05
-0.00178677
-5.61201e-05
-0.00175948
-6.45342e-05
-0.00172873
-7.27496e-05
-0.00169461
-8.0735e-05
-0.00165723
-8.84584e-05
-0.00161672
-9.58877e-05
-0.00157321
-0.000102991
-0.00152686
-0.000109738
-0.00147782
-0.000116096
-0.00142628
-0.000122034
-0.00137242
-0.000127521
-0.00131645
-0.000132524
-0.00125858
-0.000137013
-0.00119905
-0.000140956
-0.0011381
-0.000144324
-0.00107597
-0.000147088
-0.00101295
-0.00014922
-0.000949292
-0.000150692
-0.000885296
-0.000151479
-0.000821254
-0.000151557
-0.000757473
-0.000150906
-0.000694264
-0.000149506
-0.000631947
-0.00014734
-0.000570846
-0.000144394
-0.00051129
-0.000140657
-0.000453609
-0.000136125
-0.000398131
-0.000130793
-0.000345183
-0.000124666
-0.000295084
-0.000117752
-0.000248144
-0.000110071
-0.000204658
-0.00010165
-0.000164902
-9.25312e-05
-0.000129122
-8.27719e-05
-9.75316e-05
-7.24516e-05
-7.02952e-05
-6.16769e-05
-4.75172e-05
-5.05912e-05
-2.92238e-05
-3.93863e-05
-1.53413e-05
-2.83198e-05
-5.67003e-06
-1.77367e-05
1.47897e-07
-8.09949e-06
2.66611e-06
-2.42695e-08
2.67494e-06
5.68065e-06
1.26176e-06
7.93461e-06
5.07181e-06
-1.34034e-07
-2.85676e-06
-1.54937e-06
-4.68324e-06
-5.12944e-06
-1.96864e-06
-1.18449e-05
6.12289e-06
-2.25206e-05
1.81478e-05
-3.77694e-05
3.26705e-05
-5.79997e-05
4.86406e-05
-8.34403e-05
6.52947e-05
-0.00011417
8.20823e-05
-0.000150149
9.8605e-05
-0.000191245
0.000114577
-0.000237249
0.000129788
-0.000287898
0.000144092
-0.000342889
0.000157379
-0.000401885
0.00016958
-0.00046453
0.000180643
-0.000530452
0.00019054
-0.000599268
0.000199256
-0.000670592
0.000206786
-0.000744036
0.000213139
-0.000819214
0.000218325
-0.000895743
0.000222364
-0.000973244
0.000225277
-0.00105135
0.000227094
-0.0011297
0.000227843
-0.00120794
0.000227557
-0.00128573
0.00022627
-0.00136274
0.000224018
-0.00143866
0.000220838
-0.00151318
0.000216767
-0.00158601
0.000211844
-0.00165686
0.000206108
-0.00172547
0.000199598
-0.00179159
0.000192353
-0.00185498
0.000184413
-0.00191542
0.000175817
-0.00197268
0.000166605
-0.00202657
0.000156816
-0.00207691
0.000146489
-0.00212352
0.000135665
-0.00216625
0.000124382
-0.00220495
0.000112679
-0.00223949
0.000100597
-0.00226975
8.81748e-05
-0.00229564
7.5453e-05
-0.00231706
6.24718e-05
-0.00233394
4.92711e-05
-0.00234621
3.58913e-05
-0.00235384
2.2374e-05
-0.00235678
8.76136e-06
-0.00235503
-4.90464e-06
-0.00234857
-1.85821e-05
-0.00233742
-3.22279e-05
-0.00232161
-4.57983e-05
-0.00230118
-5.92484e-05
-0.00227619
-7.25332e-05
-0.0022467
-8.56067e-05
-0.00221281
-9.84232e-05
-0.00217462
-0.000110936
-0.00213226
-0.000123098
-0.00208586
-0.00013486
-0.00203557
-0.000146176
-0.00198157
-0.000156996
-0.00192403
-0.000167272
-0.00186317
-0.000176957
-0.0017992
-0.000186003
-0.00173236
-0.00019436
-0.0016629
-0.000201983
-0.00159109
-0.000208824
-0.00151721
-0.000214836
-0.00144156
-0.000219975
-0.00136445
-0.000224198
-0.00128621
-0.000227461
-0.00120718
-0.000229724
-0.00112771
-0.000230952
-0.00104816
-0.000231107
-0.000968903
-0.00023016
-0.000890328
-0.000228081
-0.000812822
-0.000224846
-0.000736778
-0.000220437
-0.000662595
-0.00021484
-0.000590672
-0.000208047
-0.000521406
-0.000200059
-0.000455189
-0.000190883
-0.000392401
-0.00018054
-0.000333411
-0.000169061
-0.000278568
-0.000156494
-0.000228192
-0.000142907
-0.000182572
-0.000128392
-0.00014195
-0.000113073
-0.000106514
-9.7113e-05
-7.63802e-05
-8.07254e-05
-5.15762e-05
-6.41903e-05
-3.20226e-05
-4.78734e-05
-1.75079e-05
-3.22514e-05
-7.66154e-06
-1.79458e-05
-1.92328e-06
-5.76255e-06
4.90491e-07
3.26682e-06
6.38302e-07
7.78684e-06
5.71009e-06
-7.72368e-07
-2.08436e-06
-4.06133e-06
-1.39437e-06
-1.06573e-05
4.62763e-06
-2.13816e-05
1.68471e-05
-3.6934e-05
3.37001e-05
-5.78477e-05
5.35846e-05
-8.44858e-05
7.52784e-05
-0.000117054
9.78626e-05
-0.000155617
0.000120646
-0.000200126
0.000143113
-0.000250427
0.000164878
-0.000306296
0.000185657
-0.000367441
0.000205237
-0.000433528
0.000223466
-0.000504183
0.000240234
-0.000579004
0.000255464
-0.000657571
0.000269107
-0.000739451
0.000281136
-0.000824203
0.000291539
-0.000911381
0.000300317
-0.00100054
0.000307485
-0.00109124
0.000313064
-0.00118304
0.000317082
-0.00127552
0.000319573
-0.00136826
0.000320576
-0.00146083
0.000320136
-0.00155286
0.000318297
-0.00164395
0.000315107
-0.00173373
0.000310617
-0.00182184
0.000304879
-0.00190794
0.000297945
-0.0019917
0.00028987
-0.00207281
0.000280707
-0.00215097
0.000270511
-0.00222589
0.000259337
-0.00229732
0.000247242
-0.00236499
0.000234279
-0.00242868
0.000220504
-0.00248816
0.000205973
-0.00254324
0.000190742
-0.00259373
0.000174866
-0.00263945
0.0001584
-0.00268025
0.0001414
-0.002716
0.000123923
-0.00274657
0.000106025
-0.00277186
8.77627e-05
-0.00279178
6.91926e-05
-0.00280626
5.03723e-05
-0.00281525
3.136e-05
-0.0028187
1.22145e-05
-0.0028166
-7.00511e-06
-0.00280894
-2.62393e-05
-0.00279575
-4.54273e-05
-0.00277704
-6.45074e-05
-0.00275287
-8.34172e-05
-0.00272331
-0.000102093
-0.00268844
-0.000120472
-0.00264838
-0.000138488
-0.00260324
-0.000156076
-0.00255316
-0.000173171
-0.00249832
-0.000189704
-0.00243889
-0.000205608
-0.00237507
-0.000220817
-0.00230708
-0.000235263
-0.00223516
-0.000248878
-0.00215956
-0.000261595
-0.00208058
-0.000273347
-0.00199849
-0.000284068
-0.00191362
-0.000293692
-0.0018263
-0.000302156
-0.00173688
-0.000309397
-0.00164572
-0.000315355
-0.00155321
-0.000319971
-0.00145975
-0.000323191
-0.00136573
-0.000324964
-0.0012716
-0.000325241
-0.00117778
-0.00032398
-0.00108472
-0.000321143
-0.000992866
-0.000316699
-0.000902681
-0.000310623
-0.000814622
-0.000302899
-0.000729151
-0.000293519
-0.000646722
-0.000282488
-0.000567784
-0.000269821
-0.000492773
-0.000255551
-0.000422106
-0.000239727
-0.000356178
-0.000222421
-0.000295352
-0.000203734
-0.000239948
-0.000183796
-0.000190239
-0.000162782
-0.000146434
-0.000140918
-0.000108666
-0.000118494
-7.69744e-05
-9.58817e-05
-5.12899e-05
-7.35579e-05
-3.14115e-05
-5.21298e-05
-1.69868e-05
-3.23705e-05
-7.48807e-06
-1.52613e-05
-2.18805e-06
-2.03332e-06
-1.24152e-07
5.72303e-06
5.5859e-06
-1.4974e-06
-5.87033e-07
-6.82204e-06
3.93039e-06
-1.66528e-05
1.44584e-05
-3.16506e-05
3.18449e-05
-5.23758e-05
5.44252e-05
-7.92634e-05
8.04721e-05
-0.000112606
0.000108621
-0.00015256
0.000137817
-0.00019916
0.000167246
-0.000252325
0.000196279
-0.000311884
0.000224437
-0.000377584
0.000251357
-0.000449108
0.000276762
-0.000526089
0.000300447
-0.000608117
0.000322261
-0.000694752
0.000342099
-0.000785532
0.000359888
-0.000879979
0.000375582
-0.000977602
0.000389162
-0.00107791
0.000400622
-0.0011804
0.000409976
-0.00128458
0.000417246
-0.00138997
0.000422466
-0.00149607
0.000425677
-0.00160242
0.000426928
-0.00170856
0.000426273
-0.00181403
0.00042377
-0.00191841
0.00041948
-0.00202126
0.000413468
-0.00212218
0.000405803
-0.00222079
0.000396551
-0.0023167
0.000385784
-0.00240957
0.000373573
-0.00249905
0.00035999
-0.00258482
0.000345108
-0.00266657
0.000328999
-0.00274403
0.000311737
-0.00281692
0.000293396
-0.002885
0.000274049
-0.00294803
0.00025377
-0.0030058
0.000232634
-0.00305811
0.000210713
-0.00310479
0.000188083
-0.00314569
0.000164819
-0.00318066
0.000140996
-0.00320959
0.000116688
-0.00323237
9.19724e-05
-0.00324892
6.69251e-05
-0.00325918
4.16237e-05
-0.00326311
1.61463e-05
-0.00326069
-9.42825e-06
-0.00325191
-3.50207e-05
-0.00323679
-6.05501e-05
-0.00321536
-8.59342e-05
-0.00318769
-0.00011109
-0.00315385
-0.000135934
-0.00311394
-0.000160381
-0.00306808
-0.000184345
-0.00301642
-0.00020774
-0.00295911
-0.000230477
-0.00289635
-0.000252467
-0.00282833
-0.000273622
-0.0027553
-0.000293853
-0.00267749
-0.00031307
-0.00259518
-0.000331184
-0.00250867
-0.000348105
-0.00241827
-0.000363746
-0.00232432
-0.000378019
-0.00222717
-0.000390839
-0.00212721
-0.000402121
-0.00202482
-0.000411783
-0.00192043
-0.000419747
-0.00181447
-0.000425936
-0.00170738
-0.000430279
-0.00159964
-0.00043271
-0.00149171
-0.000433167
-0.00138409
-0.000431596
-0.00127729
-0.000427949
-0.0011718
-0.000422186
-0.00106814
-0.000414279
-0.000966833
-0.000404208
-0.000868384
-0.000391968
-0.000773303
-0.000377569
-0.000682089
-0.000361035
-0.000595227
-0.000342414
-0.000513177
-0.000321777
-0.000436375
-0.000299224
-0.00036522
-0.000274888
-0.000300067
-0.000248949
-0.000241216
-0.000221632
-0.000188903
-0.000193231
-0.000143282
-0.000164114
-0.000104417
-0.000134747
-7.22611e-05
-0.000105714
-4.66451e-05
-7.7746e-05
-2.72589e-05
-5.17566e-05
-1.36373e-05
-2.8883e-05
-5.14457e-06
-1.05261e-05
-9.56196e-07
1.53472e-06
4.62968e-06
-2.26745e-06
1.68059e-06
-9.73528e-06
1.1398e-05
-2.29378e-05
2.76609e-05
-4.23715e-05
5.12786e-05
-6.84574e-05
8.0511e-05
-0.000101517
0.000113532
-0.000141759
0.000148863
-0.000189275
0.000185333
-0.000244049
0.000222019
-0.000305963
0.000258193
-0.000374814
0.000293287
-0.000450315
0.000326858
-0.00053212
0.000358568
-0.00061983
0.000388157
-0.000713001
0.000415433
-0.000811158
0.000440256
-0.000913797
0.000462527
-0.0010204
0.000482185
-0.00113043
0.000499196
-0.00124336
0.000513548
-0.00135864
0.000525251
-0.00147572
0.000534329
-0.00159407
0.00054082
-0.00171317
0.000544772
-0.00183248
0.000546243
-0.00195151
0.000545299
-0.00206975
0.000542009
-0.00218672
0.000536452
-0.00230196
0.000528707
-0.00241501
0.000518857
-0.00252545
0.000506988
-0.00263285
0.00049319
-0.00273683
0.000477552
-0.00283701
0.000460164
-0.00293302
0.000441119
-0.00302453
0.000420509
-0.00311122
0.000398428
-0.00319279
0.00037497
-0.00326897
0.000350228
-0.0033395
0.000324296
-0.00340413
0.00029727
-0.00346266
0.000269242
-0.00351489
0.00024031
-0.00356064
0.000210568
-0.00359975
0.000180113
-0.00363211
0.00014904
-0.00365758
0.000117447
-0.00367609
8.54327e-05
-0.00368756
5.30949e-05
-0.00369195
2.05336e-05
-0.00368923
-1.21505e-05
-0.00367939
-4.48557e-05
-0.00366246
-7.74784e-05
-0.00363848
-0.000109914
-0.00360752
-0.000142057
-0.00356965
-0.0001738
-0.003525
-0.000205035
-0.00347369
-0.000235653
-0.00341589
-0.000265542
-0.00335177
-0.000294591
-0.00328155
-0.000322688
-0.00320545
-0.000349718
-0.00312374
-0.00037557
-0.00303668
-0.000400128
-0.00294458
-0.000423281
-0.00284777
-0.000444914
-0.00274661
-0.000464915
-0.00264145
-0.000483175
-0.0025327
-0.000499585
-0.00242078
-0.000514039
-0.00230613
-0.000526433
-0.00218921
-0.000536669
-0.0020705
-0.000544651
-0.00195049
-0.00055029
-0.00182969
-0.000553503
-0.00170865
-0.000554215
-0.00158788
-0.000552358
-0.00146796
-0.000547873
-0.00134943
-0.000540715
-0.00123286
-0.000530848
-0.00111882
-0.000518254
-0.00100786
-0.000502928
-0.000900539
-0.000484886
-0.000797408
-0.000464167
-0.000698988
-0.000440834
-0.000605785
-0.000414981
-0.00051827
-0.000386738
-0.000436879
-0.00035628
-0.000361999
-0.000323828
-0.000293963
-0.000289669
-0.000233034
-0.000254161
-0.000179397
-0.000217751
-0.000133149
-0.000180995
-9.42813e-05
-0.000144582
-6.26713e-05
-0.000109356
-3.80716e-05
-7.63563e-05
-2.01003e-05
-4.68542e-05
-8.23684e-06
-2.23896e-05
-1.81583e-06
-4.88626e-06
2.81387e-06
-3.06177e-06
4.74229e-06
-1.27212e-05
2.10576e-05
-2.93647e-05
4.43048e-05
-5.33245e-05
7.52382e-05
-8.48795e-05
0.000112066
-0.00012423
0.000152883
-0.000171489
0.000196122
-0.000226675
0.000240519
-0.000289711
0.000285056
-0.000360431
0.000328913
-0.000438586
0.000371442
-0.000523858
0.00041213
-0.000615864
0.000450574
-0.000714169
0.000486463
-0.000818297
0.000519561
-0.000927735
0.000549694
-0.00104195
0.000576737
-0.00116037
0.000600609
-0.00128243
0.000621261
-0.00140756
0.000638673
-0.00153516
0.000652852
-0.00166465
0.000663823
-0.00179546
0.000671626
-0.001927
0.000676316
-0.00205872
0.000677962
-0.00219006
0.00067664
-0.00232049
0.000672434
-0.00244947
0.000665435
-0.00257651
0.000655741
-0.0027011
0.000643453
-0.00282279
0.000628675
-0.00294111
0.000611513
-0.00305564
0.00059208
-0.00316596
0.000570486
-0.00327169
0.000546843
-0.00337244
0.000521266
-0.00346788
0.000493869
-0.00355768
0.00046477
-0.00364154
0.000434082
-0.00371916
0.000401922
-0.0037903
0.000368407
-0.00385471
0.000333656
-0.00391219
0.000297784
-0.00396253
0.000260912
-0.00400557
0.000223157
-0.00404117
0.000184638
-0.0040692
0.000145477
-0.00408957
0.000105796
-0.00410219
6.5715e-05
-0.00410701
2.53593e-05
-0.00410401
-1.5147e-05
-0.00409319
-5.56775e-05
-0.00407457
-9.61042e-05
-0.00404818
-0.000136298
-0.00401411
-0.000176127
-0.00397245
-0.000215461
-0.00392332
-0.000254165
-0.00386687
-0.000292104
-0.00380327
-0.000329141
-0.00373272
-0.000365138
-0.00365546
-0.000399956
-0.00357172
-0.000433455
-0.00348179
-0.000465498
-0.00338598
-0.000495942
-0.00328461
-0.000524648
-0.00317805
-0.000551478
-0.00306667
-0.000576293
-0.00295088
-0.00059896
-0.00283113
-0.000619343
-0.00270785
-0.000637314
-0.00258154
-0.000652747
-0.00245269
-0.000665519
-0.00232182
-0.000675517
-0.00218948
-0.000682631
-0.00205622
-0.000686762
-0.00192262
-0.000687818
-0.00178926
-0.000685718
-0.00165674
-0.000680394
-0.00152566
-0.000671792
-0.00139664
-0.000659872
-0.00127028
-0.000644614
-0.00114719
-0.000626018
-0.00102796
-0.000604107
-0.0009132
-0.000578932
-0.000803457
-0.000550576
-0.000699279
-0.000519159
-0.000601176
-0.000484841
-0.000509619
-0.000447837
-0.00042503
-0.000408417
-0.000347774
-0.000366925
-0.000278152
-0.000323783
-0.000216385
-0.000279517
-0.000162611
-0.000234769
-0.000116872
-0.000190321
-7.9106e-05
-0.000147122
-4.91413e-05
-0.000106321
-2.66947e-05
-6.93007e-05
-1.1373e-05
-3.77113e-05
-2.67762e-06
-1.35816e-05
1.36242e-07
-3.85431e-06
8.59674e-06
-1.57222e-05
3.29252e-05
-3.58304e-05
6.44128e-05
-6.43513e-05
0.000103759
-0.00010142
0.000149135
-0.000147117
0.000198579
-0.000201455
0.00025046
-0.000264369
0.000303433
-0.000335712
0.000356399
-0.000415263
0.000408464
-0.000502724
0.000458904
-0.000597734
0.000507139
-0.00069987
0.000552709
-0.00080866
0.000595253
-0.000923592
0.000634493
-0.00104412
0.00067022
-0.00116966
0.000702282
-0.00129963
0.000730577
-0.00143341
0.000755042
-0.00157039
0.000775651
-0.00170994
0.000792402
-0.00185144
0.00080532
-0.00199426
0.000814451
-0.0021378
0.000819857
-0.00228146
0.000821615
-0.00242463
0.000819811
-0.00256674
0.000814547
-0.00270723
0.000805928
-0.00284556
0.000794068
-0.00298119
0.000779086
-0.00311363
0.000761107
-0.00324237
0.000740259
-0.00336697
0.000716674
-0.00348696
0.000690483
-0.00360194
0.000661822
-0.00371151
0.000630829
-0.00381528
0.000597641
-0.00391291
0.000562398
-0.00400406
0.000525238
-0.00408844
0.000486301
-0.00416576
0.00044573
-0.00423577
0.000403666
-0.00429824
0.00036025
-0.00435295
0.000315625
-0.00439973
0.000269936
-0.00443842
0.000223326
-0.00446889
0.000175942
-0.00449102
0.000127929
-0.00450474
7.94367e-05
-0.00451
3.06128e-05
-0.00450675
-1.83914e-05
-0.00449501
-6.74231e-05
-0.00447478
-0.000116328
-0.00444613
-0.00016495
-0.00440913
-0.000213131
-0.00436387
-0.000260713
-0.00431051
-0.000307533
-0.00424918
-0.000353428
-0.00418009
-0.000398233
-0.00410345
-0.000441782
-0.00401949
-0.000483909
-0.0039285
-0.000524446
-0.00383078
-0.000563225
-0.00372664
-0.000600076
-0.00361646
-0.000634832
-0.00350061
-0.000667327
-0.00337951
-0.000697396
-0.00325359
-0.000724875
-0.00312333
-0.000749607
-0.0029892
-0.000771435
-0.00285174
-0.00079021
-0.00271148
-0.000805785
-0.00256897
-0.000818026
-0.00242479
-0.000826803
-0.00227956
-0.000831998
-0.00213387
-0.000833504
-0.00198837
-0.000831225
-0.00184368
-0.000825082
-0.00170046
-0.000815014
-0.00155935
-0.000800976
-0.00142102
-0.000782948
-0.0012861
-0.000760934
-0.00115524
-0.000734965
-0.00102907
-0.000705107
-0.000908184
-0.00067146
-0.00079317
-0.000634172
-0.000684575
-0.000593437
-0.000582905
-0.000549507
-0.00048862
-0.000502702
-0.000402125
-0.00045342
-0.000323758
-0.00040215
-0.000253786
-0.000349488
-0.000192398
-0.000296157
-0.000139693
-0.000243026
-9.56801e-05
-0.000191135
-6.02745e-05
-0.000141727
-3.32996e-05
-9.62755e-05
-1.44949e-05
-5.65161e-05
-3.52649e-06
-2.455e-05
-3.39031e-06
-4.63952e-06
1.32363e-05
-1.87017e-05
4.69874e-05
-4.22609e-05
8.7972e-05
-7.53358e-05
0.000136834
-0.000117921
0.00019172
-0.000169977
0.000250635
-0.000231412
0.000311894
-0.000302071
0.000374093
-0.000381738
0.000436065
-0.000470123
0.000496849
-0.000566876
0.000555657
-0.000671587
0.00061185
-0.00078379
0.000664912
-0.000902974
0.000714438
-0.00102859
0.000760107
-0.00116005
0.000801677
-0.00129673
0.000838972
-0.00143803
0.000871869
-0.00158327
0.000900289
-0.00173182
0.000924196
-0.001883
0.000943587
-0.00203617
0.000958485
-0.00219066
0.000968939
-0.00234582
0.000975017
-0.00250101
0.000976806
-0.0026556
0.000974407
-0.00280899
0.000967932
-0.00296057
0.000957504
-0.00310975
0.000943256
-0.00325599
0.000925326
-0.00339875
0.00090386
-0.00353749
0.000879005
-0.00367174
0.000850917
-0.003801
0.00081975
-0.00392484
0.000785664
-0.00404284
0.000748821
-0.00415458
0.000709383
-0.00425969
0.000667512
-0.00435783
0.000623375
-0.00444867
0.000577137
-0.0045319
0.000528964
-0.00460726
0.000479024
-0.00467449
0.000427486
-0.00473339
0.000374518
-0.00478374
0.00032029
-0.00482539
0.000264973
-0.00485819
0.000208741
-0.00488202
0.000151766
-0.00489681
9.42229e-05
-0.00490248
3.62894e-05
-0.00489902
-2.1856e-05
-0.00488641
-8.00327e-05
-0.00486468
-0.000138058
-0.00483388
-0.000195747
-0.0047941
-0.000252914
-0.00474544
-0.00030937
-0.00468805
-0.000364923
-0.0046221
-0.000419381
-0.00454778
-0.00047255
-0.00446533
-0.000524232
-0.00437501
-0.000574232
-0.0042771
-0.000622352
-0.00417194
-0.000668392
-0.00405986
-0.000712154
-0.00394125
-0.00075344
-0.00381652
-0.000792055
-0.00368612
-0.000827804
-0.00355049
-0.000860497
-0.00341016
-0.000889945
-0.00326562
-0.000915968
-0.00311745
-0.000938387
-0.0029662
-0.000957036
-0.00281247
-0.000971753
-0.00265688
-0.00098239
-0.00250007
-0.000988808
-0.00234269
-0.000990883
-0.00218541
-0.000988506
-0.00202891
-0.000981587
-0.00187387
-0.000970055
-0.00172098
-0.000953862
-0.00157094
-0.000932987
-0.00142444
-0.000907438
-0.00128215
-0.000877255
-0.00114474
-0.000842517
-0.00101285
-0.000803347
-0.000887106
-0.000759917
-0.00076809
-0.000712453
-0.000656348
-0.000661249
-0.000552382
-0.000606669
-0.000456635
-0.000549166
-0.000369494
-0.000489291
-0.000291276
-0.000427706
-0.000222225
-0.000365208
-0.000162508
-0.000302743
-0.000112211
-0.000241432
-7.13432e-05
-0.000182595
-3.98377e-05
-0.000127781
-1.75666e-05
-7.87874e-05
-4.35355e-06
-3.7763e-05
-7.74389e-06
-5.41087e-06
1.86471e-05
-2.16368e-05
6.32136e-05
-4.86111e-05
0.000114946
-8.62046e-05
0.000174427
-0.000134279
0.000239794
-0.000192672
0.000309028
-0.000261189
0.000380412
-0.000339586
0.00045249
-0.000427566
0.000524045
-0.000524771
0.000594055
-0.000630793
0.000661679
-0.000745168
0.000726225
-0.000867385
0.000787129
-0.000996886
0.000843939
-0.00113308
0.0008963
-0.00127534
0.000943941
-0.00142303
0.000986657
-0.00157546
0.00102431
-0.00173197
0.0010568
-0.00189186
0.00108408
-0.00205443
0.00110616
-0.00221899
0.00112304
-0.00238484
0.00113479
-0.00255131
0.00114149
-0.00271772
0.00114321
-0.0028834
0.00114009
-0.00304771
0.00113224
-0.00321001
0.00111981
-0.00336971
0.00110295
-0.00352619
0.00108181
-0.0036789
0.00105657
-0.00382729
0.00102739
-0.00397083
0.000994456
-0.00410902
0.000957942
-0.00424139
0.000918034
-0.00436749
0.000874919
-0.00448689
0.000828785
-0.0045992
0.000779821
-0.00470405
0.00072822
-0.00480108
0.000674173
-0.00488999
0.000617876
-0.00497049
0.000559521
-0.00504231
0.000499306
-0.00510522
0.000437426
-0.00515901
0.000374081
-0.00520351
0.000309469
-0.00523856
0.000243791
-0.00526404
0.000177249
-0.00527986
0.000110046
-0.00528596
4.23902e-05
-0.00528231
-2.55115e-05
-0.00526889
-9.34487e-05
-0.00524574
-0.000161209
-0.00521291
-0.000228577
-0.00517049
-0.000295336
-0.00511859
-0.000361267
-0.00505737
-0.000426147
-0.004987
-0.000489751
-0.00490769
-0.000551855
-0.00481969
-0.00061223
-0.00472328
-0.000670647
-0.00461875
-0.000726876
-0.00450646
-0.000780687
-0.00438676
-0.000831849
-0.00426007
-0.000880134
-0.00412681
-0.000925313
-0.00398745
-0.000967163
-0.00384249
-0.00100546
-0.00369244
-0.00103999
-0.00353786
-0.00107055
-0.00337933
-0.00109692
-0.00321746
-0.00111891
-0.00305287
-0.00113635
-0.00288621
-0.00114905
-0.00271816
-0.00115686
-0.0025494
-0.00115964
-0.00238064
-0.00115726
-0.0022126
-0.00114963
-0.002046
-0.00113666
-0.00188156
-0.00111829
-0.00172003
-0.00109452
-0.00156212
-0.00106534
-0.00140856
-0.00103082
-0.00126004
-0.000991035
-0.00111725
-0.000946135
-0.000980853
-0.000896316
-0.000851467
-0.000841838
-0.000729684
-0.000783032
-0.000616046
-0.000720307
-0.000511045
-0.000654167
-0.000415117
-0.000585219
-0.000328634
-0.000514189