/*--------------------------------*- C++ -*----------------------------------*\
  =========                 |
  \\      /  F ield         | OpenFOAM: The Open Source CFD Toolbox
   \\    /   O peration     | Website:  https://openfoam.org
    \\  /    A nd           | Version:  11
     \\/     M anipulation  |
\*---------------------------------------------------------------------------*/
FoamFile
{
    format      ascii;
    class       volVectorField;
    location    "3.8";
    object      U;
}
// * * * * * * * * * * * * * * * * * * * * * * * * * * * * * * * * * * * * * //

dimensions      [0 1 -1 0 0 0 0];

internalField   nonuniform List<vector> 
10100
(
(2.34377e-06 -3.69493e-06 0)
(1.46736e-05 -1.05367e-05 0)
(3.64854e-05 -1.2936e-05 0)
(5.85057e-05 -1.1115e-05 0)
(7.37339e-05 -7.64047e-06 0)
(7.94193e-05 -3.71625e-06 0)
(7.48581e-05 1.35022e-07 0)
(5.99877e-05 3.78051e-06 0)
(3.51682e-05 7.18674e-06 0)
(7.70503e-07 1.03191e-05 0)
(-4.26029e-05 1.31709e-05 0)
(-9.43186e-05 1.57857e-05 0)
(-0.000153768 1.81252e-05 0)
(-0.000220317 2.02377e-05 0)
(-0.000293221 2.21346e-05 0)
(-0.000371921 2.38103e-05 0)
(-0.000455752 2.52881e-05 0)
(-0.000544022 2.65728e-05 0)
(-0.000636195 2.76454e-05 0)
(-0.000731638 2.85114e-05 0)
(-0.000829756 2.92061e-05 0)
(-0.000930003 2.97499e-05 0)
(-0.00103185 3.01377e-05 0)
(-0.00113475 3.0364e-05 0)
(-0.00123819 3.04344e-05 0)
(-0.0013417 3.03578e-05 0)
(-0.00144481 3.01442e-05 0)
(-0.00154707 2.98029e-05 0)
(-0.00164805 2.93503e-05 0)
(-0.00174735 2.87933e-05 0)
(-0.00184456 2.81254e-05 0)
(-0.00193934 2.73508e-05 0)
(-0.00203131 2.64801e-05 0)
(-0.00212016 2.55204e-05 0)
(-0.00220556 2.44721e-05 0)
(-0.00228721 2.33374e-05 0)
(-0.00236485 2.21259e-05 0)
(-0.0024382 2.08454e-05 0)
(-0.00250702 1.95007e-05 0)
(-0.00257108 1.8093e-05 0)
(-0.00263017 1.66213e-05 0)
(-0.00268408 1.50913e-05 0)
(-0.00273264 1.3512e-05 0)
(-0.00277568 1.1887e-05 0)
(-0.00281305 1.02171e-05 0)
(-0.00284462 8.50689e-06 0)
(-0.00287029 6.76482e-06 0)
(-0.00288994 4.99869e-06 0)
(-0.00290352 3.21162e-06 0)
(-0.00291096 1.40563e-06 0)
(-0.00291222 -4.11244e-07 0)
(-0.00290729 -2.22837e-06 0)
(-0.00289616 -4.0411e-06 0)
(-0.00287886 -5.84802e-06 0)
(-0.00285544 -7.6433e-06 0)
(-0.00282593 -9.41756e-06 0)
(-0.00279044 -1.11615e-05 0)
(-0.00274907 -1.28671e-05 0)
(-0.00270195 -1.453e-05 0)
(-0.00264922 -1.61473e-05 0)
(-0.00259106 -1.77127e-05 0)
(-0.00252766 -1.92152e-05 0)
(-0.00245924 -2.06445e-05 0)
(-0.00238605 -2.19961e-05 0)
(-0.00230833 -2.32692e-05 0)
(-0.00222638 -2.44607e-05 0)
(-0.00214049 -2.55637e-05 0)
(-0.00205097 -2.65699e-05 0)
(-0.00195817 -2.74718e-05 0)
(-0.00186246 -2.82624e-05 0)
(-0.00176423 -2.89358e-05 0)
(-0.00166388 -2.9486e-05 0)
(-0.00156186 -2.99064e-05 0)
(-0.00145861 -3.01892e-05 0)
(-0.0013546 -3.03288e-05 0)
(-0.00125033 -3.03216e-05 0)
(-0.0011463 -3.01645e-05 0)
(-0.00104303 -2.98532e-05 0)
(-0.000941051 -2.93837e-05 0)
(-0.000840917 -2.8753e-05 0)
(-0.000743179 -2.79575e-05 0)
(-0.000648401 -2.69935e-05 0)
(-0.000557157 -2.58575e-05 0)
(-0.000470028 -2.45452e-05 0)
(-0.000387603 -2.30521e-05 0)
(-0.000310473 -2.13741e-05 0)
(-0.00023923 -1.95077e-05 0)
(-0.000174458 -1.74512e-05 0)
(-0.000116724 -1.52079e-05 0)
(-6.65643e-05 -1.27822e-05 0)
(-2.44762e-05 -1.01814e-05 0)
(9.1102e-06 -7.42253e-06 0)
(3.38604e-05 -4.53237e-06 0)
(4.95872e-05 -1.56287e-06 0)
(5.63446e-05 1.38912e-06 0)
(5.45539e-05 4.15907e-06 0)
(4.51872e-05 6.44843e-06 0)
(3.02042e-05 7.70889e-06 0)
(1.36933e-05 6.96923e-06 0)
(2.9551e-06 2.94879e-06 0)
(3.28687e-06 -1.26803e-05 0)
(2.17156e-05 -3.19999e-05 0)
(5.04444e-05 -3.86728e-05 0)
(7.66087e-05 -3.13939e-05 0)
(8.91267e-05 -1.63842e-05 0)
(8.1423e-05 1.93046e-06 0)
(5.04623e-05 2.13139e-05 0)
(-4.98736e-06 4.07924e-05 0)
(-8.52144e-05 5.96192e-05 0)
(-0.000189662 7.76115e-05 0)
(-0.000317354 9.45466e-05 0)
(-0.000467142 0.000110268 0)
(-0.000637554 0.000124789 0)
(-0.000827011 0.000138034 0)
(-0.00103403 0.000150028 0)
(-0.00125687 0.000160733 0)
(-0.00149385 0.000170243 0)
(-0.0017434 0.000178524 0)
(-0.0020038 0.000185609 0)
(-0.00227343 0.000191524 0)
(-0.00255072 0.000196312 0)
(-0.0028341 0.000200007 0)
(-0.00312209 0.000202647 0)
(-0.00341318 0.000204273 0)
(-0.00370595 0.00020492 0)
(-0.00399903 0.000204607 0)
(-0.0042911 0.000203374 0)
(-0.00458088 0.000201279 0)
(-0.00486713 0.000198361 0)
(-0.00514868 0.000194653 0)
(-0.00542444 0.000190184 0)
(-0.00569333 0.000184998 0)
(-0.00595431 0.000179138 0)
(-0.00620643 0.00017263 0)
(-0.0064488 0.000165509 0)
(-0.00668055 0.00015781 0)
(-0.00690085 0.000149575 0)
(-0.00710894 0.000140838 0)
(-0.00730413 0.000131628 0)
(-0.00748575 0.000121973 0)
(-0.00765319 0.00011191 0)
(-0.00780587 0.000101472 0)
(-0.00794329 9.06917e-05 0)
(-0.008065 7.96002e-05 0)
(-0.00817058 6.82333e-05 0)
(-0.00825965 5.66288e-05 0)
(-0.00833191 4.48218e-05 0)
(-0.00838709 3.28452e-05 0)
(-0.008425 2.07351e-05 0)
(-0.00844547 8.53256e-06 0)
(-0.00844842 -3.72105e-06 0)
(-0.00843378 -1.59875e-05 0)
(-0.00840157 -2.82331e-05 0)
(-0.00835184 -4.0424e-05 0)
(-0.00828474 -5.25179e-05 0)
(-0.00820042 -6.44648e-05 0)
(-0.00809913 -7.62172e-05 0)
(-0.00798116 -8.77349e-05 0)
(-0.00784688 -9.89823e-05 0)
(-0.00769671 -0.00010992 0)
(-0.00753114 -0.000120499 0)
(-0.00735071 -0.000130664 0)
(-0.00715602 -0.00014037 0)
(-0.00694774 -0.000149579 0)
(-0.0067266 -0.000158259 0)
(-0.00649341 -0.000166372 0)
(-0.00624903 -0.000173872 0)
(-0.00599435 -0.000180712 0)
(-0.00573036 -0.000186845 0)
(-0.0054581 -0.000192227 0)
(-0.00517867 -0.000196818 0)
(-0.00489324 -0.000200575 0)
(-0.00460302 -0.000203458 0)
(-0.00430929 -0.000205426 0)
(-0.00401338 -0.000206442 0)
(-0.00371667 -0.000206471 0)
(-0.00342057 -0.000205484 0)
(-0.00312658 -0.000203453 0)
(-0.00283618 -0.000200352 0)
(-0.00255091 -0.00019616 0)
(-0.00227233 -0.000190858 0)
(-0.00200203 -0.00018443 0)
(-0.00174162 -0.000176862 0)
(-0.00149272 -0.000168141 0)
(-0.00125694 -0.000158261 0)
(-0.00103587 -0.000147221 0)
(-0.000831079 -0.000135033 0)
(-0.000644073 -0.000121726 0)
(-0.00047629 -0.000107353 0)
(-0.00032905 -9.19968e-05 0)
(-0.000203509 -7.577e-05 0)
(-0.000100589 -5.88431e-05 0)
(-2.08772e-05 -4.14721e-05 0)
(3.54984e-05 -2.40427e-05 0)
(6.90771e-05 -7.15083e-06 0)
(8.13267e-05 8.28773e-06 0)
(7.49482e-05 2.087e-05 0)
(5.44433e-05 2.84258e-05 0)
(2.76332e-05 2.75715e-05 0)
(6.98453e-06 1.3679e-05 0)
(2.11127e-06 -2.28399e-05 0)
(1.54511e-05 -5.35497e-05 0)
(3.2392e-05 -6.20164e-05 0)
(4.13957e-05 -4.36172e-05 0)
(3.06216e-05 -8.21396e-06 0)
(-8.13073e-06 3.60813e-05 0)
(-7.9279e-05 8.4675e-05 0)
(-0.000185425 0.000134485 0)
(-0.000327387 0.000183892 0)
(-0.000504948 0.000231756 0)
(-0.000717293 0.000277326 0)
(-0.000962781 0.000320199 0)
(-0.00123959 0.000360081 0)
(-0.00154567 0.000396774 0)
(-0.00187863 0.000430149 0)
(-0.00223613 0.000460224 0)
(-0.00261572 0.000486921 0)
(-0.00301484 0.000510315 0)
(-0.00343102 0.000530444 0)
(-0.00386178 0.000547332 0)
(-0.0043046 0.000561069 0)
(-0.0047571 0.00057173 0)
(-0.00521691 0.000579401 0)
(-0.00568168 0.000584178 0)
(-0.00614918 0.000586156 0)
(-0.00661724 0.00058543 0)
(-0.00708373 0.000582094 0)
(-0.0075466 0.000576258 0)
(-0.00800392 0.000568033 0)
(-0.00845381 0.000557518 0)
(-0.00889446 0.000544812 0)
(-0.00932416 0.000530026 0)
(-0.00974127 0.000513272 0)
(-0.0101442 0.000494644 0)
(-0.0105316 0.000474238 0)
(-0.010902 0.000452163 0)
(-0.0112541 0.000428524 0)
(-0.0115866 0.000403417 0)
(-0.0118984 0.000376939 0)
(-0.0121885 0.000349187 0)
(-0.0124559 0.000320257 0)
(-0.0126997 0.000290252 0)
(-0.012919 0.00025927 0)
(-0.0131131 0.000227409 0)
(-0.0132815 0.000194769 0)
(-0.0134233 0.000161454 0)
(-0.0135383 0.000127567 0)
(-0.013626 9.32125e-05 0)
(-0.013686 5.84896e-05 0)
(-0.0137181 2.35082e-05 0)
(-0.0137222 -1.16152e-05 0)
(-0.0136982 -4.67716e-05 0)
(-0.0136461 -8.18599e-05 0)
(-0.013566 -0.000116774 0)
(-0.0134582 -0.000151394 0)
(-0.0133229 -0.000185592 0)
(-0.0131604 -0.000219244 0)
(-0.0129713 -0.000252233 0)
(-0.0127562 -0.000284447 0)
(-0.0125156 -0.000315764 0)
(-0.0122505 -0.000346055 0)
(-0.0119616 -0.000375184 0)
(-0.01165 -0.000403024 0)
(-0.0113166 -0.000429455 0)
(-0.0109626 -0.000454365 0)
(-0.0105894 -0.000477633 0)
(-0.0101983 -0.000499137 0)
(-0.00979067 -0.000518747 0)
(-0.0093682 -0.000536333 0)
(-0.00893249 -0.000551773 0)
(-0.00848533 -0.000564947 0)
(-0.00802854 -0.000575741 0)
(-0.00756407 -0.000584041 0)
(-0.00709394 -0.000589734 0)
(-0.00662026 -0.000592716 0)
(-0.00614522 -0.00059289 0)
(-0.00567108 -0.000590171 0)
(-0.00520016 -0.000584478 0)
(-0.00473484 -0.000575741 0)
(-0.00427754 -0.000563899 0)
(-0.00383074 -0.000548902 0)
(-0.00339693 -0.000530712 0)
(-0.00297862 -0.000509304 0)
(-0.00257835 -0.000484669 0)
(-0.00219859 -0.000456818 0)
(-0.00184178 -0.000425788 0)
(-0.00151029 -0.000391655 0)
(-0.00120638 -0.000354547 0)
(-0.000932163 -0.000314658 0)
(-0.000689522 -0.000272268 0)
(-0.000480056 -0.000227769 0)
(-0.000304957 -0.00018171 0)
(-0.00016489 -0.000134866 0)
(-5.98021e-05 -8.83393e-05 0)
(1.13152e-05 -4.37049e-05 0)
(5.07251e-05 -3.21394e-06 0)
(6.22486e-05 2.99341e-05 0)
(5.17653e-05 5.12576e-05 0)
(2.87353e-05 5.44542e-05 0)
(7.78234e-06 3.02507e-05 0)
(1.24031e-06 -2.91378e-05 0)
(6.67048e-06 -6.36615e-05 0)
(5.7102e-06 -6.61598e-05 0)
(-1.16877e-05 -2.97956e-05 0)
(-5.64275e-05 3.31176e-05 0)
(-0.000136517 0.000111741 0)
(-0.000257194 0.000198563 0)
(-0.000421482 0.000288779 0)
(-0.000630666 0.000379143 0)
(-0.000884927 0.000467426 0)
(-0.00118324 0.000552202 0)
(-0.00152402 0.00063248 0)
(-0.00190512 0.000707498 0)
(-0.00232397 0.000776899 0)
(-0.00277783 0.000840328 0)
(-0.00326363 0.000897625 0)
(-0.00377828 0.000948712 0)
(-0.00431858 0.000993579 0)
(-0.0048813 0.00103224 0)
(-0.00546321 0.00106481 0)
(-0.00606107 0.00109136 0)
(-0.0066717 0.00111201 0)
(-0.00729197 0.0011269 0)
(-0.00791881 0.00113622 0)
(-0.00854922 0.00114013 0)
(-0.0091803 0.00113879 0)
(-0.00980924 0.0011324 0)
(-0.0104333 0.00112116 0)
(-0.0110498 0.00110525 0)
(-0.0116564 0.00108488 0)
(-0.0122504 0.00106023 0)
(-0.0128298 0.00103152 0)
(-0.0133921 0.00099894 0)
(-0.0139354 0.000962697 0)
(-0.0144576 0.00092298 0)
(-0.0149569 0.000879988 0)
(-0.0154315 0.000833931 0)
(-0.0158798 0.000785004 0)
(-0.0163001 0.000733388 0)
(-0.0166912 0.00067928 0)
(-0.0170515 0.000622886 0)
(-0.0173799 0.0005644 0)
(-0.0176754 0.00050401 0)
(-0.0179369 0.00044191 0)
(-0.0181635 0.000378303 0)
(-0.0183544 0.000313398 0)
(-0.0185091 0.000247389 0)
(-0.0186269 0.000180473 0)
(-0.0187074 0.000112855 0)
(-0.0187503 4.47497e-05 0)
(-0.0187554 -2.36272e-05 0)
(-0.0187226 -9.20678e-05 0)
(-0.0186519 -0.000160364 0)
(-0.0185435 -0.000228299 0)
(-0.0183976 -0.000295646 0)
(-0.0182147 -0.000362171 0)
(-0.0179953 -0.000427639 0)
(-0.01774 -0.000491823 0)
(-0.0174496 -0.000554494 0)
(-0.017125 -0.000615414 0)
(-0.0167672 -0.000674335 0)
(-0.0163774 -0.000731012 0)
(-0.015957 -0.0007852 0)
(-0.0155072 -0.000836659 0)
(-0.0150298 -0.000885155 0)
(-0.0145265 -0.000930449 0)
(-0.013999 -0.0009723 0)
(-0.0134493 -0.00101046 0)
(-0.0128796 -0.00104469 0)
(-0.012292 -0.00107476 0)
(-0.011689 -0.00110043 0)
(-0.011073 -0.00112148 0)
(-0.0104465 -0.0011377 0)
(-0.00981241 -0.00114886 0)
(-0.00917343 -0.00115478 0)
(-0.00853249 -0.00115528 0)
(-0.00789261 -0.00115018 0)
(-0.00725687 -0.00113934 0)
(-0.00662845 -0.00112262 0)
(-0.00601055 -0.00109992 0)
(-0.00540645 -0.00107114 0)
(-0.00481943 -0.00103622 0)
(-0.00425282 -0.000995152 0)
(-0.00370989 -0.00094793 0)
(-0.00319389 -0.000894615 0)
(-0.00270795 -0.000835327 0)
(-0.00225511 -0.000770262 0)
(-0.00183824 -0.000699716 0)
(-0.00145999 -0.000624117 0)
(-0.00112267 -0.000544054 0)
(-0.000828209 -0.000460333 0)
(-0.000577978 -0.000374053 0)
(-0.000372678 -0.000286712 0)
(-0.000212131 -0.000200352 0)
(-9.50381e-05 -0.000117769 0)
(-1.86853e-05 -4.27794e-05 0)
(2.1316e-05 1.94341e-05 0)
(3.14723e-05 6.19555e-05 0)
(2.16714e-05 7.54191e-05 0)
(6.645e-06 4.55034e-05 0)
(4.70137e-08 -3.05821e-05 0)
(-4.03276e-06 -5.81901e-05 0)
(-2.67357e-05 -4.46284e-05 0)
(-7.61378e-05 1.81404e-05 0)
(-0.000161165 0.000116499 0)
(-0.000289519 0.000236878 0)
(-0.000466142 0.000369774 0)
(-0.00069412 0.000508415 0)
(-0.000974954 0.000647977 0)
(-0.0013087 0.0007851 0)
(-0.00169451 0.000917449 0)
(-0.00213061 0.00104323 0)
(-0.00261457 0.00116133 0)
(-0.00314356 0.00127087 0)
(-0.00371435 0.00137134 0)
(-0.00432347 0.00146234 0)
(-0.00496725 0.00154366 0)
(-0.00564189 0.00161522 0)
(-0.00634355 0.00167701 0)
(-0.00706835 0.0017291 0)
(-0.00781242 0.00177162 0)
(-0.00857191 0.00180473 0)
(-0.00934298 0.00182864 0)
(-0.0101219 0.00184359 0)
(-0.0109051 0.00184981 0)
(-0.0116889 0.00184758 0)
(-0.0124699 0.0018372 0)
(-0.0132447 0.00181897 0)
(-0.0140101 0.00179319 0)
(-0.0147631 0.00176015 0)
(-0.0155005 0.00172019 0)
(-0.0162196 0.00167364 0)
(-0.0169175 0.0016208 0)
(-0.0175918 0.00156198 0)
(-0.01824 0.00149751 0)
(-0.0188597 0.00142774 0)
(-0.0194486 0.00135296 0)
(-0.0200049 0.0012735 0)
(-0.0205265 0.00118967 0)
(-0.0210117 0.0011018 0)
(-0.0214587 0.00101022 0)
(-0.0218662 0.000915227 0)
(-0.0222327 0.000817148 0)
(-0.022557 0.000716307 0)
(-0.022838 0.000613032 0)
(-0.0230747 0.000507649 0)
(-0.0232664 0.000400481 0)
(-0.0234123 0.000291854 0)
(-0.0235119 0.000182105 0)
(-0.0235648 7.15756e-05 0)
(-0.0235708 -3.93908e-05 0)
(-0.0235297 -0.000150453 0)
(-0.0234416 -0.000261265 0)
(-0.0233067 -0.000371472 0)
(-0.0231254 -0.000480709 0)
(-0.0228981 -0.000588608 0)
(-0.0226255 -0.000694793 0)
(-0.0223084 -0.000798891 0)
(-0.0219477 -0.000900527 0)
(-0.0215447 -0.000999317 0)
(-0.0211005 -0.00109487 0)
(-0.0206166 -0.00118678 0)
(-0.0200947 -0.00127466 0)
(-0.0195365 -0.00135813 0)
(-0.018944 -0.0014368 0)
(-0.0183193 -0.00151027 0)
(-0.0176647 -0.00157815 0)
(-0.0169825 -0.00164005 0)
(-0.0162755 -0.00169559 0)
(-0.0155463 -0.00174439 0)
(-0.0147979 -0.00178608 0)
(-0.0140333 -0.00182031 0)
(-0.0132557 -0.00184673 0)
(-0.0124685 -0.001865 0)
(-0.0116751 -0.00187481 0)
(-0.010879 -0.00187589 0)
(-0.0100841 -0.00186796 0)
(-0.009294 -0.0018508 0)
(-0.00851262 -0.00182419 0)
(-0.00774388 -0.00178798 0)
(-0.00699175 -0.00174203 0)
(-0.00626023 -0.00168629 0)
(-0.0055533 -0.00162073 0)
(-0.00487493 -0.00154541 0)
(-0.00422897 -0.00146047 0)
(-0.0036192 -0.00136613 0)
(-0.00304919 -0.00126278 0)
(-0.00252233 -0.00115095 0)
(-0.00204169 -0.00103138 0)
(-0.00160995 -0.000905047 0)
(-0.00122929 -0.000773295 0)
(-0.000901255 -0.000637884 0)
(-0.000626623 -0.000501161 0)
(-0.000405189 -0.000366226 0)
(-0.000235557 -0.000237187 0)
(-0.000114883 -0.000119471 0)
(-3.8638e-05 -2.02166e-05 0)
(-2.19328e-07 5.1325e-05 0)
(9.78174e-06 8.287e-05 0)
(4.52634e-06 5.54739e-05 0)
(-1.58106e-06 -2.62431e-05 0)
(-1.68012e-05 -3.51031e-05 0)
(-6.41668e-05 5.58565e-06 0)
(-0.000149084 0.000104607 0)
(-0.000278861 0.000246741 0)
(-0.000460078 0.000416754 0)
(-0.000697104 0.000603233 0)
(-0.000992832 0.000797653 0)
(-0.00134848 0.000993816 0)
(-0.00176409 0.00118714 0)
(-0.00223861 0.00137421 0)
(-0.00277012 0.00155264 0)
(-0.00335597 0.00172059 0)
(-0.00399301 0.00187677 0)
(-0.00467768 0.0020203 0)
(-0.0054061 0.00215056 0)
(-0.0061741 0.00226719 0)
(-0.00697741 0.00236995 0)
(-0.00781168 0.00245879 0)
(-0.00867244 0.00253374 0)
(-0.00955523 0.00259494 0)
(-0.0104556 0.0026426 0)
(-0.0113692 0.00267698 0)
(-0.0122917 0.00269838 0)
(-0.0132188 0.00270713 0)
(-0.0141463 0.00270363 0)
(-0.0150703 0.00268828 0)
(-0.0159869 0.00266147 0)
(-0.0168921 0.00262364 0)
(-0.0177824 0.00257526 0)
(-0.0186543 0.00251676 0)
(-0.0195045 0.0024486 0)
(-0.0203296 0.00237124 0)
(-0.0211266 0.00228516 0)
(-0.0218927 0.00219081 0)
(-0.0226251 0.00208867 0)
(-0.0233212 0.0019792 0)
(-0.0239786 0.00186287 0)
(-0.024595 0.00174016 0)
(-0.0251683 0.00161153 0)
(-0.0256965 0.00147745 0)
(-0.0261779 0.00133839 0)
(-0.0266109 0.00119482 0)
(-0.026994 0.00104721 0)
(-0.0273259 0.00089604 0)
(-0.0276054 0.000741793 0)
(-0.0278317 0.000584943 0)
(-0.0280039 0.000425972 0)
(-0.0281213 0.000265371 0)
(-0.0281836 0.000103641 0)
(-0.0281904 -5.87184e-05 0)
(-0.0281416 -0.000221206 0)
(-0.0280372 -0.000383314 0)
(-0.0278776 -0.000544519 0)
(-0.0276631 -0.00070429 0)
(-0.0273942 -0.000862089 0)
(-0.0270718 -0.00101738 0)
(-0.0266969 -0.00116961 0)
(-0.0262706 -0.00131823 0)
(-0.0257941 -0.00146268 0)
(-0.0252691 -0.00160239 0)
(-0.0246972 -0.00173678 0)
(-0.0240805 -0.00186529 0)
(-0.0234208 -0.00198735 0)
(-0.0227206 -0.00210239 0)
(-0.0219824 -0.00220984 0)
(-0.0212088 -0.00230912 0)
(-0.0204027 -0.00239967 0)
(-0.0195671 -0.00248094 0)
(-0.0187053 -0.00255239 0)
(-0.0178207 -0.00261348 0)
(-0.0169169 -0.00266369 0)
(-0.0159976 -0.00270254 0)
(-0.0150667 -0.00272955 0)
(-0.0141282 -0.00274427 0)
(-0.0131864 -0.0027463 0)
(-0.0122456 -0.00273528 0)
(-0.0113101 -0.00271087 0)
(-0.0103844 -0.00267279 0)
(-0.00947302 -0.00262082 0)
(-0.00858065 -0.00255482 0)
(-0.00771186 -0.00247471 0)
(-0.00687123 -0.0023805 0)
(-0.0060633 -0.00227231 0)
(-0.0052925 -0.00215039 0)
(-0.0045631 -0.00201514 0)
(-0.00387918 -0.00186715 0)
(-0.00324455 -0.00170724 0)
(-0.00266265 -0.00153654 0)
(-0.00213649 -0.0013565 0)
(-0.00166849 -0.00116907 0)
(-0.00126041 -0.000976749 0)
(-0.000913143 -0.000782792 0)
(-0.000626591 -0.000591414 0)
(-0.000399454 -0.000408045 0)
(-0.000229025 -0.000239686 0)
(-0.000110968 -9.53135e-05 0)
(-3.89977e-05 1.36892e-05 0)
(-4.84937e-06 7.24682e-05 0)
(1.95037e-06 5.82909e-05 0)
(-3.58915e-06 -1.50616e-05 0)
(-3.11374e-05 7.61197e-06 0)
(-0.000104956 8.73251e-05 0)
(-0.000227994 0.00023268 0)
(-0.000405309 0.000427532 0)
(-0.000642428 0.00065517 0)
(-0.000943023 0.000902538 0)
(-0.00130929 0.00115975 0)
(-0.00174213 0.00141921 0)
(-0.00224126 0.00167521 0)
(-0.00280542 0.0019234 0)
(-0.00343242 0.00216055 0)
(-0.00411941 0.00238419 0)
(-0.00486291 0.00259257 0)
(-0.005659 0.00278435 0)
(-0.00650344 0.00295866 0)
(-0.00739169 0.0031149 0)
(-0.00831904 0.00325271 0)
(-0.00928061 0.00337192 0)
(-0.0102715 0.00347254 0)
(-0.0112867 0.00355469 0)
(-0.0123213 0.0036186 0)
(-0.0133704 0.00366457 0)
(-0.014429 0.003693 0)
(-0.0154924 0.00370432 0)
(-0.016556 0.00369901 0)
(-0.0176152 0.00367759 0)
(-0.0186655 0.00364061 0)
(-0.0197026 0.00358863 0)
(-0.0207225 0.00352225 0)
(-0.0217211 0.00344209 0)
(-0.0226946 0.00334874 0)
(-0.0236394 0.00324284 0)
(-0.0245519 0.003125 0)
(-0.0254289 0.00299589 0)
(-0.0262673 0.00285612 0)
(-0.0270641 0.00270633 0)
(-0.0278165 0.00254716 0)
(-0.0285219 0.00237925 0)
(-0.029178 0.00220326 0)
(-0.0297825 0.00201982 0)
(-0.0303333 0.00182956 0)
(-0.0308288 0.00163314 0)
(-0.031267 0.00143121 0)
(-0.0316467 0.00122443 0)
(-0.0319664 0.00101343 0)
(-0.0322252 0.000798887 0)
(-0.032422 0.000581452 0)
(-0.0325562 0.000361808 0)
(-0.0326273 0.000140634 0)
(-0.0326349 -8.13904e-05 0)
(-0.0325788 -0.00030358 0)
(-0.0324593 -0.000525231 0)
(-0.0322764 -0.000745628 0)
(-0.0320307 -0.000964047 0)
(-0.0317229 -0.00117976 0)
(-0.0313539 -0.00139203 0)
(-0.0309247 -0.00160012 0)
(-0.0304368 -0.00180326 0)
(-0.0298915 -0.0020007 0)
(-0.0292906 -0.00219164 0)
(-0.0286362 -0.00237533 0)
(-0.0279304 -0.00255099 0)
(-0.0271755 -0.00271784 0)
(-0.0263742 -0.0028751 0)
(-0.0255294 -0.003022 0)
(-0.024644 -0.00315776 0)
(-0.0237214 -0.00328162 0)
(-0.022765 -0.00339283 0)
(-0.0217785 -0.00349066 0)
(-0.0207657 -0.00357439 0)
(-0.0197308 -0.00364333 0)
(-0.0186779 -0.0036968 0)
(-0.0176115 -0.00373419 0)
(-0.0165361 -0.00375491 0)
(-0.0154566 -0.00375842 0)
(-0.0143776 -0.00374423 0)
(-0.0133043 -0.00371191 0)
(-0.0122415 -0.00366111 0)
(-0.0111945 -0.00359156 0)
(-0.0101684 -0.00350308 0)
(-0.00916833 -0.0033956 0)
(-0.00819943 -0.0032692 0)
(-0.00726673 -0.00312406 0)
(-0.00637517 -0.00296059 0)
(-0.00552949 -0.00277937 0)
(-0.00473418 -0.00258126 0)
(-0.00399345 -0.00236742 0)
(-0.00331109 -0.00213939 0)
(-0.00269041 -0.00189918 0)
(-0.0021341 -0.00164936 0)
(-0.00164416 -0.00139323 0)
(-0.0012217 -0.00113497 0)
(-0.000866847 -0.000879907 0)
(-0.000578578 -0.000634748 0)
(-0.000354541 -0.000407964 0)
(-0.000190864 -0.0002102 0)
(-8.1882e-05 -5.4693e-05 0)
(-2.09179e-05 4.15855e-05 0)
(-8.10131e-07 5.30159e-05 0)
(-5.80669e-06 3.65363e-06 0)
(-4.62697e-05 7.13867e-05 0)
(-0.000147969 0.000202202 0)
(-0.000310529 0.000404494 0)
(-0.000537135 0.000661231 0)
(-0.000832196 0.0009545 0)
(-0.00119832 0.00127006 0)
(-0.00163703 0.00159674 0)
(-0.00214865 0.00192582 0)
(-0.0027325 0.00225044 0)
(-0.00338693 0.00256539 0)
(-0.00410948 0.00286662 0)
(-0.00489695 0.00315106 0)
(-0.00574557 0.00341638 0)
(-0.00665113 0.00366087 0)
(-0.007609 0.0038833 0)
(-0.00861425 0.00408281 0)
(-0.00966177 0.0042589 0)
(-0.0107463 0.00441127 0)
(-0.0118625 0.00453986 0)
(-0.0130048 0.00464478 0)
(-0.0141679 0.00472628 0)
(-0.0153465 0.00478469 0)
(-0.016535 0.00482048 0)
(-0.0177283 0.00483418 0)
(-0.0189213 0.00482639 0)
(-0.0201088 0.00479775 0)
(-0.0212861 0.00474893 0)
(-0.0224483 0.00468068 0)
(-0.0235908 0.00459374 0)
(-0.0247093 0.00448888 0)
(-0.0257996 0.00436689 0)
(-0.0268575 0.00422858 0)
(-0.0278791 0.00407474 0)
(-0.0288609 0.00390622 0)
(-0.0297993 0.00372382 0)
(-0.0306911 0.00352837 0)
(-0.0315332 0.00332071 0)
(-0.0323226 0.00310168 0)
(-0.0330567 0.00287211 0)
(-0.0337331 0.00263283 0)
(-0.0343495 0.00238467 0)
(-0.0349037 0.00212849 0)
(-0.035394 0.00186514 0)
(-0.0358187 0.00159547 0)
(-0.0361763 0.00132031 0)
(-0.0364657 0.00104054 0)
(-0.0366858 0.00075703 0)
(-0.0368359 0.000470649 0)
(-0.0369152 0.000182284 0)
(-0.0369236 -0.000107177 0)
(-0.0368608 -0.000396834 0)
(-0.0367269 -0.000685769 0)
(-0.0365222 -0.000973051 0)
(-0.0362473 -0.00125774 0)
(-0.0359029 -0.0015389 0)
(-0.03549 -0.00181556 0)
(-0.0350098 -0.00208676 0)
(-0.0344639 -0.00235151 0)
(-0.0338538 -0.0026088 0)
(-0.0331816 -0.00285766 0)
(-0.0324494 -0.00309706 0)
(-0.0316596 -0.00332602 0)
(-0.030815 -0.00354351 0)
(-0.0299185 -0.00374852 0)
(-0.0289731 -0.00394005 0)
(-0.0279823 -0.00411711 0)
(-0.0269497 -0.00427871 0)
(-0.0258792 -0.00442389 0)
(-0.0247748 -0.00455169 0)
(-0.0236409 -0.00466121 0)
(-0.0224818 -0.00475154 0)
(-0.0213024 -0.00482184 0)
(-0.0201075 -0.00487131 0)
(-0.0189022 -0.00489921 0)
(-0.0176917 -0.00490485 0)
(-0.0164813 -0.00488763 0)
(-0.0152765 -0.00484701 0)
(-0.0140828 -0.00478256 0)
(-0.0129059 -0.00469397 0)
(-0.0117514 -0.00458103 0)
(-0.010625 -0.00444372 0)
(-0.00953223 -0.00428213 0)
(-0.00847865 -0.0040966 0)
(-0.00746961 -0.00388767 0)
(-0.00651027 -0.00365616 0)
(-0.00560554 -0.00340322 0)
(-0.00475998 -0.00313037 0)
(-0.00397773 -0.00283962 0)
(-0.00326241 -0.00253353 0)
(-0.00261702 -0.00221536 0)
(-0.00204383 -0.00188918 0)
(-0.00154429 -0.00156012 0)
(-0.00111886 -0.00123455 0)
(-0.000766928 -0.000920377 0)
(-0.000486689 -0.000627409 0)
(-0.000274942 -0.000367741 0)
(-0.000126862 -0.000156155 0)
(-3.76072e-05 -1.12768e-05 0)
(-3.60945e-06 3.92073e-05 0)
(-8.0883e-06 3.02806e-05 0)
(-6.19152e-05 0.000156915 0)
(-0.000191939 0.000351291 0)
(-0.000394885 0.000621346 0)
(-0.00067183 0.000949218 0)
(-0.00102592 0.00131633 0)
(-0.00145882 0.00170735 0)
(-0.0019711 0.00211006 0)
(-0.00256253 0.00251469 0)
(-0.00323184 0.00291352 0)
(-0.00397692 0.00330041 0)
(-0.00479493 0.00367058 0)
(-0.00568234 0.00402032 0)
(-0.00663504 0.00434676 0)
(-0.00764845 0.00464778 0)
(-0.00871759 0.00492181 0)
(-0.0098372 0.00516772 0)
(-0.0110018 0.00538479 0)
(-0.0122057 0.00557262 0)
(-0.0134431 0.00573107 0)
(-0.0147081 0.00586022 0)
(-0.0159951 0.00596028 0)
(-0.017298 0.00603166 0)
(-0.0186112 0.00607492 0)
(-0.0199289 0.00609064 0)
(-0.0212455 0.00607954 0)
(-0.0225557 0.00604241 0)
(-0.023854 0.00598007 0)
(-0.0251354 0.00589341 0)
(-0.0263947 0.00578336 0)
(-0.0276273 0.00565086 0)
(-0.0288284 0.00549687 0)
(-0.0299937 0.00532242 0)
(-0.031119 0.0051285 0)
(-0.0322002 0.00491613 0)
(-0.0332335 0.00468634 0)
(-0.0342153 0.00444016 0)
(-0.0351423 0.00417865 0)
(-0.0360113 0.00390285 0)
(-0.0368194 0.0036138 0)
(-0.0375638 0.00331255 0)
(-0.0382421 0.00300016 0)
(-0.0388521 0.00267769 0)
(-0.0393916 0.00234621 0)
(-0.0398589 0.00200678 0)
(-0.0402525 0.00166048 0)
(-0.0405709 0.0013084 0)
(-0.0408131 0.000951617 0)
(-0.0409781 0.000591244 0)
(-0.0410655 0.000228388 0)
(-0.0410747 -0.00013583 0)
(-0.0410056 -0.000500277 0)
(-0.0408582 -0.000863796 0)
(-0.040633 -0.00122522 0)
(-0.0403305 -0.00158338 0)
(-0.0399516 -0.00193708 0)
(-0.0394973 -0.00228512 0)
(-0.038969 -0.00262627 0)
(-0.0383683 -0.00295931 0)
(-0.037697 -0.00328299 0)
(-0.0369574 -0.00359606 0)
(-0.0361517 -0.00389726 0)
(-0.0352826 -0.00418534 0)
(-0.0343531 -0.00445903 0)
(-0.0333664 -0.00471706 0)
(-0.0323258 -0.00495818 0)
(-0.0312351 -0.00518115 0)
(-0.0300982 -0.00538475 0)
(-0.0289194 -0.00556777 0)
(-0.0277031 -0.00572904 0)
(-0.0264539 -0.00586741 0)
(-0.0251768 -0.00598179 0)
(-0.0238769 -0.00607113 0)
(-0.0225595 -0.00613444 0)
(-0.0212301 -0.0061708 0)
(-0.0198943 -0.0061794 0)
(-0.018558 -0.00615948 0)
(-0.0172271 -0.00611042 0)
(-0.0159076 -0.00603171 0)
(-0.0146056 -0.00592297 0)
(-0.0133272 -0.00578401 0)
(-0.0120784 -0.00561482 0)
(-0.0108654 -0.00541557 0)
(-0.00969401 -0.00518672 0)
(-0.00857008 -0.004929 0)
(-0.00749916 -0.00464347 0)
(-0.00648653 -0.00433158 0)
(-0.00553711 -0.00399527 0)
(-0.00465539 -0.00363701 0)
(-0.00384534 -0.00325993 0)
(-0.00311029 -0.00286796 0)
(-0.00245289 -0.00246596 0)
(-0.00187496 -0.00205994 0)
(-0.00137741 -0.00165727 0)
(-0.000960168 -0.00126695 0)
(-0.00062212 -0.00089996 0)
(-0.000360882 -0.000569618 0)
(-0.000172611 -0.000291948 0)
(-5.44121e-05 -8.68047e-05 0)
(-6.3639e-06 1.67433e-05 0)
(-1.03823e-05 6.4832e-05 0)
(-7.75604e-05 0.000264529 0)
(-0.000236163 0.000535088 0)
(-0.000479792 0.000883672 0)
(-0.000807461 0.00129231 0)
(-0.00122109 0.00174149 0)
(-0.00172134 0.00221525 0)
(-0.00230788 0.00270047 0)
(-0.00297962 0.00318652 0)
(-0.00373474 0.00366484 0)
(-0.00457063 0.00412852 0)
(-0.00548397 0.00457208 0)
(-0.00647082 0.00499119 0)
(-0.00752668 0.00538251 0)
(-0.00864661 0.00574344 0)
(-0.00982531 0.00607207 0)
(-0.0110571 0.00636702 0)
(-0.0123362 0.00662737 0)
(-0.0136565 0.00685257 0)
(-0.0150118 0.00704237 0)
(-0.016396 0.00719682 0)
(-0.0178028 0.00731616 0)
(-0.019226 0.00740081 0)
(-0.0206593 0.00745138 0)
(-0.0220968 0.00746858 0)
(-0.0235324 0.00745322 0)
(-0.0249602 0.00740623 0)
(-0.0263746 0.00732861 0)
(-0.02777 0.00722139 0)
(-0.0291411 0.00708567 0)
(-0.0304827 0.00692261 0)
(-0.0317898 0.00673337 0)
(-0.0330576 0.00651916 0)
(-0.0342816 0.00628119 0)
(-0.0354576 0.00602071 0)
(-0.0365812 0.00573896 0)
(-0.0376488 0.00543721 0)
(-0.0386567 0.00511672 0)
(-0.0396014 0.00477877 0)
(-0.0404798 0.00442463 0)
(-0.041289 0.00405559 0)
(-0.0420263 0.00367294 0)
(-0.0426892 0.00327799 0)
(-0.0432755 0.00287202 0)
(-0.0437834 0.00245635 0)
(-0.0442111 0.00203228 0)
(-0.0445572 0.00160115 0)
(-0.0448204 0.0011643 0)
(-0.0449999 0.000723064 0)
(-0.0450949 0.000278808 0)
(-0.045105 -0.000167098 0)
(-0.04503 -0.000613263 0)
(-0.04487 -0.00105828 0)
(-0.0446255 -0.00150072 0)
(-0.044297 -0.00193915 0)
(-0.0438854 -0.00237212 0)
(-0.043392 -0.00279817 0)
(-0.0428181 -0.00321578 0)
(-0.0421655 -0.00362347 0)
(-0.0414363 -0.00401972 0)
(-0.0406326 -0.00440301 0)
(-0.0397572 -0.00477181 0)
(-0.0388128 -0.00512457 0)
(-0.0378026 -0.00545977 0)
(-0.0367301 -0.00577586 0)
(-0.035599 -0.00607133 0)
(-0.0344131 -0.00634467 0)
(-0.0331769 -0.0065944 0)
(-0.0318948 -0.00681905 0)
(-0.0305717 -0.0070172 0)
(-0.0292124 -0.00718747 0)
(-0.0278224 -0.00732855 0)
(-0.0264071 -0.00743916 0)
(-0.0249722 -0.00751814 0)
(-0.0235237 -0.00756439 0)
(-0.0220675 -0.00757691 0)
(-0.02061 -0.00755484 0)
(-0.0191574 -0.00749743 0)
(-0.0177162 -0.0074041 0)
(-0.0162929 -0.00727444 0)
(-0.0148941 -0.00710824 0)
(-0.0135263 -0.00690552 0)
(-0.0121958 -0.00666655 0)
(-0.0109091 -0.00639192 0)
(-0.00967234 -0.00608254 0)
(-0.00849144 -0.00573973 0)
(-0.00737207 -0.00536528 0)
(-0.00631953 -0.00496152 0)
(-0.00533868 -0.00453141 0)
(-0.00443385 -0.00407865 0)
(-0.00360877 -0.00360781 0)
(-0.00286651 -0.00312451 0)
(-0.00220935 -0.00263558 0)
(-0.00163873 -0.00214932 0)
(-0.00115523 -0.00167569 0)
(-0.00075852 -0.00122669 0)
(-0.000447129 -0.000816654 0)
(-0.000218275 -0.000462566 0)
(-7.10267e-05 -0.000185148 0)
(-9.02933e-06 -1.4301e-05 0)
(-1.26685e-05 0.000107315 0)
(-9.30489e-05 0.000394238 0)
(-0.00028012 0.000753424 0)
(-0.000564295 0.00119171 0)
(-0.000942617 0.00169061 0)
(-0.00141594 0.00223027 0)
(-0.0019837 0.0027941 0)
(-0.00264464 0.00336832 0)
(-0.0033969 0.00394157 0)
(-0.00423795 0.00450453 0)
(-0.0051646 0.00504963 0)
(-0.00617302 0.00557077 0)
(-0.00725881 0.00606304 0)
(-0.00841707 0.0065226 0)
(-0.00964248 0.00694645 0)
(-0.0109293 0.00733234 0)
(-0.0122716 0.00767863 0)
(-0.0136631 0.00798417 0)
(-0.0150974 0.00824828 0)
(-0.0165681 0.00847064 0)
(-0.0180684 0.00865119 0)
(-0.0195918 0.00879022 0)
(-0.0211317 0.0088882 0)
(-0.0226815 0.00894575 0)
(-0.0242348 0.00896369 0)
(-0.0257853 0.00894299 0)
(-0.0273267 0.00888468 0)
(-0.028853 0.00878993 0)
(-0.0303583 0.00865995 0)
(-0.0318368 0.00849603 0)
(-0.0332831 0.00829952 0)
(-0.0346918 0.0080718 0)
(-0.036058 0.0078143 0)
(-0.0373767 0.00752845 0)
(-0.0386433 0.00721573 0)
(-0.0398535 0.00687761 0)
(-0.0410032 0.00651561 0)
(-0.0420883 0.00613123 0)
(-0.0431054 0.00572598 0)
(-0.0440511 0.0053014 0)
(-0.0449222 0.00485901 0)
(-0.0457158 0.00440036 0)
(-0.0464293 0.00392701 0)
(-0.0470605 0.0034405 0)
(-0.0476072 0.00294239 0)
(-0.0480676 0.00243426 0)
(-0.0484401 0.0019177 0)
(-0.0487235 0.0013943 0)
(-0.0489168 0.000865686 0)
(-0.0490192 0.000333465 0)
(-0.0490304 -0.000200712 0)
(-0.04895 -0.000735181 0)
(-0.0487782 -0.00126826 0)
(-0.0485154 -0.00179825 0)
(-0.0481622 -0.00232345 0)
(-0.0477197 -0.0028421 0)
(-0.0471891 -0.00335245 0)
(-0.0465719 -0.00385273 0)
(-0.04587 -0.00434114 0)
(-0.0450856 -0.00481588 0)
(-0.044221 -0.00527514 0)
(-0.0432791 -0.00571708 0)
(-0.0422629 -0.00613988 0)
(-0.0411758 -0.00654171 0)
(-0.0400214 -0.00692074 0)
(-0.0388036 -0.00727516 0)
(-0.0375268 -0.00760319 0)
(-0.0361955 -0.00790306 0)
(-0.0348144 -0.00817305 0)
(-0.0333887 -0.00841146 0)