/*--------------------------------*- C++ -*----------------------------------*\
  =========                 |
  \\      /  F ield         | OpenFOAM: The Open Source CFD Toolbox
   \\    /   O peration     | Website:  https://openfoam.org
    \\  /    A nd           | Version:  11
     \\/     M anipulation  |
\*---------------------------------------------------------------------------*/
FoamFile
{
    format      ascii;
    class       volScalarField;
    location    "6.4";
    object      p;
}
// * * * * * * * * * * * * * * * * * * * * * * * * * * * * * * * * * * * * * //

dimensions      [0 2 -2 0 0 0 0];

internalField   nonuniform List<scalar> 
10100
(
1.88715e-07
8.94475e-05
-0.000126893
-0.000695017
-0.00156494
-0.00268003
-0.00398488
-0.00542626
-0.00695554
-0.00852987
-0.0101126
-0.0116723
-0.0131821
-0.0146178
-0.015959
-0.0171879
-0.0182892
-0.0192505
-0.0200614
-0.0207128
-0.0211977
-0.0215104
-0.0216468
-0.0216042
-0.0213811
-0.0209769
-0.020392
-0.0196277
-0.0186861
-0.0175701
-0.016283
-0.014829
-0.0132128
-0.0114395
-0.009515
-0.0074456
-0.00523827
-0.0029001
-0.000438651
0.00213804
0.00482155
0.00760316
0.0104741
0.0134253
0.0164473
0.0195304
0.0226648
0.0258406
0.0290472
0.0322741
0.0355106
0.0387464
0.0419708
0.0451731
0.0483426
0.0514682
0.0545391
0.0575444
0.0604734
0.0633157
0.0660612
0.0687005
0.071224
0.0736226
0.075887
0.0780085
0.0799792
0.0817923
0.0834411
0.0849195
0.0862217
0.0873431
0.0882797
0.0890289
0.089589
0.0899593
0.0901404
0.0901337
0.0899418
0.0895688
0.0890201
0.0883026
0.0874247
0.0863968
0.0852313
0.0839433
0.0825495
0.0810693
0.0795244
0.0779399
0.0763442
0.07477
0.073254
0.0718377
0.0705672
0.0694927
0.0686654
0.068135
0.0679436
0.068044
-8.8934e-05
-1.108e-05
-0.000227701
-0.000739234
-0.00149515
-0.00245534
-0.0035793
-0.00482624
-0.00615609
-0.0075321
-0.00892179
-0.0102969
-0.0116321
-0.0129053
-0.0140969
-0.0151892
-0.0161679
-0.0170201
-0.0177355
-0.0183057
-0.0187234
-0.0189827
-0.0190793
-0.01901
-0.0187728
-0.0183669
-0.0177921
-0.0170492
-0.0161402
-0.0150674
-0.0138338
-0.0124433
-0.0108998
-0.00920813
-0.00737354
-0.00540201
-0.00329999
-0.00107423
0.00126817
0.00371966
0.00627228
0.00891795
0.0116484
0.0144548
0.0173282
0.0202596
0.0232395
0.0262584
0.0293065
0.0323735
0.0354494
0.0385244
0.0415885
0.0446314
0.0476429
0.0506126
0.0535304
0.0563856
0.0591681
0.0618684
0.064477
0.0669851
0.0693837
0.0716642
0.0738176
0.075836
0.0777123
0.0794401
0.0810134
0.0824264
0.083674
0.0847518
0.0856565
0.086386
0.0869388
0.0873148
0.0875147
0.0875402
0.0873942
0.087081
0.086606
0.0859763
0.0852002
0.0842879
0.0832519
0.0821064
0.0808678
0.0795542
0.0781863
0.0767873
0.0753835
0.0740044
0.0726826
0.0714537
0.0703557
0.0694284
0.0687089
0.0682322
0.0680437
0.068145
0.000120431
0.000183827
-3.75257e-05
-0.000520534
-0.00121216
-0.00207854
-0.00308707
-0.00420381
-0.00539578
-0.00663135
-0.00788163
-0.00912075
-0.0103259
-0.0114764
-0.0125536
-0.0135412
-0.0144248
-0.0151923
-0.0158333
-0.0163395
-0.0167039
-0.0169207
-0.0169854
-0.0168945
-0.0166461
-0.0162387
-0.015672
-0.0149465
-0.0140638
-0.013026
-0.0118359
-0.0104967
-0.0090124
-0.00738711
-0.00562586
-0.00373424
-0.0017182
0.000415824
0.00266093
0.00501002
0.00745566
0.00999014
0.0126056
0.0152935
0.0180454
0.0208525
0.0237061
0.0265967
0.029515
0.0324513
0.0353961
0.0383397
0.0412729
0.0441857
0.0470684
0.0499111
0.052704
0.055437
0.0581005
0.0606853
0.0631829
0.0655846
0.067882
0.0700667
0.0721302
0.0740652
0.0758652
0.0775244
0.0790369
0.0803974
0.081601
0.0826438
0.083523
0.0842365
0.0847835
0.0851638
0.0853784
0.0854291
0.0853192
0.0850529
0.0846357
0.0840744
0.0833773
0.0825543
0.0816176
0.080581
0.0794598
0.0782711
0.0770342
0.0757708
0.0745051
0.0732638
0.0720758
0.0709722
0.0699851
0.0691476
0.0684902
0.0680421
0.0678545
0.0679556
0.00066329
0.00066348
0.000408745
-7.51744e-05
-0.00074085
-0.00155796
-0.00249839
-0.00353245
-0.00463186
-0.00576944
-0.00691962
-0.00805915
-0.00916694
-0.0102238
-0.0112126
-0.0121182
-0.0129269
-0.0136274
-0.0142092
-0.0146642
-0.0149858
-0.0151682
-0.0152068
-0.0150984
-0.0148407
-0.0144322
-0.0138724
-0.0131618
-0.0123016
-0.0112935
-0.0101401
-0.00884447
-0.00741007
-0.00584104
-0.00414203
-0.00231824
-0.000375306
0.00168066
0.00384303
0.00610498
0.00845955
0.0108994
0.0134169
0.0160039
0.0186523
0.0213538
0.0240997
0.0268811
0.029689
0.032514
0.035347
0.0381791
0.041001
0.0438034
0.0465767
0.0493118
0.0519989
0.0546284
0.057191
0.0596784
0.0620823
0.0643943
0.0666063
0.0687102
0.0706981
0.072563
0.0742991
0.0759008
0.0773624
0.0786789
0.0798456
0.0808591
0.081717
0.0824172
0.082959
0.0833424
0.0835685
0.0836395
0.0835585
0.0833297
0.0829585
0.0824515
0.0818167
0.081064
0.0802047
0.079252
0.0782204
0.0771258
0.0759861
0.0748215
0.0736542
0.0725084
0.0714098
0.0703854
0.0694635
0.0686726
0.0680397
0.0675916
0.067377
0.0674278
0.00149527
0.00138213
0.0010611
0.000550396
-0.000115125
-0.000910266
-0.00180957
-0.00278799
-0.00382081
-0.00488434
-0.00595639
-0.00701616
-0.00804464
-0.00902423
-0.00993891
-0.0107746
-0.0115192
-0.0121614
-0.0126918
-0.0131023
-0.0133864
-0.0135386
-0.0135545
-0.0134308
-0.0131652
-0.0127561
-0.0122031
-0.0115065
-0.0106671
-0.00968675
-0.00856756
-0.0073123
-0.00592424
-0.00440735
-0.00276608
-0.00100524
0.000869819
0.00285316
0.00493856
0.00711961
0.00938956
0.0117414
0.0141677
0.0166608
0.019213
0.0218162
0.0244621
0.0271419
0.029847
0.0325686
0.0352979
0.0380263
0.0407449
0.0434448
0.0461169
0.0487521
0.0513412
0.0538748
0.0563442
0.0587416
0.0610589
0.0632882
0.0654214
0.0674507
0.0693689
0.0711695
0.0728469
0.0743957
0.0758106
0.0770864
0.0782191
0.0792058
0.0800439
0.0807316
0.0812682
0.0816538
0.0818897
0.0819782
0.0819222
0.0817259
0.0813946
0.0809345
0.0803535
0.0796607
0.0788672
0.0779852
0.0770281
0.0760108
0.0749499
0.0738639
0.0727731
0.0716991
0.0706647
0.0696934
0.0688097
0.0680386
0.067404
0.0669302
0.066655
0.0666023
0.00256873
0.00230687
0.00189255
0.00133141
0.000641569
-0.000155082
-0.00103753
-0.00198382
-0.00297298
-0.00398445
-0.00499853
-0.00599707
-0.00696317
-0.00788076
-0.00873535
-0.00951366
-0.0102046
-0.0107978
-0.0112846
-0.0116572
-0.0119093
-0.0120357
-0.0120323
-0.0118957
-0.0116238
-0.0112149
-0.0106687
-0.00998523
-0.00916536
-0.00821061
-0.00712292
-0.00590486
-0.00455959
-0.00309078
-0.0015026
0.000200316
0.00201282
0.00392926
0.00594371
0.00805017
0.0102422
0.0125128
0.0148551
0.0172618
0.0197253
0.0222379
0.0247916
0.0273777
0.0299882
0.0326146
0.0352484
0.0378814
0.0405051
0.0431108
0.0456899
0.0482335
0.0507326
0.0531782
0.0555623
0.0578773
0.0601156
0.0622691
0.0643301
0.0662914
0.068146
0.069888
0.071512
0.0730126
0.0743846
0.0756233
0.076725
0.0776869
0.0785067
0.0791826
0.0797138
0.0801006
0.0803446
0.0804477
0.080413
0.0802442
0.0799464
0.0795258
0.0789898
0.0783471
0.0776078
0.0767835
0.0758866
0.0749308
0.0739315
0.0729055
0.0718709
0.0708472
0.0698541
0.0689124
0.0680432
0.067268
0.0666082
0.0660851
0.065721
0.0655264
0.00383515
0.00340219
0.00287432
0.00224269
0.00150755
0.000687348
-0.000199433
-0.00113498
-0.00210126
-0.00308051
-0.00405573
-0.00501064
-0.00593023
-0.00680056
-0.00760824
-0.00834135
-0.00898927
-0.00954295
-0.00999406
-0.0103355
-0.0105612
-0.0106664
-0.0106471
-0.0105002
-0.0102236
-0.00981588
-0.00927654
-0.0086056
-0.00780384
-0.0068726
-0.0058137
-0.00462958
-0.00332328
-0.00189828
-0.000358425
0.00129179
0.00304736
0.00490291
0.00685285
0.00889142
0.0110124
0.0132092
0.015475
0.0178031
0.020186
0.0226162
0.0250859
0.0275868
0.0301113
0.0326512
0.0351984
0.0377447
0.0402823
0.0428027
0.0452976
0.0477581
0.0501756
0.0525418
0.0548488
0.0570896
0.0592565
0.0613416
0.0633375
0.0652374
0.067035
0.0687244
0.0703002
0.0717572
0.0730905
0.0742957
0.0753694
0.0763089
0.0771118
0.0777765
0.0783021
0.0786892
0.0789393
0.0790543
0.0790368
0.0788903
0.0786198
0.0782312
0.0777315
0.0771288
0.0764325
0.0756533
0.0748027
0.0738934
0.0729392
0.0719553
0.0709581
0.0699645
0.068992
0.0680587
0.0671826
0.0663823
0.0656766
0.0650843
0.0646096
0.0642477
0.0052492
0.00463094
0.00397534
0.0032581
0.00246032
0.00159851
0.000688796
-0.000254171
-0.00121532
-0.00217981
-0.00313266
-0.00405952
-0.00494723
-0.00578353
-0.00655628
-0.00725499
-0.00786988
-0.00839257
-0.00881555
-0.00913213
-0.00933682
-0.00942515
-0.00939339
-0.00923864
-0.00895902
-0.00855335
-0.00802098
-0.007362
-0.00657711
-0.0056675
-0.00463488
-0.00348167
-0.00221076
-0.000825406
0.000670662
0.00227308
0.00397702
0.00577745
0.00766907
0.00964621
0.0117028
0.0138327
0.0160295
0.0182864
0.0205964
0.022952
0.0253457
0.0277697
0.0302164
0.0326782
0.0351471
0.0376153
0.0400754
0.042519
0.0449379
0.0473236
0.0496677
0.0519625
0.0542005
0.0563747
0.0584774
0.0605011
0.0624387
0.0642838
0.0660305
0.0676728
0.0692054
0.0706233
0.0719219
0.073097
0.0741454
0.0750644
0.0758519
0.0765059
0.0770259
0.0774124
0.0776668
0.0777907
0.0777866
0.0776577
0.0774086
0.0770451
0.0765737
0.0760018
0.0753382
0.0745927
0.0737759
0.0728993
0.0719755
0.071018
0.0700412
0.0690603
0.0680905
0.0671473
0.0662465
0.0654033
0.0646349
0.0639574
0.0633565
0.0628118
0.00677108
0.00595953
0.00516615
0.00435147
0.00347785
0.00255974
0.00161173
0.000645906
-0.000325646
-0.0012902
-0.00223497
-0.00314756
-0.00401638
-0.00483042
-0.00557933
-0.00625339
-0.00684413
-0.00734377
-0.00774545
-0.00804311
-0.00823177
-0.00830724
-0.00826616
-0.008106
-0.00782505
-0.00742222
-0.006897
-0.00624943
-0.00548014
-0.00459037
-0.00358177
-0.00245659
-0.00121758
0.000132054
0.00158858
0.00314785
0.00480536
0.00655622
0.00839525
0.010317
0.0123158
0.0143855
0.0165202
0.0187132
0.0209576
0.0232461
0.0255715
0.0279264
0.0303034
0.0326951
0.0350937
0.0374921
0.0398828
0.0422577
0.0446086
0.0469272
0.0492059
0.0514371
0.0536136
0.0557284
0.057774
0.0597429
0.0616287
0.0634253
0.0651268
0.0667273
0.0682214
0.0696045
0.0708722
0.0720205
0.0730463
0.0739468
0.07472
0.075364
0.0758783
0.0762633
0.0765202
0.0766505
0.0766562
0.0765404
0.0763075
0.0759628
0.0755123
0.0749629
0.0743227
0.0736006
0.0728063
0.0719502
0.0710435
0.0700983
0.0691275
0.0681442
0.0671617
0.0661934
0.0652526
0.0643522
0.0635075
0.0627326
0.061995
0.0612589
0.00836607
0.00735753
0.00641973
0.00549862
0.00453878
0.0035527
0.00255396
0.00155206
0.000557085
-0.000420349
-0.00136963
-0.00227992
-0.00314116
-0.00394367
-0.00467858
-0.00533712
-0.00591174
-0.0063955
-0.00678216
-0.00706632
-0.00724348
-0.00730985
-0.00726236
-0.00709898
-0.00681827
-0.0064191
-0.00590103
-0.0052643
-0.00450954
-0.00363787
-0.00265094
-0.00155096
-0.00034064
0.000976931
0.00239811
0.00391884
0.00553481
0.00724136
0.00903341
0.0109057
0.0128528
0.014869
0.0169483
0.0190843
0.0212701
0.0234988
0.0257634
0.0280568
0.0303717
0.032701
0.0350374
0.0373738
0.039703
0.0420169
0.0443074
0.0465668
0.0487877
0.0509628
0.053085
0.0551473
0.0571424
0.0590632
0.0609036
0.0626576
0.0643194
0.0658831
0.0673434
0.0686959
0.0699364
0.0710612
0.0720669
0.0729509
0.0737111
0.0743457
0.0748542
0.075237
0.0754948
0.0756291
0.0756414
0.0755347
0.075313
0.0749813
0.0745451
0.0740108
0.0733856
0.0726775
0.0718955
0.0710488
0.0701476
0.0692025
0.0682249
0.0672262
0.0662179
0.0652116
0.0642184
0.0632489
0.0623174
0.0614362
0.060555
0.0596238
0.0100037
0.00879745
0.00771115
0.00667741
0.00562305
0.00455982
0.00350003
0.00245136
0.00142197
0.000420516
-0.000544065
-0.00146255
-0.00232617
-0.00312675
-0.00385627
-0.00450749
-0.00507331
-0.00554757
-0.00592495
-0.00620063
-0.00637032
-0.00643087
-0.00637983
-0.0062153
-0.00593597
-0.00554106
-0.00503028
-0.00440383
-0.00366235
-0.00280707
-0.00183962
-0.000762116
0.000422738
0.0017118
0.00310157
0.00458817
0.00616742
0.00783474
0.00958519
0.0114138
0.0133153
0.0152842
0.0173146
0.0194002
0.0215343
0.0237103
0.0259214
0.0281604
0.0304207
0.0326952
0.034977
0.0372592
0.0395344
0.0417947
0.0440324
0.04624
0.0484105
0.0505368
0.0526116
0.0546281
0.0565793
0.0584585
0.0602596
0.0619768
0.0636042
0.065136
0.0665671
0.0678932
0.0691103
0.0702146
0.0712029
0.0720724
0.072821
0.0734469
0.0739497
0.0743294
0.0745868
0.0747228
0.0747388
0.0746375
0.0744227
0.074099
0.0736712
0.0731451
0.0725272
0.0718247
0.0710457
0.0701988
0.0692927
0.0683371
0.0673417
0.0663164
0.0652713
0.0642161
0.0631601
0.0621122
0.0610857
0.0600917
0.059063
0.0579361
0.0116574
0.0102545
0.0090179
0.00786686
0.00671215
0.00556432
0.00443524
0.00333099
0.0022579
0.001223
0.000233868
-0.000701848
-0.00157661
-0.0023836
-0.00311567
-0.00376647
-0.00432997
-0.00480069
-0.00517385
-0.00544526
-0.0056113
-0.00566918
-0.00561693
-0.00545299
-0.00517622
-0.00478606
-0.00428242
-0.00366561
-0.00293632
-0.0020957
-0.00114544
-8.77597e-05
0.00107464
0.00233867
0.00370094
0.00515771
0.00670483
0.0083378
0.0100519
0.0118424
0.0137042
0.0156319
0.0176197
0.0196613
0.0217504
0.0238806
0.0260451
0.028237
0.0304499
0.032677
0.0349116
0.0371468
0.0393754
0.0415895
0.0437816
0.0459448
0.0480722
0.0501565
0.0521907
0.054168
0.0560819
0.0579256
0.0596934
0.0613794
0.0629776
0.0644823
0.0658887
0.0671926
0.0683901
0.0694772
0.0704507
0.0713077
0.072046
0.0726641
0.0731613
0.0735375
0.0737932
0.073929
0.0739462
0.0738472
0.0736354
0.0733151
0.0728904
0.0723664
0.0717488
0.0710443
0.0702603
0.0694044
0.0684846
0.0675091
0.0664864
0.065425
0.0643334
0.0632203
0.0620932
0.0609595
0.0598319
0.0587206
0.0575424
0.0562213
0.0133038
0.011707
0.0103193
0.00904816
0.00778869
0.00655069
0.00534585
0.00417862
0.00305408
0.00197793
0.000956299
-4.52254e-06
-0.00089819
-0.0017186
-0.00246014
-0.00311683
-0.0036836
-0.00415592
-0.00452949
-0.00480048
-0.00496608
-0.00502412
-0.00497284
-0.00481089
-0.00453754
-0.00415257
-0.00365595
-0.00304804
-0.00232962
-0.00150193
-0.000566728
0.000473698
0.00161664
0.00285912
0.00419777
0.00562884
0.00714826
0.00875171
0.0104347
0.0121925
0.0140204
0.0159127
0.0178639
0.019868
0.0219187
0.0240097
0.0261343
0.0282861
0.0304586
0.0326456
0.0348402
0.0370356
0.0392245
0.0413995
0.0435533
0.0456792
0.0477704
0.0498196
0.0518197
0.0537644
0.0556471
0.0574616
0.0592019
0.0608621
0.0624363
0.0639188
0.065305
0.0665909
0.0677725
0.0688456
0.0698069
0.0706534
0.071383
0.0719943
0.0724863
0.0728588
0.0731118
0.0732459
0.0732621
0.0731627
0.0729506
0.0726296
0.0722032
0.0716757
0.0710524
0.0703392
0.0695431
0.0686708
0.0677294
0.0667259
0.0656675
0.0645616
0.0634157
0.0622371
0.0610322
0.0598069
0.0585735
0.0573419
0.0560138
0.054501
0.0149232
0.0131354
0.011597
0.0102042
0.00883671
0.00750451
0.00621869
0.0049826
0.00380022
0.00267612
0.00161521
0.000622605
-0.000296579
-0.00113682
-0.0018934
-0.00256152
-0.00313677
-0.00361508
-0.00399281
-0.00426697
-0.00443522
-0.00449575
-0.00444712
-0.00428841
-0.00401933
-0.00363979
-0.00314988
-0.00255
-0.00184109
-0.00102461
-0.000102348
0.0009234
0.00204994
0.00327428
0.00459304
0.00600246
0.00749861
0.00907732
0.0107342
0.0124648
0.0142641
0.0161269
0.0180475
0.0200202
0.0220388
0.0240971
0.0261886
0.0283069
0.0304461
0.0325998
0.0347614
0.0369238
0.0390801
0.041223
0.0433456
0.0454412
0.0475029
0.0495234
0.051496
0.0534143
0.0552723
0.0570636
0.0587821
0.0604218
0.0619769
0.0634421
0.0648127
0.0660848
0.0672542
0.0683165
0.0692682
0.0701065
0.0708293
0.071435
0.0719225
0.0722911
0.0725409
0.0726721
0.0726857
0.0725835
0.0723683
0.0720429
0.0716105
0.0710747
0.0704402
0.0697127
0.0688983
0.0680031
0.0670331
0.0659944
0.0648932
0.0637358
0.0625289
0.0612787
0.0599906
0.0586691
0.0573266
0.0559728
0.054495
0.0527938
0.0164978
0.0145224
0.0128348
0.0113192
0.00984162
0.00841187
0.00704109
0.00573156
0.00448615
0.00330852
0.0022025
0.00117233
0.00022239
-0.000643206
-0.00142005
-0.0021043
-0.00269225
-0.00318039
-0.0035658
-0.0038462
-0.00401964
-0.00408459
-0.00404008
-0.00388574
-0.00362154
-0.00324746
-0.00276369
-0.00217088
-0.00147019
-0.000663149
0.000248378
0.0012621
0.00237528
0.00358484
0.00488736
0.00627916
0.00775643
0.00931516
0.010951
0.0126595
0.0144357
0.0162744
0.0181704
0.0201178
0.0221105
0.0241423
0.0262071
0.0282987
0.0304113
0.0325386
0.0346738
0.0368099
0.0389403
0.0410581
0.0431563
0.0452283
0.047267
0.0492653
0.0512167
0.0531152
0.0549546
0.0567285
0.0584307
0.0600553
0.0615965
0.0630492
0.0644088
0.0656713
0.066832
0.0678866
0.0688316
0.0696642
0.0703822
0.0709839
0.0714677
0.0718328
0.072079
0.0722065
0.0722162
0.0721095
0.0718885
0.0715556
0.0711134
0.0705651
0.069915
0.0691682
0.0683303
0.0674064
0.0664019
0.0653217
0.0641714
0.0629567
0.0616832
0.0603564
0.0589807
0.0575595
0.0561054
0.0546281
0.0530015
0.0511155
0.0180123
0.0158532
0.0140177
0.0123791
0.0107898
0.00925992
0.00780114
0.00641441
0.00510163
0.00386585
0.0027101
0.00163759
0.000652073
-0.000243199
-0.00104473
-0.00174919
-0.00235341
-0.00285474
-0.00325096
-0.00354017
-0.00372078
-0.00379174
-0.00375268
-0.00360361
-0.00334456
-0.00297566
-0.00249738
-0.00191066
-0.0012168
-0.000417354
0.000485761
0.00149015
0.00259296
0.00379104
0.00508097
0.00645918
0.00792198
0.00946536
0.011085
0.0127763
0.0145347
0.016355
0.0182321
0.02016
0.0221328
0.0241444
0.0261889
0.0282603
0.0303529
0.0324602
0.0345754
0.036692
0.0388034
0.0409028
0.0429833
0.0450381
0.0470602
0.0490428
0.0509794
0.0528643
0.0546912
0.0564535
0.0581449
0.0597596
0.0612922
0.0627374
0.0640906
0.0653474
0.0665031
0.0675534
0.0684947
0.0693243
0.0700398
0.070639
0.0711203
0.0714825
0.0717252
0.0718487
0.0718534
0.0717406
0.0715118
0.0711687
0.0707137
0.0701494
0.0694799
0.0687096
0.0678435
0.0668861
0.0658416
0.0647147
0.0635101
0.062233
0.0608884
0.0594809
0.0580139
0.0564902
0.0549225
0.0533212
0.0515471
0.0494797
0.0194535
0.0171138
0.0151319
0.0133705
0.0116688
0.010037
0.00848742
0.00702046
0.00563697
0.00433922
0.00312977
0.00201117
0.000986005
5.7257e-05
-0.000772487
-0.00150041
-0.00212407
-0.00264154
-0.00305109
-0.00335108
-0.0035405
-0.00361891
-0.00358639
-0.00344309
-0.00318913
-0.00282497
-0.00235146
-0.00176975
-0.00108116
-0.000287312
0.000609765
0.0016075
0.00270289
0.00389277
0.00517382
0.00654253
0.00799517
0.00952769
0.0111357
0.0128149
0.0145607
0.0163681
0.0182319
0.0201461
0.0221047
0.0241023
0.0261329
0.0281906
0.0302694
0.0323631
0.0344648
0.0365684
0.0386675
0.0407552
0.0428245
0.0448685
0.0468804
0.0488536
0.050782
0.0526595
0.0544798
0.0562362
0.0579224
0.0595327
0.0610618
0.0625045
0.0638557
0.0651109
0.0662654
0.0673149
0.0682558
0.0690853
0.0698006
0.0703993
0.0708793
0.0712395
0.0714793
0.0715986
0.0715979
0.0714777
0.0712392
0.0708839
0.0704135
0.0698306
0.0691384
0.0683411
0.0674429
0.0664475
0.0653586
0.0641803
0.0629171
0.0615735
0.060154
0.0586623
0.057101
0.0554725
0.05379
0.0520644
0.050144
0.0478984
0.0208091
0.0182916
0.016165
0.0142812
0.0124664
0.0107316
0.00908929
0.0075396
0.00608265
0.00472005
0.0034537
0.00228566
0.00121772
0.000252305
-0.000608514
-0.00136269
-0.00200851
-0.0025445
-0.00296922
-0.00328161
-0.00348129
-0.00356833
-0.003543
-0.00340552
-0.00315639
-0.00279649
-0.00232695
-0.00174897
-0.00106388
-0.000273499
0.000619907
0.0016136
0.00270455
0.00388967
0.00516564
0.00652885
0.00797551
0.00950153
0.0111027
0.0127748
0.0145133
0.0163131
0.0181689
0.0200749
0.0220255
0.0240152
0.0260381
0.0280882
0.0301594
0.0322457
0.0343405
0.0364378
0.0385312
0.0406136
0.0426779
0.0447175
0.0467257
0.0486961
0.0506225
0.0524988
0.0543184
0.0560745
0.0577612
0.0593727
0.0609037
0.0623486
0.0637024
0.0649602
0.0661175
0.0671699
0.0681138
0.0689461
0.0696637
0.0702638
0.0707442
0.0711035
0.0713412
0.0714568
0.0714503
0.071322
0.0710727
0.0707035
0.0702159
0.069612
0.0688945
0.0680671
0.0671332
0.066096
0.064959
0.0637256
0.0624001
0.0609865
0.0594887
0.0579099
0.056252
0.0545168
0.0527185
0.0508685
0.0488033
0.0463821
0.0220678
0.0193756
0.0171053
0.0150994
0.0131716
0.0113327
0.00959637
0.00796207
0.00642948
0.00499967
0.00367396
0.00245369
0.00134056
0.000335996
-0.000558372
-0.00134122
-0.00201134
-0.00256754
-0.00300892
-0.00333512
-0.00354628
-0.00364268
-0.00362467
-0.00349285
-0.00324822
-0.002892
-0.00242535
-0.0018495
-0.00116601
-0.000376983
0.000515095
0.00150747
0.00259718
0.00378106
0.00505569
0.00641731
0.0078621
0.00938612
0.0109852
0.0126552
0.0143914
0.0161888
0.018042
0.0199457
0.0218942
0.023882
0.0259032
0.0279517
0.0300215
0.0321068
0.0342012
0.0362987
0.0383927
0.0404762
0.042542
0.0445835
0.0465946
0.0485686
0.0504993
0.0523802
0.0542049
0.0559668
0.0576596
0.059278
0.060816
0.0622681
0.063629
0.0648938
0.066058
0.0671172
0.0680676
0.0689057
0.0696283
0.070232
0.0707147
0.0710748
0.0713114
0.0714239
0.0714118
0.071275
0.0710141
0.07063
0.0701237
0.069497
0.0687521
0.0678919
0.0669194
0.0658374
0.0646491
0.0633576
0.0619667
0.0604801
0.0589012
0.0572327
0.055476
0.0536328
0.0517179
0.0497437
0.0475346
0.0449402
0.0232197
0.020355
0.0179424
0.0158147
0.0137736
0.0118303
0.00999879
0.00827848
0.00666855
0.00516957
0.00378246
0.00250807
0.00134762
0.000301904
-0.000628098
-0.00144151
-0.0021374
-0.0027151
-0.00317449
-0.00351569
-0.00373902
-0.00384495
-0.00383415
-0.00370778
-0.00346721
-0.00311372
-0.0026485
-0.00207305
-0.00138926
-0.000599466
0.000293809
0.00128785
0.00237961
0.00356578
0.00484271
0.00620664
0.00765384
0.00918041
0.0107822
0.0124549
0.0141938
0.015994
0.0178503
0.0197573
0.0217096
0.0237015
0.0257268
0.0277797
0.0298543
0.031945
0.0340455
0.0361495
0.0382504
0.0403412
0.0424148
0.044465
0.0464853
0.0484693
0.0504103
0.052302
0.0541377
0.0559111
0.057616
0.0592466
0.060797
0.0622612
0.063634
0.0649103
0.0660857
0.0671557
0.0681162
0.0689633
0.0696935
0.0703035
0.0707907
0.0711533
0.0713904
0.0715007
0.0714835
0.0713384
0.0710657
0.070666
0.0701401
0.0694892
0.068715
0.0678199
0.0668065
0.0656773
0.0644351
0.0630829
0.0616241
0.0600619
0.0583995
0.056639
0.0547818
0.0528294
0.0507973
0.0486989
0.0463467
0.0435809
0.0242551
0.0212201
0.0186664
0.0164172
0.0142626
0.0122145
0.0102872
0.00847976
0.00679116
0.00522154
0.00377143
0.00244148
0.00123193
0.000143299
-0.00082389
-0.00166909
-0.0023919
-0.00299235
-0.00347081
-0.0038276
-0.00406326
-0.0041786
-0.00417487
-0.0040536
-0.00381625
-0.00346413
-0.00299873
-0.00242193
-0.0017359
-0.000943009
-4.57416e-05
0.000953085
0.0020502
0.00324208
0.00452502
0.0058953
0.00734925
0.00888295
0.0104921
0.0121724
0.013919
0.0157273
0.0175922
0.0195084
0.0214701
0.0234717
0.0255071
0.0275705
0.0296563
0.0317587
0.0338715
0.0359883
0.0381024
0.0402068
0.0422948
0.04436
0.0463961
0.0483962
0.0503537
0.0522621
0.0541149
0.0559058
0.0576285
0.0592769
0.0608449
0.0623263
0.0637158
0.0650086
0.0661997
0.0672846
0.0682587
0.0691182
0.0698591
0.0704781
0.0709723
0.0713398
0.0715789
0.0716884
0.0716669
0.0715141
0.0712297
0.0708142
0.070268
0.0695919
0.0687871
0.0678556
0.0667996
0.0656214
0.0643234
0.0629083
0.0613794
0.0597394
0.0579913
0.0561371
0.0541779
0.0521151
0.0499653
0.0477424
0.0452477
0.0423116
0.0251653
0.0219616
0.0192679
0.0168977
0.0146297
0.0124763
0.0104526
0.00855718
0.00678887
0.00514761
0.00363335
0.0022463
0.000986308
-0.000146449
-0.00115186
-0.00202983
-0.00278062
-0.00340476
-0.00390277
-0.00427525
-0.00452311
-0.00464771
-0.00465071
-0.00453374
-0.00429833
-0.00394607
-0.00347888
-0.00289895
-0.0022085
-0.00140988
-0.000505664
0.000501057
0.00160677
0.00280784
0.00410062
0.00548142
0.00694651
0.00849182
0.010113
0.0118056
0.0135652
0.015387
0.017266
0.0191969
0.0211737
0.0231908
0.0252422
0.0273222
0.0294254
0.0315459
0.0336772
0.0358129
0.0379465
0.040071
0.04218
0.0442668
0.0463249
0.0483473
0.0503274
0.0522587
0.0541348
0.0559492
0.0576955
0.0593672
0.0609582
0.0624621
0.0638736
0.0651877
0.0663992
0.0675032
0.068495
0.0693703
0.0701253
0.0707563
0.0712604
0.0716351
0.0718785
0.0719887
0.0719643
0.0718045
0.0715091
0.071078
0.0705112
0.0698093
0.068973
0.0680041
0.0669044
0.0656757
0.0643203
0.0628407
0.0612396
0.05952
0.0576844
0.0557349
0.0536724
0.0514982
0.0492298
0.0468822
0.044245
0.0411393
0.0259423
0.0225711
0.0197382
0.0172474
0.0148659
0.0126069
0.0104863
0.00850239
0.00665366
0.00493974
0.00336036
0.00191504
0.00060371
-0.000574008
-0.00161845
-0.00253007
-0.00330957
-0.00395771
-0.00447526
-0.00486328
-0.00512318
-0.00525669
-0.00526565
-0.00515176
-0.00491683
-0.0045629
-0.00409224
-0.00350713
-0.00280976
-0.00200258
-0.00108847
-7.08049e-05
0.00104678
0.00226068
0.00356729
0.00496282
0.00644337
0.00800473
0.00964253
0.0113525
0.0131302
0.014971
0.0168696
0.0188206
0.0208181
0.0228565
0.02493
0.027033
0.0291598
0.0313044
0.0334604
0.0356214
0.0377808
0.0399321
0.0420685
0.0441834
0.0462698
0.0483208
0.0503298
0.0522903
0.0541959
0.0560398
0.0578154
0.0595162
0.0611358
0.0626678
0.0641067
0.0654471
0.0666837
0.0678113
0.0688248
0.06972
0.0704927
0.0711392
0.0716562
0.072041
0.0722909
0.0724039
0.0723781
0.0722127
0.071907
0.0714608
0.0708738
0.0701459
0.0692778
0.0682708
0.0671265
0.0658464
0.0644323
0.0628866
0.0612121
0.0594113
0.0574867
0.0554404
0.0532732
0.0509866
0.0485988
0.0461258
0.0433458
0.0400705
0.0265788
0.0230406
0.0200688
0.0174576
0.0149626
0.0125978
0.0103799
0.00830704
0.00637724
0.0045899
0.00294452
0.0014404
7.70678e-05
-0.00114628
-0.00223042
-0.00317621
-0.00398463
-0.00465664
-0.00519353
-0.00559684
-0.00586836
-0.00601001
-0.00602373
-0.0059115
-0.00567558
-0.0053184
-0.00484233
-0.00424964
-0.00354263
-0.00272405
-0.00179714
-0.000765405
0.000367523
0.00159809
0.0029226
0.00433703
0.00583731
0.00741922
0.00907849
0.0108109
0.0126121
0.0144771
0.0164007
0.0183772
0.0204011
0.0224668
0.0245686
0.0267007
0.0288572
0.0310322
0.0332191
0.0354116
0.0376036
0.0397882
0.0419585
0.0441078
0.0462289
0.0483149
0.0503592
0.0523554
0.0542966
0.0561761
0.057987
0.0597227
0.0613767
0.0629424
0.0644142
0.0657862
0.0670529
0.0682087
0.0692485
0.0701677
0.0709622
0.0716279
0.0721611
0.0725588
0.0728179
0.072936
0.072911
0.0727415
0.072427
0.0719666
0.0713599
0.0706064
0.0697065
0.0686612
0.0674717
0.0661393
0.0646657
0.063053
0.0613038
0.0594206
0.0574057
0.0552613
0.0529882
0.0505879
0.0480798
0.0454806
0.0425572
0.0391117
0.0270672
0.0233621
0.0202515
0.0175198
0.0149113
0.0124406
0.0101251
0.00796271
0.00595127
0.00409004
0.00237814
0.000814809
-0.000601028
-0.00187046
-0.0029946
-0.0039746
-0.00481171
-0.00550734
-0.00606326
-0.00648137
-0.00676369
-0.00691228
-0.00692936
-0.00681735
-0.00657888
-0.00621656
-0.00573276
-0.00512983
-0.00441041
-0.00357764
-0.00263493
-0.00158579
-0.000433801
0.000817381
0.00216381
0.00360126
0.00512563
0.00673278
0.00841852
0.0101786
0.0120084
0.0139029
0.0158567
0.0178645
0.0199206
0.0220197
0.0241558
0.026323
0.0285154
0.0307269
0.0329511
0.0351818
0.0374129
0.0396373
0.041848
0.044038
0.0462004
0.048328
0.0504142
0.0524523
0.0544356
0.0563568
0.058209
0.0599856
0.0616799
0.0632852
0.0647955
0.0662045
0.0675064
0.0686954
0.0697661
0.0707139
0.0715345
0.0722233
0.0727765
0.0731903
0.0734616
0.0735874
0.0735655
0.0733942
0.0730724
0.0725993
0.0719738
0.0711953
0.070264
0.0691804
0.0679456
0.0665606
0.0650268
0.0633464
0.0615216
0.059555
0.0574487
0.0552049
0.0528246
0.0503095
0.0476799
0.0449535
0.0418856
0.0382688
0.0273996
0.0235277
0.020278
0.0174259
0.0147037
0.0121267
0.00971312
0.00746089
0.00536748
0.00343199
0.00165334
3.04068e-05
-0.0014382
-0.00275381
-0.00391786
-0.00493178
-0.00579719
-0.00651605
-0.00709043
-0.00752245
-0.00781436
-0.00796849
-0.00798747
-0.00787413
-0.00763127
-0.0072615
-0.00676732
-0.00615144
-0.00541689
-0.00456702
-0.00360526
-0.00253509
-0.00136019
-8.44704e-05
0.00128787
0.00275258
0.00430559
0.00594287
0.00766014
0.00945295
0.0113165
0.0132457
0.0152353
0.01728
0.0193744
0.0215128
0.0236893
0.0258977
0.0281321
0.0303863
0.0326543
0.0349299
0.0372065
0.0394772
0.0417347
0.0439721
0.0461823
0.0483582
0.0504929
0.0525797
0.0546112
0.0565804
0.0584803
0.0603039
0.0620446
0.0636954
0.0652499
0.0667017
0.0680442
0.0692716
0.0703783
0.0713596
0.0722108
0.072927
0.073504
0.0739375
0.0742242
0.0743608
0.0743448
0.0741741
0.0738473
0.0733631
0.0727201
0.0719177
0.0709555
0.069834
0.0685539
0.0671162
0.0655222
0.0637736
0.0618726
0.0598216
0.0576228
0.0552785
0.0527899
0.0501587
0.0474064
0.0445514
0.0413376
0.0375478
0.0275684
0.0235294
0.0201403
0.0171672
0.0143309
0.0116473
0.00913541
0.00679303
0.00461745
0.00260742
0.000761876
-0.000920796
-0.00244211
-0.00380371
-0.00500731
-0.0060547
-0.00694794
-0.00768934
-0.00828118
-0.00872587
-0.00902594
-0.00918413
-0.00920343
-0.00908688
-0.00883732
-0.00845748
-0.00795023
-0.00731869
-0.00656616
-0.00569602
-0.00471166
-0.00361668
-0.00241503
-0.00111089
0.00029148
0.00178788
0.00337434
0.0050467
0.00680048
0.00863101
0.0105334
0.0125026
0.0145336
0.0166212
0.0187598
0.0209435
0.0231663
0.0254219
0.0277046
0.0300082
0.0323266
0.0346534
0.0369822
0.0393056
0.0416166
0.0439081
0.0461729
0.0484039
0.0505939
0.0527357
0.0548222
0.0568458
0.0587997
0.0606768
0.0624702
0.0641727
0.0657774
0.0672776
0.0686665
0.0699379
0.0710862
0.0721061
0.0729927
0.0737409
0.0743458
0.0748031
0.0751088
0.0752596
0.0752526
0.0750854
0.074756
0.0742627
0.073604
0.0727787
0.0717866
0.0706279
0.0693031
0.0678131
0.0661587
0.0643417
0.0623639
0.0602277
0.0579355
0.0554897
0.0528916
0.0501431
0.0472665
0.0442813
0.0409198
0.0369549
0.0275658
0.0233589
0.01983
0.0167353
0.0137844
0.0109939
0.00838336
0.0059505
0.00369251
0.00160793
-0.000304594
-0.00204685
-0.00362059
-0.00502776
-0.0062704
-0.00735066
-0.00827097
-0.00903384
-0.00964185
-0.0100978
-0.0104045
-0.010565
-0.0105827
-0.0104607
-0.0102018
-0.00980919
-0.00928619
-0.0086362
-0.00786254
-0.00696861
-0.00595795
-0.0048344
-0.0036022
-0.00226563
-0.000828881
0.000703918
0.00232869
0.00404104
0.00583621
0.00770944
0.00965592
0.0116708
0.013749
0.0158853
0.0180738
0.0203088
0.0225839
0.024893
0.0272304
0.0295899
0.0319652
0.0343499
0.0367373
0.0391201
0.0414913
0.0438437
0.0461701
0.048463
0.0507151
0.0529189
0.0550669
0.0571518
0.0591664
0.0611036
0.0629562
0.0647167
0.0663779
0.0679326
0.0693739
0.0706952
0.0718907
0.0729548
0.073882
0.0746669
0.0753044
0.0757897
0.0761186
0.0762875
0.0762931
0.0761324
0.0758032
0.0753033
0.0746307
0.0737843
0.0727637
0.0715688
0.0702001
0.0686582
0.0669437
0.065058
0.063003
0.0607811
0.0583947
0.0558464
0.0531376
0.0502701
0.0472676
0.0441504
0.040639