/*--------------------------------*- C++ -*----------------------------------*\
  =========                 |
  \\      /  F ield         | OpenFOAM: The Open Source CFD Toolbox
   \\    /   O peration     | Website:  https://openfoam.org
    \\  /    A nd           | Version:  11
     \\/     M anipulation  |
\*---------------------------------------------------------------------------*/
FoamFile
{
    format      ascii;
    class       volVectorField;
    location    "6.4";
    object      U;
}
// * * * * * * * * * * * * * * * * * * * * * * * * * * * * * * * * * * * * * //

dimensions      [0 1 -1 0 0 0 0];

internalField   nonuniform List<vector> 
10100
(
(2.93026e-06 -3.05091e-06 0)
(1.46629e-05 -7.82142e-06 0)
(3.34414e-05 -9.09465e-06 0)
(5.12554e-05 -7.92098e-06 0)
(6.30535e-05 -5.42737e-06 0)
(6.64147e-05 -2.30306e-06 0)
(6.01161e-05 1.08569e-06 0)
(4.3634e-05 4.50609e-06 0)
(1.68833e-05 7.84474e-06 0)
(-1.99244e-05 1.10252e-05 0)
(-6.64133e-05 1.40316e-05 0)
(-0.000122095 1.68281e-05 0)
(-0.000186397 1.94131e-05 0)
(-0.000258691 2.17807e-05 0)
(-0.000338349 2.39216e-05 0)
(-0.000424698 2.58519e-05 0)
(-0.000517062 2.757e-05 0)
(-0.000614787 2.90798e-05 0)
(-0.000717187 3.03806e-05 0)
(-0.000823602 3.14827e-05 0)
(-0.000933393 3.23818e-05 0)
(-0.00104591 3.30833e-05 0)
(-0.00116053 3.36024e-05 0)
(-0.00127665 3.39444e-05 0)
(-0.00139369 3.41143e-05 0)
(-0.00151107 3.41223e-05 0)
(-0.00162825 3.39741e-05 0)
(-0.0017447 3.36745e-05 0)
(-0.0018599 3.32315e-05 0)
(-0.00197338 3.26511e-05 0)
(-0.00208466 3.19383e-05 0)
(-0.0021933 3.10983e-05 0)
(-0.00229887 3.0139e-05 0)
(-0.00240096 2.90675e-05 0)
(-0.00249919 2.78891e-05 0)
(-0.0025932 2.661e-05 0)
(-0.00268264 2.5235e-05 0)
(-0.00276719 2.37706e-05 0)
(-0.00284654 2.22226e-05 0)
(-0.00292041 2.05953e-05 0)
(-0.00298853 1.8897e-05 0)
(-0.00305068 1.71366e-05 0)
(-0.00310663 1.53166e-05 0)
(-0.00315618 1.34414e-05 0)
(-0.00319916 1.15187e-05 0)
(-0.00323541 9.55307e-06 0)
(-0.00326479 7.55042e-06 0)
(-0.00328719 5.51859e-06 0)
(-0.00330252 3.46192e-06 0)
(-0.00331071 1.38616e-06 0)
(-0.00331171 -6.99292e-07 0)
(-0.0033055 -2.78793e-06 0)
(-0.00329208 -4.87497e-06 0)
(-0.00327148 -6.95274e-06 0)
(-0.00324374 -9.01337e-06 0)
(-0.00320895 -1.10505e-05 0)
(-0.00316721 -1.30568e-05 0)
(-0.00311863 -1.5024e-05 0)
(-0.00306337 -1.69445e-05 0)
(-0.00300162 -1.881e-05 0)
(-0.00293357 -2.06107e-05 0)
(-0.00285948 -2.23374e-05 0)
(-0.00277958 -2.3984e-05 0)
(-0.00269419 -2.55453e-05 0)
(-0.0026036 -2.70129e-05 0)
(-0.00250817 -2.83771e-05 0)
(-0.00240825 -2.963e-05 0)
(-0.00230425 -3.07655e-05 0)
(-0.00219657 -3.17756e-05 0)
(-0.00208567 -3.26512e-05 0)
(-0.00197202 -3.33848e-05 0)
(-0.0018561 -3.39699e-05 0)
(-0.00173845 -3.4399e-05 0)
(-0.0016196 -3.46644e-05 0)
(-0.00150011 -3.47605e-05 0)
(-0.00138057 -3.46841e-05 0)
(-0.00126156 -3.44312e-05 0)
(-0.00114371 -3.39963e-05 0)
(-0.00102763 -3.3374e-05 0)
(-0.000913964 -3.25597e-05 0)
(-0.000803367 -3.15498e-05 0)
(-0.000696495 -3.03404e-05 0)
(-0.000594017 -2.89275e-05 0)
(-0.000496601 -2.73075e-05 0)
(-0.000404917 -2.54789e-05 0)
(-0.000319626 -2.34428e-05 0)
(-0.000241377 -2.12021e-05 0)
(-0.000170796 -1.87608e-05 0)
(-0.000108481 -1.61251e-05 0)
(-5.49802e-05 -1.33053e-05 0)
(-1.07818e-05 -1.0318e-05 0)
(2.37168e-05 -7.18907e-06 0)
(4.82487e-05 -3.95918e-06 0)
(6.27366e-05 -6.95873e-07 0)
(6.73926e-05 2.48327e-06 0)
(6.28682e-05 5.37667e-06 0)
(5.04675e-05 7.63817e-06 0)
(3.26013e-05 8.64994e-06 0)
(1.41032e-05 7.35865e-06 0)
(2.76633e-06 2.76317e-06 0)
(7.21082e-06 -1.44839e-05 0)
(2.9829e-05 -3.06756e-05 0)
(6.03854e-05 -3.30674e-05 0)
(8.50203e-05 -2.54502e-05 0)
(9.43968e-05 -1.1658e-05 0)
(8.30642e-05 5.62662e-06 0)
(4.77556e-05 2.4726e-05 0)
(-1.328e-05 4.45103e-05 0)
(-0.000100687 6.42561e-05 0)
(-0.000214362 8.35087e-05 0)
(-0.000353652 0.000101954 0)
(-0.000517504 0.000119409 0)
(-0.000704597 0.000135733 0)
(-0.000913461 0.000150839 0)
(-0.00114244 0.000164677 0)
(-0.00138983 0.000177215 0)
(-0.00165388 0.000188439 0)
(-0.00193278 0.000198346 0)
(-0.00222475 0.000206956 0)
(-0.00252796 0.000214269 0)
(-0.00284064 0.000220312 0)
(-0.00316102 0.000225111 0)
(-0.00348738 0.000228696 0)
(-0.00381802 0.000231102 0)
(-0.0041513 0.000232363 0)
(-0.00448562 0.000232519 0)
(-0.00481942 0.000231605 0)
(-0.0051512 0.000229662 0)
(-0.00547951 0.000226732 0)
(-0.00580296 0.000222855 0)
(-0.00612021 0.000218069 0)
(-0.00642998 0.000212416 0)
(-0.00673105 0.000205935 0)
(-0.00702225 0.000198669 0)
(-0.00730247 0.000190655 0)
(-0.00757066 0.000181935 0)
(-0.00782583 0.000172554 0)
(-0.00806704 0.000162548 0)
(-0.00829342 0.000151959 0)
(-0.00850417 0.00014083 0)
(-0.00869853 0.000129201 0)
(-0.00887579 0.000117118 0)
(-0.00903534 0.000104622 0)
(-0.0091766 9.17519e-05 0)
(-0.00929906 7.85496e-05 0)
(-0.00940228 6.50587e-05 0)
(-0.00948587 5.13206e-05 0)
(-0.0095495 3.73774e-05 0)
(-0.00959293 2.3274e-05 0)
(-0.00961596 9.05795e-06 0)
(-0.00961846 -5.22234e-06 0)
(-0.00960038 -1.9521e-05 0)
(-0.00956173 -3.3792e-05 0)
(-0.0095026 -4.79864e-05 0)
(-0.00942314 -6.2055e-05 0)
(-0.00932356 -7.59495e-05 0)
(-0.00920418 -8.96187e-05 0)
(-0.00906536 -0.000103009 0)
(-0.00890754 -0.000116068 0)
(-0.00873124 -0.000128741 0)
(-0.00853706 -0.000140973 0)
(-0.00832568 -0.00015271 0)
(-0.00809784 -0.000163901 0)
(-0.00785437 -0.000174497 0)
(-0.00759618 -0.000184443 0)
(-0.00732422 -0.000193685 0)
(-0.00703956 -0.000202171 0)
(-0.0067433 -0.000209853 0)
(-0.00643666 -0.000216678 0)
(-0.00612089 -0.000222596 0)
(-0.00579733 -0.000227555 0)
(-0.00546737 -0.00023151 0)
(-0.0051325 -0.000234416 0)
(-0.00479422 -0.00023623 0)
(-0.00445412 -0.000236915 0)
(-0.00411382 -0.000236438 0)
(-0.00377502 -0.000234767 0)
(-0.00343944 -0.00023187 0)
(-0.00310882 -0.00022772 0)
(-0.00278497 -0.000222296 0)
(-0.00246968 -0.000215578 0)
(-0.0021648 -0.000207552 0)
(-0.00187215 -0.000198212 0)
(-0.00159356 -0.000187555 0)
(-0.00133084 -0.000175593 0)
(-0.00108576 -0.000162349 0)
(-0.000860027 -0.000147862 0)
(-0.000655275 -0.00013219 0)
(-0.00047301 -0.000115412 0)
(-0.000314575 -9.76441e-05 0)
(-0.000181095 -7.90475e-05 0)
(-7.33954e-05 -5.98503e-05 0)
(8.10755e-06 -4.03798e-05 0)
(6.35598e-05 -2.11126e-05 0)
(9.38912e-05 -2.75886e-06 0)
(0.00010112 1.36129e-05 0)
(8.86943e-05 2.63953e-05 0)
(6.20508e-05 3.31545e-05 0)
(3.0372e-05 3.03277e-05 0)
(7.37566e-06 1.40975e-05 0)
(8.10427e-06 -3.2295e-05 0)
(3.11243e-05 -6.06396e-05 0)
(5.75114e-05 -5.9872e-05 0)
(7.101e-05 -3.76595e-05 0)
(6.04249e-05 -1.22833e-06 0)
(1.87918e-05 4.40672e-05 0)
(-5.84164e-05 9.43301e-05 0)
(-0.000173898 0.000146933 0)
(-0.000328822 0.000199964 0)
(-0.000523284 0.000252132 0)
(-0.000756549 0.000302532 0)
(-0.00102726 0.000350531 0)
(-0.00133363 0.000395678 0)
(-0.0016735 0.000437669 0)
(-0.0020445 0.000476307 0)
(-0.0024441 0.000511432 0)
(-0.00286964 0.000542993 0)
(-0.00331837 0.000570931 0)
(-0.00378756 0.000595251 0)
(-0.00427441 0.000615984 0)
(-0.00477614 0.00063316 0)
(-0.00529001 0.000646839 0)
(-0.00581331 0.000657097 0)
(-0.00634339 0.000664013 0)
(-0.00687763 0.000667674 0)
(-0.00741349 0.000668178 0)
(-0.00794852 0.000665627 0)
(-0.00848032 0.000660125 0)
(-0.00900658 0.000651782 0)
(-0.00952507 0.000640711 0)
(-0.0100337 0.000627023 0)
(-0.0105303 0.000610831 0)
(-0.011013 0.000592251 0)
(-0.0114798 0.000571396 0)
(-0.0119291 0.000548384 0)
(-0.0123591 0.00052333 0)
(-0.0127683 0.000496353 0)
(-0.013155 0.000467575 0)
(-0.013518 0.00043711 0)
(-0.0138559 0.000405076 0)
(-0.0141675 0.000371601 0)
(-0.0144516 0.000336803 0)
(-0.0147073 0.000300802 0)
(-0.0149337 0.000263724 0)
(-0.0151298 0.000225691 0)
(-0.0152951 0.000186824 0)
(-0.0154289 0.000147252 0)
(-0.0155306 0.000107099 0)
(-0.0155999 6.64953e-05 0)
(-0.0156365 2.55751e-05 0)
(-0.0156401 -1.55237e-05 0)
(-0.0156108 -5.66663e-05 0)
(-0.0155484 -9.77163e-05 0)
(-0.0154533 -0.000138533 0)
(-0.0153255 -0.000178973 0)
(-0.0151656 -0.000218895 0)
(-0.0149739 -0.000258153 0)
(-0.014751 -0.000296597 0)
(-0.0144978 -0.000334075 0)
(-0.0142151 -0.000370437 0)
(-0.0139037 -0.000405527 0)
(-0.0135648 -0.000439194 0)
(-0.0131996 -0.000471288 0)
(-0.0128093 -0.000501661 0)
(-0.0123956 -0.000530161 0)
(-0.0119599 -0.000556637 0)
(-0.0115038 -0.000580943 0)
(-0.0110293 -0.000602932 0)
(-0.0105381 -0.000622463 0)
(-0.0100324 -0.000639393 0)
(-0.00951419 -0.000653586 0)
(-0.00898578 -0.000664912 0)
(-0.00844947 -0.000673245 0)
(-0.00790769 -0.00067847 0)
(-0.00736293 -0.00068048 0)
(-0.00681779 -0.000679179 0)
(-0.00627493 -0.000674475 0)
(-0.00573707 -0.000666288 0)
(-0.00520699 -0.00065455 0)
(-0.00468749 -0.000639206 0)
(-0.00418143 -0.000620215 0)
(-0.00369166 -0.000597556 0)
(-0.00322103 -0.000571227 0)
(-0.00277236 -0.000541251 0)
(-0.00234844 -0.000507682 0)
(-0.00195197 -0.000470617 0)
(-0.00158551 -0.000430194 0)
(-0.00125151 -0.000386614 0)
(-0.000952176 -0.000340153 0)
(-0.000689424 -0.000291186 0)
(-0.00046481 -0.000240225 0)
(-0.000279392 -0.000187969 0)
(-0.000133583 -0.000135376 0)
(-2.69465e-05 -8.37753e-05 0)
(4.20772e-05 -3.50228e-05 0)
(7.65061e-05 8.27908e-06 0)
(8.11463e-05 4.24965e-05 0)
(6.30585e-05 6.26373e-05 0)
(3.33966e-05 6.20674e-05 0)
(8.70978e-06 3.26503e-05 0)
(6.88348e-06 -4.87262e-05 0)
(2.34181e-05 -8.41222e-05 0)
(3.50659e-05 -7.31258e-05 0)
(2.53598e-05 -2.79912e-05 0)
(-1.72971e-05 4.06923e-05 0)
(-0.000100576 0.000124563 0)
(-0.000229632 0.000217506 0)
(-0.000407611 0.000314961 0)
(-0.000636071 0.000413672 0)
(-0.000915216 0.000511222 0)
(-0.00124428 0.000605883 0)
(-0.00162168 0.000696383 0)
(-0.00204526 0.00078182 0)
(-0.0025124 0.000861537 0)
(-0.00302014 0.000935069 0)
(-0.00356524 0.00100211 0)
(-0.00414434 0.00106246 0)
(-0.00475391 0.001116 0)
(-0.00539036 0.00116268 0)
(-0.00605008 0.00120252 0)
(-0.00672942 0.00123557 0)
(-0.00742476 0.00126193 0)
(-0.00813253 0.0012817 0)
(-0.00884921 0.00129504 0)
(-0.00957132 0.00130209 0)
(-0.0102955 0.00130304 0)
(-0.0110184 0.00129806 0)
(-0.0117369 0.00128734 0)
(-0.0124478 0.00127111 0)
(-0.0131483 0.00124956 0)
(-0.0138353 0.0012229 0)
(-0.0145061 0.00119136 0)
(-0.0151581 0.00115515 0)
(-0.0157887 0.0011145 0)
(-0.0163955 0.00106963 0)
(-0.0169763 0.00102078 0)
(-0.0175289 0.000968158 0)
(-0.0180512 0.000912007 0)
(-0.0185414 0.00085256 0)
(-0.0189977 0.000790049 0)
(-0.0194184 0.00072471 0)
(-0.0198021 0.000656782 0)
(-0.0201473 0.000586503 0)
(-0.0204528 0.000514112 0)
(-0.0207175 0.000439857 0)
(-0.0209404 0.000363981 0)
(-0.0211208 0.000286731 0)
(-0.0212579 0.000208359 0)
(-0.0213512 0.000129121 0)
(-0.0214002 4.92785e-05 0)
(-0.0214048 -3.09065e-05 0)
(-0.0213648 -0.000111165 0)
(-0.0212802 -0.000191227 0)
(-0.0211514 -0.000270818 0)
(-0.0209785 -0.000349661 0)
(-0.0207622 -0.000427474 0)
(-0.020503 -0.000503972 0)
(-0.0202019 -0.000578869 0)
(-0.0198598 -0.000651872 0)
(-0.0194778 -0.000722683 0)
(-0.0190572 -0.000791011 0)
(-0.0185995 -0.000856562 0)
(-0.0181064 -0.000919042 0)
(-0.0175795 -0.000978159 0)
(-0.017021 -0.00103362 0)
(-0.0164328 -0.00108514 0)
(-0.0158172 -0.00113243 0)
(-0.0151767 -0.0011752 0)
(-0.0145138 -0.0012132 0)
(-0.0138312 -0.00124614 0)
(-0.0131319 -0.00127377 0)
(-0.0124187 -0.00129584 0)
(-0.0116948 -0.00131211 0)
(-0.0109634 -0.00132237 0)
(-0.0102279 -0.00132641 0)
(-0.0094917 -0.00132404 0)
(-0.0087584 -0.00131509 0)
(-0.00803158 -0.00129943 0)
(-0.00731494 -0.00127693 0)
(-0.00661219 -0.00124749 0)
(-0.00592711 -0.00121107 0)
(-0.00526343 -0.00116763 0)
(-0.00462491 -0.0011172 0)
(-0.00401523 -0.00105986 0)
(-0.00343799 -0.000995738 0)
(-0.00289667 -0.00092506 0)
(-0.00239458 -0.000848135 0)
(-0.00193479 -0.000765392 0)
(-0.00152007 -0.000677409 0)
(-0.00115278 -0.00058496 0)
(-0.000834791 -0.000489072 0)
(-0.000567311 -0.000391111 0)
(-0.000350735 -0.000292899 0)
(-0.000184417 -0.000196875 0)
(-6.63969e-05 -0.000106312 0)
(6.9152e-06 -2.56051e-05 0)
(4.10322e-05 3.93712e-05 0)
(4.37933e-05 8.09101e-05 0)
(2.70104e-05 8.9087e-05 0)
(7.77326e-06 5.07164e-05 0)
(4.59183e-06 -5.93727e-05 0)
(1.02912e-05 -9.25009e-05 0)
(-3.29739e-07 -6.23648e-05 0)
(-4.19536e-05 1.46422e-05 0)
(-0.000125701 0.000124599 0)
(-0.000259266 0.000256423 0)
(-0.000447914 0.000401637 0)
(-0.000694991 0.00055386 0)
(-0.00100207 0.000708265 0)
(-0.00136943 0.000861248 0)
(-0.00179619 0.0010101 0)
(-0.00228058 0.00115281 0)
(-0.00282016 0.00128786 0)
(-0.00341187 0.00141415 0)
(-0.00405229 0.00153089 0)
(-0.00473764 0.00163753 0)
(-0.00546391 0.00173366 0)
(-0.00622692 0.00181906 0)
(-0.00702238 0.00189362 0)
(-0.00784593 0.00195731 0)
(-0.00869318 0.00201018 0)
(-0.00955974 0.00205235 0)
(-0.0104413 0.00208396 0)
(-0.0113335 0.00210524 0)
(-0.0122321 0.00211641 0)
(-0.013133 0.00211773 0)
(-0.0140322 0.00210949 0)
(-0.0149256 0.00209199 0)
(-0.0158096 0.00206554 0)
(-0.0166803 0.00203048 0)
(-0.0175343 0.00198714 0)
(-0.0183681 0.00193587 0)
(-0.0191784 0.00187702 0)
(-0.0199621 0.00181096 0)
(-0.0207162 0.00173804 0)
(-0.0214379 0.00165863 0)
(-0.0221245 0.0015731 0)
(-0.0227735 0.00148182 0)
(-0.0233825 0.00138518 0)
(-0.0239494 0.00128355 0)
(-0.024472 0.00117733 0)
(-0.0249485 0.00106688 0)
(-0.0253772 0.000952616 0)
(-0.0257565 0.000834919 0)
(-0.0260852 0.000714189 0)
(-0.0263619 0.000590829 0)
(-0.0265857 0.000465245 0)
(-0.0267557 0.000337849 0)
(-0.0268713 0.000209058 0)
(-0.0269319 7.9298e-05 0)
(-0.0269372 -5.10012e-05 0)
(-0.0268872 -0.000181407 0)
(-0.0267818 -0.000311476 0)
(-0.0266214 -0.000440762 0)
(-0.0264063 -0.000568813 0)
(-0.0261373 -0.000695173 0)
(-0.0258151 -0.000819379 0)
(-0.0254408 -0.000940963 0)
(-0.0250156 -0.00105945 0)
(-0.0245409 -0.00117438 0)
(-0.0240184 -0.00128526 0)
(-0.0234498 -0.00139162 0)
(-0.0228372 -0.00149299 0)
(-0.0221828 -0.0015889 0)
(-0.021489 -0.00167887 0)
(-0.0207585 -0.00176244 0)
(-0.019994 -0.00183915 0)
(-0.0191985 -0.00190855 0)
(-0.0183752 -0.0019702 0)
(-0.0175274 -0.00202368 0)
(-0.0166587 -0.00206857 0)
(-0.0157728 -0.00210447 0)
(-0.0148734 -0.00213102 0)
(-0.0139646 -0.00214786 0)
(-0.0130505 -0.00215467 0)
(-0.0121352 -0.00215117 0)
(-0.0112233 -0.00213709 0)
(-0.010319 -0.00211221 0)
(-0.0094268 -0.00207636 0)
(-0.00855136 -0.0020294 0)
(-0.00769717 -0.00197127 0)
(-0.0068688 -0.00190197 0)
(-0.00607075 -0.00182155 0)
(-0.00530747 -0.00173017 0)
(-0.00458325 -0.00162812 0)
(-0.00390226 -0.00151576 0)
(-0.0032684 -0.00139366 0)
(-0.00268529 -0.00126255 0)
(-0.00215614 -0.00112341 0)
(-0.0016837 -0.000977523 0)
(-0.00127008 -0.000826551 0)
(-0.000916655 -0.000672667 0)
(-0.000623848 -0.000518699 0)
(-0.000390936 -0.000368326 0)
(-0.000215804 -0.000226342 0)
(-9.46583e-05 -9.89942e-05 0)
(-2.17697e-05 5.61752e-06 0)
(1.08897e-05 7.71407e-05 0)
(1.4786e-05 0.000102433 0)
(5.62483e-06 6.35643e-05 0)
(1.78676e-06 -6.21273e-05 0)
(-6.0298e-06 -8.08703e-05 0)
(-4.39527e-05 -2.10636e-05 0)
(-0.000123762 9.75052e-05 0)
(-0.000255152 0.000257983 0)
(-0.000445484 0.000446782 0)
(-0.000699767 0.00065324 0)
(-0.0010211 0.000869149 0)
(-0.00141102 0.00108816 0)
(-0.00186961 0.00130539 0)
(-0.00239585 0.00151709 0)
(-0.00298776 0.00172041 0)
(-0.00364257 0.00191317 0)
(-0.00435692 0.00209374 0)
(-0.00512692 0.0022609 0)
(-0.00594833 0.00241379 0)
(-0.00681661 0.0025518 0)
(-0.007727 0.00267452 0)
(-0.0086746 0.00278174 0)
(-0.0096544 0.00287337 0)
(-0.0106614 0.00294944 0)
(-0.0116904 0.00301008 0)
(-0.0127365 0.00305548 0)
(-0.0137947 0.00308591 0)
(-0.01486 0.00310168 0)
(-0.0159276 0.00310315 0)
(-0.0169928 0.00309071 0)
(-0.018051 0.00306479 0)
(-0.0190976 0.00302584 0)
(-0.0201285 0.00297431 0)
(-0.0211394 0.0029107 0)
(-0.0221262 0.0028355 0)
(-0.0230851 0.00274922 0)
(-0.0240125 0.00265238 0)
(-0.0249047 0.0025455 0)
(-0.0257586 0.00242912 0)
(-0.0265708 0.00230379 0)
(-0.0273385 0.00217004 0)
(-0.0280588 0.00202843 0)
(-0.0287292 0.00187951 0)
(-0.0293472 0.00172385 0)
(-0.0299107 0.00156202 0)
(-0.0304176 0.00139459 0)
(-0.0308661 0.00122214 0)
(-0.0312545 0.00104525 0)
(-0.0315816 0.000864515 0)
(-0.031846 0.000680533 0)
(-0.0320467 0.000493912 0)
(-0.0321831 0.000305265 0)
(-0.0322544 0.000115214 0)
(-0.0322604 -7.56099e-05 0)
(-0.0322009 -0.000266569 0)
(-0.032076 -0.000457016 0)
(-0.031886 -0.000646297 0)
(-0.0316314 -0.000833748 0)
(-0.031313 -0.0010187 0)
(-0.0309318 -0.00120048 0)
(-0.030489 -0.00137841 0)
(-0.029986 -0.00155179 0)
(-0.0294245 -0.00171994 0)
(-0.0288065 -0.00188216 0)
(-0.028134 -0.00203776 0)
(-0.0274096 -0.00218606 0)
(-0.0266357 -0.00232635 0)
(-0.0258153 -0.00245797 0)
(-0.0249514 -0.00258023 0)
(-0.0240474 -0.00269246 0)
(-0.0231066 -0.00279403 0)
(-0.0221329 -0.0028843 0)
(-0.0211302 -0.00296264 0)
(-0.0201026 -0.00302846 0)
(-0.0190545 -0.00308121 0)
(-0.0179903 -0.00312034 0)
(-0.0169146 -0.00314536 0)
(-0.0158324 -0.00315582 0)
(-0.0147485 -0.0031513 0)
(-0.0136679 -0.00313144 0)
(-0.0125959 -0.00309594 0)
(-0.0115377 -0.00304458 0)
(-0.0104985 -0.00297718 0)
(-0.00948351 -0.00289369 0)
(-0.00849809 -0.00279411 0)
(-0.00754741 -0.0026786 0)
(-0.00663656 -0.00254742 0)
(-0.00577046 -0.002401 0)
(-0.00495384 -0.00223997 0)
(-0.00419114 -0.00206517 0)
(-0.00348643 -0.00187771 0)
(-0.00284336 -0.00167905 0)
(-0.00226498 -0.00147106 0)
(-0.00175367 -0.00125615 0)
(-0.00131098 -0.00103737 0)
(-0.000937465 -0.000818635 0)
(-0.000632476 -0.000604923 0)
(-0.000393964 -0.000402569 0)
(-0.000218245 -0.000219632 0)
(-9.97611e-05 -6.63327e-05 0)
(-3.07538e-05 4.45186e-05 0)
(-8.69654e-07 9.68701e-05 0)
(2.88018e-06 6.8881e-05 0)
(-1.22656e-06 -5.58709e-05 0)
(-2.40599e-05 -4.61089e-05 0)
(-9.25521e-05 5.52458e-05 0)
(-0.000214698 0.000225812 0)
(-0.0003984 0.000446344 0)
(-0.000650219 0.000701009 0)
(-0.000974596 0.000977246 0)
(-0.00137424 0.00126509 0)
(-0.00185028 0.00155674 0)
(-0.00240259 0.00184605 0)
(-0.00302987 0.0021282 0)
(-0.00372985 0.00239947 0)
(-0.00449948 0.00265695 0)
(-0.00533502 0.00289843 0)
(-0.00623222 0.00312224 0)
(-0.00718639 0.00332713 0)
(-0.00819252 0.00351223 0)
(-0.00924533 0.00367694 0)
(-0.0103394 0.0038209 0)
(-0.0114691 0.00394394 0)
(-0.0126289 0.00404605 0)
(-0.013813 0.00412736 0)
(-0.0150159 0.00418809 0)
(-0.0162318 0.00422856 0)
(-0.0174553 0.00424918 0)
(-0.018681 0.00425038 0)
(-0.0199034 0.0042327 0)
(-0.0211173 0.00419669 0)
(-0.0223177 0.00414292 0)
(-0.0234998 0.00407203 0)
(-0.0246586 0.00398466 0)
(-0.0257897 0.00388148 0)
(-0.0268887 0.00376318 0)
(-0.0279514 0.00363045 0)
(-0.0289737 0.00348401 0)
(-0.0299519 0.00332458 0)
(-0.0308823 0.0031529 0)
(-0.0317616 0.00296972 0)
(-0.0325866 0.00277579 0)
(-0.0333544 0.00257187 0)
(-0.0340621 0.00235873 0)
(-0.0347072 0.00213714 0)
(-0.0352875 0.0019079 0)
(-0.0358009 0.0016718 0)
(-0.0362456 0.00142963 0)
(-0.0366198 0.00118221 0)
(-0.0369223 0.000930371 0)
(-0.037152 0.000674931 0)
(-0.0373078 0.000416737 0)
(-0.0373893 0.000156643 0)
(-0.0373959 -0.000104491 0)
(-0.0373275 -0.000365787 0)
(-0.0371842 -0.00062636 0)
(-0.0369665 -0.000885314 0)
(-0.0366748 -0.00114175 0)
(-0.03631 -0.00139474 0)
(-0.0358734 -0.00164338 0)
(-0.0353662 -0.00188672 0)
(-0.0347902 -0.00212383 0)
(-0.0341472 -0.00235378 0)
(-0.0334395 -0.00257561 0)
(-0.0326695 -0.00278839 0)
(-0.03184 -0.00299118 0)
(-0.0309539 -0.00318304 0)
(-0.0300145 -0.00336304 0)
(-0.0290252 -0.00353027 0)
(-0.0279899 -0.00368383 0)
(-0.0269124 -0.00382284 0)
(-0.0257972 -0.00394645 0)
(-0.0246485 -0.00405381 0)
(-0.0234712 -0.00414414 0)
(-0.02227 -0.00421668 0)
(-0.0210502 -0.00427072 0)
(-0.0198169 -0.00430558 0)
(-0.0185756 -0.00432068 0)
(-0.0173319 -0.00431546 0)
(-0.0160915 -0.00428947 0)
(-0.0148601 -0.00424231 0)
(-0.0136437 -0.0041737 0)
(-0.0124482 -0.00408345 0)
(-0.0112794 -0.0039715 0)
(-0.0101433 -0.00383793 0)
(-0.00904561 -0.00368296 0)
(-0.00799206 -0.00350702 0)
(-0.00698813 -0.00331074 0)
(-0.00603904 -0.003095 0)
(-0.00514971 -0.00286099 0)
(-0.00432464 -0.00261027 0)
(-0.00356785 -0.00234482 0)
(-0.00288272 -0.00206717 0)
(-0.00227192 -0.00178051 0)
(-0.00173724 -0.00148884 0)
(-0.00127946 -0.00119719 0)
(-0.000898158 -0.000911818 0)
(-0.000591556 -0.000640566 0)
(-0.000356338 -0.000393204 0)
(-0.000187422 -0.000181895 0)
(-7.76809e-05 -2.16309e-05 0)
(-1.84098e-05 6.90795e-05 0)
(-1.22716e-07 6.54362e-05 0)
(-4.30162e-06 -4.00329e-05 0)
(-4.29229e-05 1.36605e-05 0)
(-0.000143831 0.000169442 0)
(-0.000311 0.000403121 0)
(-0.000550095 0.000693501 0)
(-0.000866688 0.00102299 0)
(-0.00126441 0.00137725 0)
(-0.00174528 0.00174484 0)
(-0.00231 0.00211654 0)
(-0.00295797 0.002485 0)
(-0.00368754 0.00284438 0)
(-0.00449612 0.00319004 0)
(-0.00538029 0.00351836 0)
(-0.00633596 0.00382651 0)
(-0.00735849 0.0041123 0)
(-0.00844279 0.00437412 0)
(-0.00958339 0.00461076 0)
(-0.0107746 0.00482142 0)
(-0.0120104 0.00500555 0)
(-0.0132848 0.00516288 0)
(-0.0145916 0.00529336 0)
(-0.0159246 0.00539708 0)
(-0.0172775 0.0054743 0)
(-0.0186443 0.0055254 0)
(-0.0200187 0.00555084 0)
(-0.0213949 0.00555119 0)
(-0.0227668 0.00552708 0)
(-0.0241288 0.00547921 0)
(-0.0254752 0.00540832 0)
(-0.0268006 0.0053152 0)
(-0.0280997 0.00520068 0)
(-0.0293675 0.00506561 0)
(-0.030599 0.00491087 0)
(-0.0317896 0.00473736 0)
(-0.0329349 0.00454601 0)
(-0.0340305 0.00433775 0)
(-0.0350726 0.00411354 0)
(-0.0360573 0.00387435 0)
(-0.0369811 0.00362115 0)
(-0.0378406 0.00335494 0)
(-0.0386329 0.00307671 0)
(-0.0393551 0.00278749 0)
(-0.0400047 0.0024883 0)
(-0.0405793 0.00218016 0)
(-0.0410769 0.00186414 0)
(-0.0414957 0.00154129 0)
(-0.0418341 0.00121269 0)
(-0.042091 0.000879411 0)
(-0.0422652 0.000542565 0)
(-0.0423562 0.000203262 0)
(-0.0423634 -0.000137371 0)
(-0.0422867 -0.000478193 0)
(-0.0421262 -0.00081805 0)
(-0.0418824 -0.00115577 0)
(-0.0415557 -0.00149019 0)
(-0.0411474 -0.0018201 0)
(-0.0406586 -0.00214431 0)
(-0.0400908 -0.00246161 0)
(-0.039446 -0.00277077 0)
(-0.0387263 -0.00307058 0)
(-0.0379342 -0.00335982 0)
(-0.0370723 -0.00363727 0)
(-0.0361437 -0.0039017 0)
(-0.0351517 -0.0041519 0)
(-0.0341 -0.00438667 0)
(-0.0329924 -0.00460484 0)
(-0.0318331 -0.00480524 0)
(-0.0306265 -0.00498674 0)
(-0.0293774 -0.00514823 0)
(-0.0280907 -0.00528864 0)
(-0.0267715 -0.00540696 0)
(-0.0254253 -0.00550221 0)
(-0.0240578 -0.00557349 0)
(-0.0226748 -0.00561995 0)
(-0.0212823 -0.00564083 0)
(-0.0198864 -0.00563546 0)
(-0.0184934 -0.00560324 0)
(-0.0171097 -0.00554372 0)
(-0.0157419 -0.00545654 0)
(-0.0143963 -0.00534152 0)
(-0.0130794 -0.0051986 0)
(-0.0117978 -0.00502792 0)
(-0.0105578 -0.00482983 0)
(-0.00936546 -0.00460492 0)
(-0.00822691 -0.00435405 0)
(-0.00714781 -0.00407842 0)
(-0.00613352 -0.00377959 0)
(-0.00518895 -0.00345959 0)
(-0.00431849 -0.00312099 0)
(-0.00352588 -0.00276701 0)
(-0.00281411 -0.00240164 0)
(-0.00218528 -0.00202984 0)
(-0.0016405 -0.00165773 0)
(-0.00117972 -0.00129283 0)
(-0.000801611 -0.000944391 0)
(-0.00050343 -0.000623753 0)
(-0.000280811 -0.000344796 0)
(-0.000127526 -0.000124364 0)
(-3.68528e-05 1.70664e-05 0)
(-3.19761e-06 5.26138e-05 0)
(-7.35253e-06 -1.44084e-05 0)
(-6.20465e-05 9.93939e-05 0)
(-0.000196331 0.000323222 0)
(-0.000409999 0.00063161 0)
(-0.000706413 0.00100203 0)
(-0.00108992 0.00141534 0)
(-0.00156316 0.00185584 0)
(-0.00212737 0.00231069 0)
(-0.00278255 0.00276943 0)
(-0.00352762 0.00322362 0)
(-0.00436044 0.00366638 0)
(-0.005278 0.00409224 0)
(-0.00627651 0.00449681 0)
(-0.00735148 0.00487667 0)
(-0.00849787 0.0052291 0)
(-0.0097102 0.00555207 0)
(-0.0109826 0.00584406 0)
(-0.0123088 0.00610399 0)
(-0.0136826 0.00633115 0)
(-0.0150973 0.00652515 0)
(-0.0165462 0.00668584 0)
(-0.0180228 0.00681331 0)
(-0.0195202 0.00690783 0)
(-0.0210319 0.00696982 0)
(-0.0225511 0.00699983 0)
(-0.0240714 0.00699853 0)
(-0.0255863 0.00696667 0)
(-0.0270897 0.00690511 0)
(-0.0285753 0.00681475 0)
(-0.0300373 0.00669656 0)
(-0.0314699 0.00655154 0)
(-0.0328676 0.00638077 0)
(-0.0342251 0.00618533 0)
(-0.0355372 0.00596634 0)
(-0.0367992 0.00572495 0)
(-0.0380063 0.00546233 0)
(-0.0391542 0.00517968 0)
(-0.0402388 0.00487822 0)
(-0.0412562 0.00455915 0)
(-0.0422028 0.00422374 0)
(-0.0430752 0.00387323 0)
(-0.0438703 0.00350891 0)
(-0.0445854 0.00313206 0)
(-0.045218 0.00274399 0)
(-0.0457657 0.00234601 0)
(-0.0462267 0.00193946 0)
(-0.0465992 0.00152569 0)
(-0.0468818 0.00110608 0)
(-0.0470736 0.000681991 0)
(-0.0471737 0.000254839 0)
(-0.0471816 -0.000173961 0)
(-0.0470971 -0.000602975 0)
(-0.0469204 -0.00103075 0)
(-0.0466519 -0.00145582 0)
(-0.0462924 -0.00187671 0)
(-0.0458429 -0.00229192 0)
(-0.0453049 -0.00269994 0)
(-0.04468 -0.00309925 0)
(-0.0439702 -0.00348833 0)
(-0.043178 -0.00386565 0)
(-0.042306 -0.00422968 0)
(-0.0413572 -0.00457889 0)
(-0.0403349 -0.00491174 0)
(-0.0392427 -0.00522674 0)
(-0.0380846 -0.00552239 0)
(-0.0368649 -0.0057972 0)
(-0.035588 -0.00604973 0)
(-0.0342589 -0.00627858 0)
(-0.0328827 -0.00648235 0)
(-0.0314647 -0.00665974 0)
(-0.0300106 -0.00680948 0)
(-0.0285263 -0.00693037 0)
(-0.027018 -0.00702128 0)
(-0.025492 -0.00708119 0)
(-0.0239548 -0.00710917 0)
(-0.0224132 -0.00710438 0)
(-0.0208739 -0.00706613 0)
(-0.0193438 -0.00699387 0)
(-0.0178301 -0.0068872 0)
(-0.0163396 -0.00674591 0)
(-0.0148795 -0.00656999 0)
(-0.0134566 -0.00635964 0)
(-0.0120779 -0.00611536 0)
(-0.01075 -0.00583791 0)
(-0.00947932 -0.00552842 0)
(-0.00827212 -0.00518842 0)
(-0.00713413 -0.00481987 0)
(-0.00607068 -0.00442532 0)
(-0.00508654 -0.00400791 0)
(-0.00418583 -0.00357157 0)
(-0.00337191 -0.00312113 0)
(-0.00264729 -0.00266246 0)
(-0.00201351 -0.00220275 0)
(-0.00147099 -0.0017507 0)
(-0.00101901 -0.00131687 0)
(-0.000655557 -0.000913981 0)
(-0.000377175 -0.000557397 0)
(-0.000178705 -0.000265483 0)
(-5.55878e-05 -6.02066e-05 0)
(-6.24391e-06 3.0188e-05 0)
(-1.03416e-05 2.09932e-05 0)
(-8.10871e-05 0.000211429 0)
(-0.000249054 0.000517349 0)
(-0.000509911 0.000912527 0)
(-0.000864635 0.0013734 0)
(-0.0013163 0.00187976 0)
(-0.00186642 0.0024147 0)
(-0.0025153 0.00296422 0)
(-0.00326217 0.00351679 0)
(-0.0041053 0.0040629 0)
(-0.00504202 0.00459478 0)
(-0.00606884 0.00510613 0)
(-0.00718148 0.00559186 0)
(-0.00837508 0.00604789 0)
(-0.00964416 0.00647105 0)
(-0.0109828 0.00685884 0)
(-0.0123848 0.00720942 0)
(-0.0138434 0.00752144 0)
(-0.0153519 0.007794 0)
(-0.0169033 0.00802657 0)
(-0.0184904 0.00821892 0)
(-0.0201062 0.00837111 0)
(-0.0217434 0.0084834 0)
(-0.0233949 0.00855628 0)
(-0.0250536 0.00859036 0)
(-0.0267126 0.00858643 0)
(-0.0283649 0.00854538 0)
(-0.0300039 0.00846819 0)
(-0.0316229 0.00835595 0)
(-0.0332156 0.00820982 0)
(-0.0347759 0.00803101 0)
(-0.0362978 0.0078208 0)
(-0.0377755 0.0075805 0)
(-0.0392036 0.00731147 0)
(-0.0405768 0.0070151 0)
(-0.0418901 0.00669282 0)
(-0.0431389 0.00634607 0)
(-0.0443186 0.00597634 0)
(-0.045425 0.00558511 0)
(-0.0464544 0.00517391 0)
(-0.047403 0.00474428 0)
(-0.0482675 0.00429777 0)
(-0.049045 0.00383596 0)
(-0.0497326 0.00336044 0)
(-0.050328 0.00287282 0)
(-0.0508291 0.00237475 0)
(-0.051234 0.00186787 0)
(-0.0515413 0.00135385 0)
(-0.0517498 0.000834399 0)
(-0.0518586 0.000311219 0)
(-0.0518673 -0.000213952 0)
(-0.0517756 -0.000739361 0)
(-0.0515836 -0.00126323 0)
(-0.051292 -0.00178378 0)
(-0.0509014 -0.00229919 0)
(-0.050413 -0.00280763 0)
(-0.0498284 -0.00330727 0)
(-0.0491494 -0.00379625 0)
(-0.0483781 -0.00427272 0)
(-0.0475171 -0.00473481 0)
(-0.0465694 -0.00518065 0)
(-0.0455381 -0.00560839 0)
(-0.0444268 -0.00601617 0)
(-0.0432394 -0.00640215 0)
(-0.0419802 -0.0067645 0)
(-0.0406538 -0.00710145 0)
(-0.039265 -0.00741124 0)
(-0.037819 -0.00769215 0)
(-0.0363215 -0.00794252 0)
(-0.0347781 -0.00816075 0)
(-0.0331951 -0.00834532 0)
(-0.0315786 -0.00849479 0)
(-0.0299354 -0.00860781 0)
(-0.0282722 -0.00868314 0)
(-0.026596 -0.00871968 0)
(-0.024914 -0.00871644 0)
(-0.0232336 -0.00867261 0)
(-0.0215621 -0.00858754 0)
(-0.0199071 -0.0084608 0)
(-0.018276 -0.00829216 0)
(-0.0166764 -0.00808163 0)
(-0.0151157 -0.00782954 0)
(-0.0136013 -0.0075365 0)
(-0.0121403 -0.00720349 0)
(-0.0107395 -0.00683192 0)
(-0.0094057 -0.00642363 0)
(-0.00814496 -0.00598105 0)
(-0.00696307 -0.00550721 0)
(-0.00586521 -0.00500587 0)
(-0.00485591 -0.00448165 0)
(-0.00393898 -0.00394018 0)
(-0.0031174 -0.00338824 0)
(-0.0023932 -0.00283402 0)
(-0.00176742 -0.00228732 0)
(-0.00124004 -0.00175984 0)
(-0.000809929 -0.00126555 0)
(-0.000474634 -0.000821043 0)
(-0.000230186 -0.000445885 0)
(-7.4245e-05 -0.000163133 0)
(-9.2104e-06 -1.83102e-06 0)
(-1.3227e-05 6.60283e-05 0)
(-9.98497e-05 0.000349704 0)
(-0.00030137 0.000752031 0)
(-0.000609515 0.00124633 0)
(-0.00102292 0.00180838 0)
(-0.00154329 0.00241716 0)
(-0.00217101 0.00305483 0)
(-0.00290529 0.00370642 0)
(-0.00374456 0.00435944 0)
(-0.00468634 0.00500347 0)
(-0.00572735 0.00562993 0)
(-0.00686351 0.00623171 0)
(-0.00809009 0.00680307 0)
(-0.00940172 0.00733935 0)
(-0.0107925 0.00783686 0)
(-0.0122561 0.00829269 0)
(-0.0137858 0.00870465 0)
(-0.0153747 0.00907114 0)
(-0.0170153 0.00939105 0)
(-0.0187004 0.00966369 0)
(-0.0204224 0.00988878 0)
(-0.0221738 0.0100663 0)
(-0.0239468 0.0101966 0)
(-0.025734 0.0102801 0)
(-0.0275278 0.0103175 0)
(-0.0293208 0.0103098 0)
(-0.0311057 0.010258 0)
(-0.0328754 0.0101631 0)
(-0.0346229 0.0100265 0)
(-0.0363414 0.0098496 0)
(-0.0380243 0.0096337 0)
(-0.0396653 0.00938037 0)
(-0.0412584 0.00909114 0)
(-0.0427975 0.00876763 0)
(-0.0442773 0.00841149 0)
(-0.0456922 0.00802441 0)
(-0.0470374 0.00760812 0)
(-0.048308 0.00716438 0)
(-0.0494996 0.00669496 0)
(-0.0506081 0.00620168 0)
(-0.0516295 0.00568638 0)
(-0.0525603 0.00515092 0)
(-0.0533973 0.00459717 0)
(-0.0541376 0.00402706 0)
(-0.0547786 0.0034425 0)
(-0.055318 0.00284546 0)
(-0.055754 0.0022379 0)
(-0.0560849 0.00162184 0)
(-0.0563095 0.000999297 0)
(-0.0564268 0.000372321 0)
(-0.0564364 -0.000257014 0)
(-0.056338 -0.00088661 0)
(-0.0561317 -0.00151435 0)
(-0.0558182 -0.00213809 0)
(-0.0553982 -0.00275567 0)
(-0.054873 -0.0033649 0)
(-0.0542442 -0.0039636 0)
(-0.0535137 -0.00454955 0)
(-0.052684 -0.00512054 0)
(-0.0517577 -0.00567434 0)
(-0.0507378 -0.00620873 0)
(-0.049628 -0.0067215 0)
(-0.0484318 -0.00721042 0)
(-0.0471536 -0.00767333 0)
(-0.0457979 -0.00810805 0)
(-0.0443695 -0.00851247 0)
(-0.0428736 -0.00888449 0)
(-0.0413158 -0.00922208 0)
(-0.039702 -0.00952327 0)
(-0.0380384 -0.00978619 0)
(-0.0363314 -0.010009 0)
(-0.0345878 -0.0101901 0)
(-0.0328147 -0.0103277 0)