/*--------------------------------*- C++ -*----------------------------------*\
  =========                 |
  \\      /  F ield         | OpenFOAM: The Open Source CFD Toolbox
   \\    /   O peration     | Website:  https://openfoam.org
    \\  /    A nd           | Version:  11
     \\/     M anipulation  |
\*---------------------------------------------------------------------------*/
FoamFile
{
    format      ascii;
    class       volVectorField;
    location    "5.3";
    object      U;
}
// * * * * * * * * * * * * * * * * * * * * * * * * * * * * * * * * * * * * * //

dimensions      [0 1 -1 0 0 0 0];

internalField   nonuniform List<vector> 
10100
(
(3.22662e-06 -2.71389e-06 0)
(1.3985e-05 -6.38826e-06 0)
(3.0258e-05 -6.87193e-06 0)
(4.4397e-05 -5.49827e-06 0)
(5.27385e-05 -3.2705e-06 0)
(5.33256e-05 -5.94462e-07 0)
(4.5155e-05 2.27376e-06 0)
(2.77417e-05 5.1968e-06 0)
(9.5834e-07 8.09956e-06 0)
(-3.50735e-05 1.08874e-05 0)
(-8.00595e-05 1.3561e-05 0)
(-0.000133587 1.60728e-05 0)
(-0.00019518 1.84092e-05 0)
(-0.000264276 2.05942e-05 0)
(-0.000340315 2.25891e-05 0)
(-0.0004227 2.43905e-05 0)
(-0.00051078 2.60092e-05 0)
(-0.000603962 2.74365e-05 0)
(-0.000701624 2.86793e-05 0)
(-0.000803122 2.97491e-05 0)
(-0.000907867 3.06405e-05 0)
(-0.00101525 3.13458e-05 0)
(-0.00112468 3.18741e-05 0)
(-0.00123558 3.22349e-05 0)
(-0.00134739 3.2431e-05 0)
(-0.00145956 3.24687e-05 0)
(-0.00157158 3.23592e-05 0)
(-0.00168293 3.21093e-05 0)
(-0.00179313 3.1719e-05 0)
(-0.0019017 3.11946e-05 0)
(-0.00200818 3.05401e-05 0)
(-0.00211215 2.97539e-05 0)
(-0.0022132 2.88439e-05 0)
(-0.00231091 2.78234e-05 0)
(-0.00240493 2.67021e-05 0)
(-0.00249491 2.54822e-05 0)
(-0.0025805 2.41659e-05 0)
(-0.0026614 2.27609e-05 0)
(-0.00273731 2.12738e-05 0)
(-0.00280797 1.97108e-05 0)
(-0.00287314 1.80803e-05 0)
(-0.00293257 1.63899e-05 0)
(-0.00298607 1.46449e-05 0)
(-0.00303345 1.28477e-05 0)
(-0.00307453 1.10009e-05 0)
(-0.00310918 9.11294e-06 0)
(-0.00313726 7.19494e-06 0)
(-0.00315867 5.2523e-06 0)
(-0.00317333 3.28768e-06 0)
(-0.00318118 1.30566e-06 0)
(-0.00318217 -6.87971e-07 0)
(-0.00317627 -2.68533e-06 0)
(-0.0031635 -4.67747e-06 0)
(-0.00314388 -6.65873e-06 0)
(-0.00311746 -8.62502e-06 0)
(-0.0030843 -1.0569e-05 0)
(-0.00304451 -1.24813e-05 0)
(-0.00299821 -1.43553e-05 0)
(-0.00294553 -1.61856e-05 0)
(-0.00288665 -1.79651e-05 0)
(-0.00282177 -1.96856e-05 0)
(-0.00275109 -2.13392e-05 0)
(-0.00267487 -2.29191e-05 0)
(-0.00259337 -2.44177e-05 0)
(-0.00250689 -2.58281e-05 0)
(-0.00241575 -2.71447e-05 0)
(-0.00232028 -2.836e-05 0)
(-0.00222086 -2.94645e-05 0)
(-0.00211789 -3.04494e-05 0)
(-0.00201178 -3.13082e-05 0)
(-0.00190297 -3.20355e-05 0)
(-0.00179194 -3.26238e-05 0)
(-0.00167917 -3.30641e-05 0)
(-0.00156517 -3.33479e-05 0)
(-0.00145049 -3.34686e-05 0)
(-0.00133569 -3.34213e-05 0)
(-0.00122132 -3.32016e-05 0)
(-0.00110799 -3.28041e-05 0)
(-0.000996303 -3.22226e-05 0)
(-0.000886875 -3.14511e-05 0)
(-0.000780337 -3.0487e-05 0)
(-0.000677323 -2.93308e-05 0)
(-0.000578472 -2.79834e-05 0)
(-0.000484424 -2.64433e-05 0)
(-0.000395819 -2.47059e-05 0)
(-0.000313296 -2.27667e-05 0)
(-0.000237488 -2.0625e-05 0)
(-0.000169007 -1.82842e-05 0)
(-0.000108439 -1.57501e-05 0)
(-5.63248e-05 -1.3034e-05 0)
(-1.31453e-05 -1.0154e-05 0)
(2.07039e-05 -7.13532e-06 0)
(4.49488e-05 -4.01731e-06 0)
(5.94949e-05 -8.61467e-07 0)
(6.45165e-05 2.22776e-06 0)
(6.06088e-05 5.0582e-06 0)
(4.89857e-05 7.30038e-06 0)
(3.19122e-05 8.36691e-06 0)
(1.39735e-05 7.23578e-06 0)
(2.81924e-06 2.81133e-06 0)
(8.24627e-06 -1.44809e-05 0)
(3.05036e-05 -2.79275e-05 0)
(5.84083e-05 -2.77496e-05 0)
(7.88151e-05 -1.94426e-05 0)
(8.38656e-05 -6.33156e-06 0)
(6.91181e-05 9.59408e-06 0)
(3.17033e-05 2.7089e-05 0)
(-2.99006e-05 4.52431e-05 0)
(-0.000116324 6.34333e-05 0)
(-0.000227459 8.1281e-05 0)
(-0.00036271 9.8453e-05 0)
(-0.000521163 0.000114766 0)
(-0.000701568 0.000130087 0)
(-0.000902587 0.000144318 0)
(-0.00112269 0.000157401 0)
(-0.00136023 0.000169289 0)
(-0.0016136 0.000179959 0)
(-0.00188108 0.000189389 0)
(-0.00216094 0.000197604 0)
(-0.00245152 0.000204611 0)
(-0.00275109 0.000210418 0)
(-0.00305798 0.000215045 0)
(-0.00337055 0.000218521 0)
(-0.00368718 0.000220872 0)
(-0.0040063 0.000222125 0)
(-0.00432639 0.000222324 0)
(-0.00464595 0.0002215 0)
(-0.00496354 0.000219686 0)
(-0.0052778 0.000216919 0)
(-0.00558739 0.000213241 0)
(-0.00589101 0.000208688 0)
(-0.00618744 0.00020329 0)
(-0.0064755 0.000197087 0)
(-0.0067541 0.000190126 0)
(-0.00702216 0.000182447 0)
(-0.00727868 0.00017409 0)
(-0.00752272 0.000165095 0)
(-0.00775339 0.000155504 0)
(-0.00796985 0.000145359 0)
(-0.00817134 0.000134696 0)
(-0.00835713 0.000123557 0)
(-0.00852659 0.000111988 0)
(-0.00867911 0.000100029 0)
(-0.00881413 8.77168e-05 0)
(-0.0089312 7.50882e-05 0)
(-0.00902989 6.2188e-05 0)
(-0.00910983 4.90623e-05 0)
(-0.00917073 3.57511e-05 0)
(-0.00921235 2.22911e-05 0)
(-0.00923451 8.72431e-06 0)
(-0.00923709 -4.90353e-06 0)
(-0.00922003 -1.85466e-05 0)
(-0.00918336 -3.216e-05 0)
(-0.00912714 -4.56998e-05 0)
(-0.00905153 -5.91213e-05 0)
(-0.00895675 -7.23762e-05 0)
(-0.00884306 -8.54147e-05 0)
(-0.0087108 -9.81886e-05 0)
(-0.00856041 -0.000110651 0)
(-0.00839237 -0.000122754 0)
(-0.00820724 -0.000134449 0)
(-0.00800564 -0.000145683 0)
(-0.00778829 -0.000156406 0)
(-0.00755596 -0.000166568 0)
(-0.00730949 -0.000176121 0)
(-0.00704979 -0.000185018 0)
(-0.00677786 -0.000193209 0)
(-0.00649475 -0.00020064 0)
(-0.00620158 -0.000207262 0)
(-0.00589955 -0.000213029 0)
(-0.00558992 -0.000217895 0)
(-0.00527403 -0.000221812 0)
(-0.00495326 -0.000224732 0)
(-0.00462906 -0.000226612 0)
(-0.00430293 -0.000227412 0)
(-0.00397644 -0.000227095 0)
(-0.00365119 -0.000225628 0)
(-0.00332884 -0.000222979 0)
(-0.00301107 -0.00021912 0)
(-0.00269961 -0.000214029 0)
(-0.00239619 -0.00020769 0)
(-0.00210257 -0.000200095 0)
(-0.00182053 -0.00019124 0)
(-0.0015518 -0.000181125 0)
(-0.00129815 -0.000169754 0)
(-0.00106127 -0.000157141 0)
(-0.000842841 -0.000143316 0)
(-0.000644436 -0.000128329 0)
(-0.000467534 -0.000112256 0)
(-0.00031346 -9.52057e-05 0)
(-0.00018333 -7.73316e-05 0)
(-7.79792e-05 -5.88507e-05 0)
(2.14567e-06 -4.00713e-05 0)
(5.71315e-05 -2.14433e-05 0)
(8.78065e-05 -3.63383e-06 0)
(9.60376e-05 1.23417e-05 0)
(8.50568e-05 2.49447e-05 0)
(6.00044e-05 3.18456e-05 0)
(2.96275e-05 2.95547e-05 0)
(7.27103e-06 1.39723e-05 0)
(9.6968e-06 -3.34276e-05 0)
(3.36167e-05 -5.77035e-05 0)
(5.92899e-05 -5.18963e-05 0)
(7.0447e-05 -2.81493e-05 0)
(5.73345e-05 7.2269e-06 0)
(1.39871e-05 5.01269e-05 0)
(-6.35952e-05 9.73465e-05 0)
(-0.000177849 0.000146676 0)
(-0.000329727 0.000196455 0)
(-0.0005193 0.000245502 0)
(-0.000745857 0.000292982 0)
(-0.00100802 0.00033828 0)
(-0.00130412 0.000380954 0)
(-0.0016321 0.000420702 0)
(-0.00198966 0.000457326 0)
(-0.00237443 0.000490662 0)
(-0.00278382 0.000520628 0)
(-0.00321523 0.000547192 0)
(-0.00366604 0.000570313 0)
(-0.00413356 0.000590029 0)
(-0.00461517 0.000606378 0)
(-0.00510822 0.000619391 0)
(-0.00561013 0.000629142 0)
(-0.00611837 0.000635712 0)
(-0.00663044 0.000639174 0)
(-0.00714391 0.000639621 0)
(-0.00765644 0.000637149 0)
(-0.00816574 0.00063185 0)
(-0.00866962 0.000623828 0)
(-0.00916594 0.000613192 0)
(-0.00965266 0.000600047 0)
(-0.0101278 0.000584502 0)
(-0.0105896 0.000566666 0)
(-0.0110362 0.000546654 0)
(-0.0114658 0.000524578 0)
(-0.011877 0.00050055 0)
(-0.0122681 0.000474691 0)
(-0.0126378 0.000447119 0)
(-0.0129848 0.000417944 0)
(-0.0133077 0.000387281 0)
(-0.0136054 0.000355248 0)
(-0.013877 0.000321963 0)
(-0.0141214 0.000287544 0)
(-0.0143377 0.000252106 0)
(-0.0145252 0.000215765 0)
(-0.0146833 0.000178644 0)
(-0.0148112 0.000140864 0)
(-0.0149086 0.000102544 0)
(-0.0149751 6.38034e-05 0)
(-0.0150104 2.47661e-05 0)
(-0.0150143 -1.44408e-05 0)
(-0.0149866 -5.36862e-05 0)
(-0.0149276 -9.28391e-05 0)
(-0.0148372 -0.000131771 0)
(-0.0147158 -0.000170353 0)
(-0.0145636 -0.000208446 0)
(-0.0143811 -0.000245909 0)
(-0.0141689 -0.000282605 0)
(-0.0139277 -0.000318395 0)
(-0.0136582 -0.000353141 0)
(-0.0133614 -0.000386699 0)
(-0.0130382 -0.000418924 0)
(-0.0126898 -0.000449673 0)
(-0.0123175 -0.000478804 0)
(-0.0119226 -0.000506177 0)
(-0.0115066 -0.000531651 0)
(-0.011071 -0.000555081 0)
(-0.0106176 -0.000576328 0)
(-0.0101481 -0.000595253 0)
(-0.00966451 -0.000611722 0)
(-0.0091688 -0.000625604 0)
(-0.00866309 -0.000636769 0)
(-0.00814959 -0.000645091 0)
(-0.00763059 -0.000650453 0)
(-0.00710849 -0.000652747 0)
(-0.00658576 -0.00065187 0)
(-0.00606494 -0.000647731 0)
(-0.00554862 -0.000640248 0)
(-0.00503946 -0.000629351 0)
(-0.00454016 -0.000614987 0)
(-0.00405344 -0.000597116 0)
(-0.00358206 -0.000575719 0)
(-0.00312875 -0.000550793 0)
(-0.00269625 -0.000522357 0)
(-0.00228723 -0.000490452 0)
(-0.00190432 -0.000455157 0)
(-0.00155001 -0.000416595 0)
(-0.00122666 -0.000374949 0)
(-0.000936436 -0.000330474 0)
(-0.000681238 -0.000283525 0)
(-0.000462608 -0.000234585 0)
(-0.000281628 -0.000184312 0)
(-0.000138761 -0.000133614 0)
(-3.36638e-05 -8.37488e-05 0)
(3.50676e-05 -3.64786e-05 0)
(7.02351e-05 5.71329e-06 0)
(7.63553e-05 3.93443e-05 0)
(6.01187e-05 5.96136e-05 0)
(3.21553e-05 6.0014e-05 0)
(8.45729e-06 3.19951e-05 0)
(8.63806e-06 -5.19023e-05 0)
(2.66338e-05 -8.23459e-05 0)
(3.88489e-05 -6.42669e-05 0)
(2.84527e-05 -1.68782e-05 0)
(-1.48816e-05 5.03614e-05 0)
(-9.78167e-05 0.00013073 0)
(-0.000225087 0.000219096 0)
(-0.000399429 0.000311479 0)
(-0.000622251 0.000404982 0)
(-0.000893619 0.000497388 0)
(-0.00121271 0.000587112 0)
(-0.00157802 0.000672949 0)
(-0.00198737 0.000754014 0)
(-0.00243826 0.00082969 0)
(-0.00292781 0.000899508 0)
(-0.00345293 0.000963174 0)
(-0.00401035 0.00102048 0)
(-0.00459671 0.00107131 0)
(-0.00520855 0.00111562 0)
(-0.00584239 0.00115341 0)
(-0.00649475 0.00118472 0)
(-0.00716218 0.00120964 0)
(-0.00784123 0.00122829 0)
(-0.00852854 0.00124078 0)
(-0.00922081 0.00124728 0)
(-0.00991481 0.00124795 0)
(-0.0106074 0.00124296 0)
(-0.0112955 0.00123249 0)
(-0.0119762 0.00121675 0)
(-0.0126466 0.00119593 0)
(-0.013304 0.00117023 0)
(-0.0139457 0.00113987 0)
(-0.0145693 0.00110507 0)
(-0.0151723 0.00106602 0)
(-0.0157525 0.00102296 0)
(-0.0163077 0.000976101 0)
(-0.0168359 0.000925665 0)
(-0.0173351 0.00087188 0)
(-0.0178035 0.000814971 0)
(-0.0182395 0.000755158 0)
(-0.0186414 0.000692668 0)
(-0.019008 0.000627731 0)
(-0.0193378 0.000560574 0)
(-0.0196298 0.000491424 0)
(-0.0198828 0.000420515 0)
(-0.020096 0.000348082 0)
(-0.0202686 0.000274363 0)
(-0.0203998 0.000199592 0)
(-0.0204893 0.000124005 0)
(-0.0205367 4.78466e-05 0)
(-0.0205416 -2.86294e-05 0)
(-0.020504 -0.000105172 0)
(-0.020424 -0.000181531 0)
(-0.0203017 -0.00025745 0)
(-0.0201374 -0.000332667 0)
(-0.0199316 -0.000406916 0)
(-0.019685 -0.00047993 0)
(-0.0193983 -0.000551438 0)
(-0.0190724 -0.00062117 0)
(-0.0187085 -0.000688851 0)
(-0.0183076 -0.000754203 0)
(-0.0178713 -0.000816947 0)
(-0.0174009 -0.000876806 0)
(-0.0168983 -0.000933504 0)
(-0.0163653 -0.000986765 0)
(-0.0158038 -0.00103631 0)
(-0.0152159 -0.00108188 0)
(-0.014604 -0.00112318 0)
(-0.0139705 -0.00115997 0)
(-0.013318 -0.00119198 0)
(-0.0126491 -0.00121895 0)
(-0.0119667 -0.00124066 0)
(-0.0112738 -0.00125685 0)
(-0.0105733 -0.00126732 0)
(-0.00986865 -0.00127186 0)
(-0.00916297 -0.00127028 0)
(-0.00845968 -0.00126241 0)
(-0.00776224 -0.0012481 0)
(-0.00707416 -0.00122723 0)
(-0.00639902 -0.0011997 0)
(-0.00574041 -0.00116546 0)
(-0.00510195 -0.00112447 0)
(-0.00448723 -0.00107676 0)
(-0.00389981 -0.00102238 0)
(-0.00334319 -0.000961456 0)
(-0.00282071 -0.00089417 0)
(-0.0023356 -0.000820807 0)
(-0.00189084 -0.000741762 0)
(-0.00148914 -0.000657578 0)
(-0.00113283 -0.00056898 0)
(-0.000823771 -0.000476937 0)
(-0.000563204 -0.000382739 0)
(-0.000351593 -0.000288108 0)
(-0.000188411 -0.000195361 0)
(-7.18816e-05 -0.000107619 0)
(1.32746e-06 -2.90817e-05 0)
(3.6399e-05 3.46152e-05 0)
(4.07628e-05 7.60491e-05 0)
(2.56501e-05 8.54962e-05 0)
(7.47629e-06 4.93207e-05 0)
(6.18527e-06 -6.45751e-05 0)
(1.34487e-05 -9.26201e-05 0)
(4.2041e-06 -5.39874e-05 0)
(-3.66479e-05 2.55673e-05 0)
(-0.000119237 0.000133396 0)
(-0.000250344 0.00026038 0)
(-0.000434755 0.000399243 0)
(-0.000675529 0.000544349 0)
(-0.00097397 0.000691325 0)
(-0.00133025 0.000836874 0)
(-0.00174345 0.000978454 0)
(-0.00221178 0.00111418 0)
(-0.00273284 0.00124262 0)
(-0.00330368 0.00136272 0)
(-0.00392094 0.00147371 0)
(-0.00458099 0.00157503 0)
(-0.00527995 0.00166635 0)
(-0.00601379 0.00174741 0)
(-0.00677839 0.00181812 0)
(-0.00756958 0.00187844 0)
(-0.00838312 0.00192842 0)
(-0.00921481 0.00196818 0)
(-0.0100605 0.00199786 0)
(-0.0109161 0.00201765 0)
(-0.0117775 0.0020278 0)
(-0.0126407 0.00202855 0)
(-0.013502 0.00202017 0)
(-0.0143576 0.00200295 0)
(-0.0152038 0.00197721 0)
(-0.0160371 0.00194325 0)
(-0.0168541 0.0019014 0)
(-0.0176516 0.001852 0)
(-0.0184265 0.00179538 0)
(-0.0191758 0.0017319 0)
(-0.0198967 0.0016619 0)
(-0.0205865 0.00158574 0)
(-0.0212426 0.00150377 0)
(-0.0218627 0.00141636 0)
(-0.0224446 0.00132387 0)
(-0.0229861 0.00122666 0)
(-0.0234854 0.0011251 0)
(-0.0239406 0.00101956 0)
(-0.0243502 0.000910405 0)
(-0.0247127 0.000798014 0)
(-0.0250268 0.000682766 0)
(-0.0252913 0.000565043 0)
(-0.0255054 0.000445229 0)
(-0.0256683 0.000323708 0)
(-0.0257792 0.000200875 0)
(-0.0258377 7.71279e-05 0)
(-0.0258435 -4.71278e-05 0)
(-0.0257965 -0.000171485 0)
(-0.0256968 -0.000295531 0)
(-0.0255446 -0.000418846 0)
(-0.0253402 -0.000541005 0)
(-0.0250844 -0.000661576 0)
(-0.0247779 -0.000780128 0)
(-0.0244215 -0.000896222 0)
(-0.0240166 -0.00100942 0)
(-0.0235644 -0.00111926 0)
(-0.0230664 -0.00122532 0)
(-0.0225244 -0.00132713 0)
(-0.0219402 -0.00142424 0)
(-0.021316 -0.00151622 0)
(-0.020654 -0.0016026 0)
(-0.0199567 -0.00168296 0)
(-0.0192267 -0.00175685 0)
(-0.0184669 -0.00182383 0)
(-0.0176802 -0.00188349 0)
(-0.0168699 -0.00193541 0)
(-0.0160392 -0.00197919 0)
(-0.0151917 -0.00201445 0)
(-0.0143309 -0.00204081 0)
(-0.0134608 -0.00205794 0)
(-0.0125852 -0.00206552 0)
(-0.0117081 -0.00206324 0)
(-0.0108336 -0.00205085 0)
(-0.00996613 -0.00202813 0)
(-0.0091098 -0.0019949 0)
(-0.008269 -0.00195101 0)
(-0.00744812 -0.00189639 0)
(-0.00665152 -0.00183102 0)
(-0.00588355 -0.00175496 0)
(-0.00514848 -0.00166833 0)
(-0.00445048 -0.00157137 0)
(-0.00379356 -0.00146442 0)
(-0.00318154 -0.001348 0)
(-0.00261791 -0.00122279 0)
(-0.00210584 -0.00108969 0)
(-0.00164801 -0.000949921 0)
(-0.00124656 -0.000805049 0)
(-0.000902859 -0.000657127 0)
(-0.000617434 -0.000508831 0)
(-0.000389692 -0.000363665 0)
(-0.000217719 -0.000226205 0)
(-9.79955e-05 -0.000102423 0)
(-2.51409e-05 -9.28607e-08 0)
(8.44351e-06 7.08183e-05 0)
(1.36131e-05 9.7461e-05 0)
(5.3564e-06 6.14524e-05 0)
(3.10522e-06 -6.91188e-05 0)
(-3.20763e-06 -8.31598e-05 0)
(-3.90315e-05 -1.42313e-05 0)
(-0.000116663 0.00010668 0)
(-0.00024499 0.000263938 0)
(-0.000430553 0.000446227 0)
(-0.000677999 0.000644236 0)
(-0.000990058 0.000850668 0)
(-0.0013681 0.00105973 0)
(-0.00181205 0.00126689 0)
(-0.00232084 0.00146867 0)
(-0.00289251 0.00166237 0)
(-0.00352431 0.00184594 0)
(-0.00421296 0.00201783 0)
(-0.00495471 0.00217687 0)
(-0.00574542 0.00232223 0)
(-0.00658071 0.00245334 0)
(-0.00745601 0.00256982 0)
(-0.00836657 0.00267145 0)
(-0.0093076 0.00275817 0)
(-0.0102743 0.00283001 0)
(-0.0112617 0.00288708 0)
(-0.012265 0.00292959 0)
(-0.0132796 0.0029578 0)
(-0.0143005 0.00297201 0)
(-0.0153234 0.00297256 0)
(-0.0163435 0.00295985 0)
(-0.0173566 0.00293428 0)
(-0.0183584 0.00289629 0)
(-0.0193448 0.00284631 0)
(-0.0203118 0.00278484 0)
(-0.0212555 0.00271234 0)
(-0.0221724 0.00262931 0)
(-0.0230589 0.00253624 0)
(-0.0239117 0.00243364 0)
(-0.0247277 0.00232204 0)
(-0.0255038 0.00220194 0)
(-0.0262372 0.00207388 0)
(-0.0269253 0.00193837 0)
(-0.0275657 0.00179596 0)
(-0.028156 0.00164718 0)
(-0.0286943 0.00149257 0)
(-0.0291785 0.00133267 0)
(-0.029607 0.00116804 0)
(-0.0299783 0.000999222 0)
(-0.0302909 0.000826783 0)
(-0.0305439 0.000651285 0)
(-0.0307361 0.0004733 0)
(-0.030867 0.000293404 0)
(-0.0309359 0.000112184 0)
(-0.0309425 -6.97692e-05 0)
(-0.0308867 -0.000251857 0)
(-0.0307685 -0.000433472 0)
(-0.0305883 -0.000614002 0)
(-0.0303464 -0.000792822 0)
(-0.0300437 -0.000969303 0)
(-0.029681 -0.00114281 0)
(-0.0292595 -0.0013127 0)
(-0.0287806 -0.00147833 0)
(-0.0282458 -0.00163906 0)
(-0.0276569 -0.00179421 0)
(-0.0270159 -0.00194315 0)
(-0.0263252 -0.00208521 0)
(-0.0255871 -0.00221974 0)
(-0.0248043 -0.0023461 0)
(-0.0239798 -0.00246364 0)
(-0.0231167 -0.00257172 0)
(-0.0222182 -0.00266972 0)
(-0.0212879 -0.00275703 0)
(-0.0203296 -0.00283305 0)
(-0.0193471 -0.0028972 0)
(-0.0183446 -0.00294895 0)
(-0.0173263 -0.00298775 0)
(-0.0162966 -0.00301313 0)
(-0.0152601 -0.00302463 0)
(-0.0142215 -0.00302184 0)
(-0.0131857 -0.0030044 0)
(-0.0121576 -0.002972 0)
(-0.0111421 -0.0029244 0)
(-0.0101442 -0.00286143 0)
(-0.00916913 -0.00278299 0)
(-0.00822183 -0.0026891 0)
(-0.00730732 -0.00257985 0)
(-0.0064305 -0.0024555 0)
(-0.00559613 -0.00231641 0)
(-0.0048088 -0.00216316 0)
(-0.00407281 -0.00199651 0)
(-0.00339213 -0.00181751 0)
(-0.00277031 -0.00162752 0)
(-0.00221038 -0.00142831 0)
(-0.00171469 -0.00122212 0)
(-0.00128484 -0.00101188 0)
(-0.000921448 -0.000801281 0)
(-0.000624023 -0.000595068 0)
(-0.000390718 -0.000399291 0)
(-0.000218125 -0.000221657 0)
(-0.000101035 -7.19691e-05 0)
(-3.21261e-05 3.7451e-05 0)
(-1.65399e-06 9.0943e-05 0)
(2.67915e-06 6.62128e-05 0)
(-2.08215e-07 -6.43515e-05 0)
(-2.15684e-05 -5.08314e-05 0)
(-8.72472e-05 5.94681e-05 0)
(-0.000205702 0.000231485 0)
(-0.00038432 0.000447308 0)
(-0.000628942 0.000693379 0)
(-0.000943647 0.000958759 0)
(-0.00133088 0.00123443 0)
(-0.00179158 0.00151328 0)
(-0.00232548 0.0017896 0)
(-0.00293126 0.00205887 0)
(-0.00360664 0.00231758 0)
(-0.00434862 0.00256301 0)
(-0.00515356 0.00279303 0)
(-0.00601732 0.00300606 0)
(-0.00693537 0.00320095 0)
(-0.00790285 0.00337683 0)
(-0.00891467 0.00353316 0)
(-0.00996561 0.0036696 0)
(-0.0110503 0.00378599 0)
(-0.0121633 0.00388236 0)
(-0.0132993 0.00395881 0)
(-0.0144527 0.00401559 0)
(-0.0156182 0.00405301 0)
(-0.0167906 0.00407145 0)
(-0.0179646 0.00407139 0)
(-0.0191351 0.0040533 0)
(-0.0202972 0.00401772 0)
(-0.021446 0.00396524 0)
(-0.0225769 0.00389646 0)
(-0.0236853 0.003812 0)
(-0.0247669 0.0037125 0)
(-0.0258176 0.00359864 0)
(-0.0268333 0.00347108 0)
(-0.0278103 0.00333052 0)
(-0.028745 0.00317765 0)
(-0.0296339 0.00301317 0)
(-0.0304739 0.00283781 0)
(-0.0312619 0.00265227 0)
(-0.0319952 0.00245729 0)
(-0.0326712 0.00225361 0)
(-0.0332874 0.00204195 0)
(-0.0338418 0.00182306 0)
(-0.0343323 0.0015977 0)
(-0.0347572 0.00136663 0)
(-0.035115 0.00113061 0)
(-0.0354044 0.00089041 0)
(-0.0356244 0.000646821 0)
(-0.035774 0.000400631 0)
(-0.0358526 0.000152644 0)
(-0.03586 -9.6328e-05 0)
(-0.0357959 -0.000345467 0)
(-0.0356603 -0.000593944 0)
(-0.0354538 -0.000840916 0)
(-0.0351767 -0.00108553 0)
(-0.03483 -0.00132693 0)
(-0.0344146 -0.00156424 0)
(-0.0339319 -0.0017966 0)
(-0.0333835 -0.00202311 0)
(-0.0327711 -0.0022429 0)
(-0.0320968 -0.00245507 0)
(-0.0313629 -0.00265872 0)
(-0.0305721 -0.00285298 0)
(-0.029727 -0.00303694 0)
(-0.0288307 -0.00320974 0)
(-0.0278867 -0.00337049 0)
(-0.0268983 -0.00351833 0)
(-0.0258694 -0.00365242 0)
(-0.0248039 -0.00377194 0)
(-0.0237062 -0.00387608 0)
(-0.0225807 -0.00396407 0)
(-0.0214319 -0.00403517 0)
(-0.0202648 -0.00408869 0)
(-0.0190844 -0.00412396 0)
(-0.0178958 -0.0041404 0)
(-0.0167043 -0.00413747 0)
(-0.0155154 -0.00411469 0)
(-0.0143346 -0.00407167 0)
(-0.0131676 -0.00400811 0)
(-0.0120199 -0.0039238 0)
(-0.0108974 -0.00381865 0)
(-0.00980551 -0.00369272 0)
(-0.00874995 -0.00354619 0)
(-0.00773615 -0.00337941 0)
(-0.0067694 -0.00319297 0)
(-0.00585478 -0.00298767 0)
(-0.00499706 -0.0027646 0)
(-0.00420063 -0.00252523 0)
(-0.00346939 -0.00227141 0)
(-0.00280669 -0.00200551 0)
(-0.00221518 -0.00173056 0)
(-0.00169668 -0.00145034 0)
(-0.00125204 -0.00116962 0)
(-0.000880989 -0.000894388 0)
(-0.000581944 -0.000632109 0)
(-0.000351858 -0.000392132 0)
(-0.00018599 -0.000186114 0)
(-7.76388e-05 -2.8455e-05 0)
(-1.86783e-05 6.28252e-05 0)
(-2.39179e-07 6.24548e-05 0)
(-3.54313e-06 -4.97708e-05 0)
(-4.06247e-05 6.21286e-06 0)
(-0.000137929 0.000169861 0)
(-0.000299827 0.000403519 0)
(-0.000531674 0.000687117 0)
(-0.00083848 0.00100559 0)
(-0.00122357 0.0013462 0)
(-0.00168873 0.00169861 0)
(-0.00223446 0.00205435 0)
(-0.00286012 0.00240659 0)
(-0.00356399 0.00274985 0)
(-0.0043435 0.00307977 0)
(-0.00519529 0.0033929 0)
(-0.0061154 0.00368655 0)
(-0.00709929 0.0039587 0)
(-0.00814204 0.00420778 0)
(-0.00923838 0.00443267 0)
(-0.0103828 0.00463261 0)
(-0.0115695 0.00480711 0)
(-0.0127927 0.00495592 0)
(-0.0140465 0.005079 0)
(-0.0153249 0.00517647 0)
(-0.016622 0.00524859 0)
(-0.0179319 0.00529574 0)
(-0.0192486 0.00531838 0)
(-0.0205666 0.00531707 0)
(-0.0218801 0.00529245 0)
(-0.0231837 0.00524517 0)
(-0.0244721 0.00517596 0)
(-0.02574 0.0050856 0)
(-0.0269824 0.00497489 0)
(-0.0281946 0.00484464 0)
(-0.0293718 0.00469571 0)
(-0.0305098 0.00452898 0)
(-0.0316042 0.00434533 0)
(-0.032651 0.00414566 0)
(-0.0336466 0.00393088 0)
(-0.0345872 0.00370192 0)
(-0.0354696 0.00345972 0)
(-0.0362906 0.00320523 0)
(-0.0370473 0.00293939 0)
(-0.0377371 0.00266316 0)
(-0.0383576 0.00237752 0)
(-0.0389066 0.00208346 0)
(-0.0393821 0.00178195 0)
(-0.0397825 0.00147401 0)
(-0.0401063 0.00116063 0)
(-0.0403523 0.000842842 0)
(-0.0405196 0.000521686 0)
(-0.0406075 0.000198205 0)
(-0.0406156 -0.000126546 0)
(-0.0405437 -0.000451497 0)
(-0.0403919 -0.000775563 0)
(-0.0401606 -0.00109765 0)
(-0.0398504 -0.00141664 0)
(-0.0394622 -0.00173142 0)
(-0.0389973 -0.00204086 0)
(-0.038457 -0.00234383 0)
(-0.0378431 -0.00263917 0)
(-0.0371577 -0.00292573 0)
(-0.0364029 -0.00320236 0)
(-0.0355815 -0.00346789 0)
(-0.0346962 -0.00372118 0)
(-0.0337502 -0.00396108 0)
(-0.0327469 -0.00418644 0)
(-0.03169 -0.00439613 0)
(-0.0305833 -0.00458903 0)
(-0.0294311 -0.00476407 0)
(-0.0282379 -0.00492017 0)
(-0.0270083 -0.00505632 0)
(-0.0257473 -0.00517152 0)
(-0.02446 -0.00526481 0)
(-0.0231517 -0.00533532 0)
(-0.0218281 -0.00538222 0)
(-0.0204948 -0.00540475 0)
(-0.0191576 -0.00540224 0)
(-0.0178227 -0.00537409 0)
(-0.0164961 -0.00531983 0)
(-0.015184 -0.0052391 0)
(-0.0138925 -0.00513166 0)
(-0.012628 -0.00499745 0)
(-0.0113967 -0.00483655 0)
(-0.0102045 -0.00464926 0)
(-0.00905756 -0.00443608 0)
(-0.00796158 -0.00419781 0)
(-0.00692211 -0.00393553 0)
(-0.00594435 -0.0036507 0)
(-0.00503308 -0.00334522 0)
(-0.00419257 -0.00302149 0)
(-0.00342651 -0.00268254 0)
(-0.00273785 -0.00233216 0)
(-0.00212873 -0.00197503 0)
(-0.00160032 -0.00161698 0)
(-0.00115271 -0.00126517 0)
(-0.000784748 -0.000928439 0)
(-0.000493941 -0.000617619 0)
(-0.000276249 -0.000346003 0)
(-0.000125845 -0.000129749 0)
(-3.65312e-05 1.1252e-05 0)
(-3.22161e-06 4.96079e-05 0)
(-6.77798e-06 -2.5274e-05 0)
(-5.97885e-05 8.87886e-05 0)
(-0.000189558 0.000318606 0)
(-0.000396285 0.000624801 0)
(-0.000683199 0.00098589 0)
(-0.0010542 0.0013853 0)
(-0.00151173 0.001809 0)
(-0.00205677 0.00224535 0)
(-0.00268924 0.00268469 0)
(-0.00340796 0.00311914 0)
(-0.00421078 0.00354228 0)
(-0.00509475 0.00394893 0)
(-0.00605612 0.00433494 0)
(-0.00709052 0.00469707 0)
(-0.00819308 0.00503275 0)
(-0.00935848 0.00534007 0)
(-0.010581 0.00561759 0)
(-0.0118548 0.00586432 0)
(-0.0131736 0.00607959 0)
(-0.0145311 0.00626305 0)
(-0.015921 0.0064146 0)
(-0.0173369 0.00653434 0)
(-0.0187722 0.00662255 0)
(-0.0202207 0.00667966 0)
(-0.0216759 0.00670623 0)
(-0.0231317 0.00670291 0)
(-0.024582 0.00667045 0)
(-0.0260207 0.00660968 0)
(-0.0274422 0.00652149 0)
(-0.0288406 0.0064068 0)
(-0.0302106 0.00626662 0)
(-0.031547 0.00610196 0)
(-0.0328446 0.00591388 0)
(-0.0340987 0.00570347 0)
(-0.0353045 0.00547182 0)
(-0.0364579 0.00522006 0)
(-0.0375545 0.00494934 0)
(-0.0385906 0.00466081 0)
(-0.0395623 0.00435565 0)
(-0.0404664 0.00403504 0)
(-0.0412997 0.00370017 0)
(-0.0420592 0.00335226 0)
(-0.0427423 0.00299253 0)
(-0.0433467 0.00262221 0)
(-0.0438702 0.00224255 0)
(-0.0443109 0.0018548 0)
(-0.0446673 0.00146024 0)
(-0.0449381 0.00106016 0)
(-0.0451222 0.000655851 0)
(-0.0452189 0.000248638 0)
(-0.0452278 -0.000160152 0)
(-0.0451486 -0.000569174 0)
(-0.0449815 -0.000977061 0)
(-0.0447269 -0.00138244 0)
(-0.0443855 -0.0017839 0)
(-0.0439582 -0.00218006 0)
(-0.0434465 -0.00256949 0)
(-0.0428518 -0.00295077 0)
(-0.0421761 -0.00332245 0)
(-0.0414216 -0.00368308 0)
(-0.0405909 -0.00403123 0)
(-0.0396866 -0.00436544 0)
(-0.038712 -0.00468426 0)
(-0.0376705 -0.00498627 0)
(-0.0365657 -0.00527003 0)
(-0.0354018 -0.00553413 0)
(-0.0341829 -0.00577718 0)
(-0.0329138 -0.00599784 0)
(-0.0315991 -0.00619479 0)
(-0.0302442 -0.00636673 0)
(-0.0288542 -0.00651245 0)
(-0.0274349 -0.00663077 0)
(-0.025992 -0.00672061 0)
(-0.0245316 -0.00678095 0)
(-0.0230599 -0.00681087 0)
(-0.0215833 -0.00680954 0)
(-0.0201083 -0.00677625 0)
(-0.0186415 -0.00671045 0)
(-0.0171896 -0.0066117 0)
(-0.0157594 -0.00647976 0)
(-0.0143575 -0.00631457 0)
(-0.0129907 -0.0061163 0)
(-0.0116656 -0.00588533 0)
(-0.0103885 -0.00562237 0)
(-0.00916578 -0.00532844 0)
(-0.00800335 -0.00500493 0)
(-0.00690681 -0.00465368 0)
(-0.00588136 -0.00427705 0)
(-0.00493163 -0.00387801 0)
(-0.00406167 -0.00346026 0)
(-0.00327482 -0.00302834 0)
(-0.0025736 -0.00258787 0)
(-0.00195958 -0.00214564 0)
(-0.00143333 -0.00170997 0)
(-0.000994261 -0.0012909 0)
(-0.000640612 -0.000900617 0)
(-0.000369203 -0.000553814 0)
(-0.00017525 -0.000268081 0)
(-5.46394e-05 -6.47209e-05 0)
(-6.17493e-06 2.7473e-05 0)
(-9.90795e-06 9.01836e-06 0)
(-7.868e-05 0.000197118 0)
(-0.000241141 0.000506371 0)
(-0.000493322 0.000896497 0)
(-0.000836213 0.001345 0)
(-0.00127258 0.00183412 0)
(-0.00180379 0.00234876 0)
(-0.00242999 0.00287612 0)
(-0.00315031 0.00340554 0)
(-0.00396299 0.00392815 0)
(-0.00486537 0.00443665 0)
(-0.005854 0.0049251 0)
(-0.00692472 0.00538868 0)
(-0.00807276 0.00582355 0)
(-0.00929284 0.00622667 0)
(-0.0105792 0.00659574 0)
(-0.0119259 0.00692899 0)
(-0.0133264 0.00722517 0)
(-0.0147742 0.00748346 0)
(-0.0162626 0.00770339 0)
(-0.0177848 0.00788476 0)
(-0.0193339 0.00802768 0)
(-0.020903 0.00813242 0)
(-0.0224853 0.00819947 0)
(-0.024074 0.00822947 0)
(-0.0256625 0.00822318 0)
(-0.0272441 0.00818148 0)
(-0.0288126 0.00810535 0)
(-0.0303616 0.00799585 0)
(-0.0318851 0.0078541 0)
(-0.0333771 0.00768128 0)
(-0.0348322 0.00747862 0)
(-0.0362447 0.00724741 0)
(-0.0376096 0.00698894 0)
(-0.0389218 0.00670456 0)
(-0.0401767 0.00639564 0)
(-0.0413696 0.00606356 0)
(-0.0424965 0.00570974 0)
(-0.0435534 0.00533561 0)
(-0.0445366 0.00494259 0)
(-0.0454427 0.00453217 0)
(-0.0462686 0.00410581 0)
(-0.0470113 0.00366502 0)
(-0.0476684 0.00321129 0)
(-0.0482375 0.00274614 0)
(-0.0487166 0.00227113 0)
(-0.0491041 0.00178781 0)
(-0.0493984 0.00129775 0)
(-0.0495987 0.000802543 0)
(-0.0497039 0.0003038 0)
(-0.0497136 -0.000196853 0)
(-0.0496277 -0.000697766 0)
(-0.0494462 -0.00119727 0)
(-0.0491697 -0.00169368 0)
(-0.0487987 -0.00218531 0)
(-0.0483345 -0.00267042 0)
(-0.0477785 -0.0031473 0)
(-0.0471323 -0.00361419 0)
(-0.046398 -0.00406935 0)
(-0.0455781 -0.004511 0)
(-0.0446751 -0.00493739 0)
(-0.0436922 -0.00534675 0)
(-0.0426328 -0.00573733 0)
(-0.0415004 -0.00610737 0)
(-0.0402992 -0.00645514 0)
(-0.0390334 -0.00677892 0)
(-0.0377076 -0.00707705 0)
(-0.0363269 -0.00734787 0)
(-0.0348964 -0.0075898 0)
(-0.0334217 -0.00780127 0)
(-0.0319084 -0.00798081 0)
(-0.0303627 -0.00812702 0)
(-0.0287908 -0.00823859 0)
(-0.0271991 -0.0083143 0)
(-0.0255944 -0.00835305 0)
(-0.0239835 -0.00835386 0)
(-0.0223733 -0.0083159 0)
(-0.0207711 -0.00823852 0)
(-0.0191838 -0.00812124 0)
(-0.0176188 -0.0079638 0)
(-0.0160833 -0.00776615 0)
(-0.0145844 -0.00752853 0)
(-0.0131291 -0.00725148 0)
(-0.0117243 -0.00693588 0)
(-0.0103767 -0.00658298 0)
(-0.00909274 -0.00619452 0)
(-0.00787837 -0.00577272 0)
(-0.00673919 -0.00532043 0)
(-0.00568024 -0.00484119 0)
(-0.00470599 -0.00433934 0)
(-0.00382017 -0.00382022 0)
(-0.00302577 -0.00329026 0)
(-0.00232485 -0.00275724 0)
(-0.00171856 -0.00223049 0)
(-0.00120699 -0.00172118 0)
(-0.000789232 -0.00124265 0)
(-0.000463076 -0.000810767 0)
(-0.000224877 -0.000444254 0)
(-7.26522e-05 -0.000165436 0)
(-9.05114e-06 -3.93113e-06 0)
(-1.28777e-05 5.28696e-05 0)
(-9.71498e-05 0.000331041 0)
(-0.000292085 0.000733238 0)
(-0.000589749 0.00121903 0)
(-0.000988942 0.0017651 0)
(-0.00149118 0.00235292 0)
(-0.00209673 0.0029664 0)
(-0.00280476 0.00359186 0)
(-0.0036136 0.0042177 0)
(-0.0045208 0.00483422 0)
(-0.00552307 0.0054333 0)
(-0.00661646 0.00600828 0)
(-0.00779633 0.00655371 0)
(-0.00905745 0.0070652 0)
(-0.0103941 0.00753924 0)
(-0.0118002 0.00797311 0)
(-0.0132692 0.00836475 0)
(-0.0147944 0.00871267 0)
(-0.0163688 0.00901583 0)
(-0.0179853 0.00927365 0)
(-0.0196366 0.00948588 0)
(-0.0213155 0.00965255 0)
(-0.0230146 0.00977399 0)
(-0.0247268 0.00985071 0)
(-0.0264448 0.00988345 0)
(-0.0281616 0.00987306 0)
(-0.0298701 0.00982059 0)
(-0.0315637 0.00972714 0)
(-0.0332355 0.00959396 0)
(-0.0348793 0.00942237 0)
(-0.0364887 0.00921376 0)
(-0.0380577 0.00896957 0)
(-0.0395806 0.00869132 0)
(-0.0410517 0.00838056 0)
(-0.0424658 0.00803887 0)
(-0.0438178 0.00766788 0)
(-0.045103 0.00726924 0)
(-0.0463169 0.00684463 0)
(-0.0474552 0.00639575 0)
(-0.048514 0.00592433 0)
(-0.0494897 0.0054321 0)
(-0.050379 0.00492084 0)
(-0.0511787 0.00439233 0)
(-0.0518861 0.00384837 0)
(-0.0524989 0.00329078 0)
(-0.0530148 0.0027214 0)
(-0.053432 0.00214211 0)
(-0.0537491 0.00155477 0)
(-0.0539648 0.000961297 0)
(-0.0540783 0.000363612 0)
(-0.0540891 -0.000236337 0)
(-0.0539969 -0.000836576 0)
(-0.0538019 -0.00143511 0)
(-0.0535046 -0.00202994 0)
(-0.0531057 -0.00261902 0)
(-0.0526065 -0.00320031 0)
(-0.0520084 -0.00377174 0)
(-0.0513132 -0.00433123 0)
(-0.0505233 -0.00487667 0)
(-0.049641 -0.00540598 0)
(-0.0486693 -0.00591706 0)
(-0.0476115 -0.00640779 0)
(-0.0464711 -0.00687609 0)
(-0.045252 -0.00731987 0)
(-0.0439586 -0.00773707 0)
(-0.0425954 -0.00812566 0)
(-0.0411674 -0.00848364 0)
(-0.0396798 -0.00880907 0)
(-0.0381382 -0.00910005 0)
(-0.0365485 -0.00935475 0)
(-0.0349167 -0.00957143 0)