/*--------------------------------*- C++ -*----------------------------------*\
  =========                 |
  \\      /  F ield         | OpenFOAM: The Open Source CFD Toolbox
   \\    /   O peration     | Website:  https://openfoam.org
    \\  /    A nd           | Version:  11
     \\/     M anipulation  |
\*---------------------------------------------------------------------------*/
FoamFile
{
    format      ascii;
    class       volScalarField;
    location    "5.8";
    object      p;
}
// * * * * * * * * * * * * * * * * * * * * * * * * * * * * * * * * * * * * * //

dimensions      [0 2 -2 0 0 0 0];

internalField   nonuniform List<scalar> 
10100
(
2.12256e-07
-5.61494e-05
-0.000469571
-0.00120643
-0.00219434
-0.00339685
-0.00476743
-0.00625808
-0.0078254
-0.00942947
-0.0110361
-0.0126153
-0.0141407
-0.0155891
-0.0169406
-0.0181789
-0.0192904
-0.020263
-0.0210856
-0.0217491
-0.0222465
-0.0225727
-0.0227234
-0.0226955
-0.0224875
-0.0220992
-0.0215315
-0.0207857
-0.0198638
-0.0187684
-0.0175028
-0.0160712
-0.0144786
-0.0127304
-0.0108325
-0.00879147
-0.00661404
-0.00430738
-0.00187891
0.000663393
0.00331102
0.00605531
0.00888772
0.0117997
0.0147823
0.0178256
0.0209194
0.0240532
0.0272172
0.0304014
0.033596
0.0367906
0.0399744
0.0431364
0.0462659
0.0493522
0.052385
0.0553542
0.0582494
0.0610601
0.0637761
0.0663874
0.0688848
0.0712594
0.0735028
0.0756064
0.0775621
0.079362
0.0809992
0.0824678
0.0837631
0.0848807
0.085817
0.0865691
0.0871347
0.0875128
0.0877036
0.0877086
0.0875308
0.0871748
0.0866461
0.085952
0.0851009
0.0841026
0.0829689
0.0817133
0.0803522
0.0789042
0.0773913
0.0758385
0.0742741
0.0727301
0.0712425
0.069852
0.0686037
0.0675472
0.0667332
0.0662106
0.066021
0.0661175
-0.000217218
-0.000272403
-0.000642825
-0.00128733
-0.00214762
-0.00319
-0.00437872
-0.0056763
-0.00704605
-0.00845447
-0.00987055
-0.0112672
-0.0126206
-0.0139092
-0.015114
-0.0162187
-0.0172097
-0.0180752
-0.0188045
-0.0193887
-0.0198206
-0.0200945
-0.020206
-0.0201518
-0.01993
-0.0195399
-0.0189819
-0.0182571
-0.0173672
-0.0163147
-0.0151022
-0.0137331
-0.0122118
-0.0105434
-0.00873361
-0.00678856
-0.00471452
-0.00251803
-0.000206036
0.00221386
0.00473349
0.00734468
0.0100395
0.01281
0.0156475
0.0185424
0.0214849
0.0244651
0.0274737
0.0305016
0.0335392
0.0365765
0.0396033
0.042609
0.0455834
0.0485168
0.0513993
0.0542214
0.0569732
0.0596446
0.062226
0.0647081
0.0670823
0.0693406
0.0714749
0.0734772
0.0753397
0.0770551
0.0786172
0.0800208
0.0812615
0.0823357
0.0832402
0.0839724
0.0845303
0.0849133
0.0851219
0.085158
0.0850249
0.0847271
0.0842707
0.0836628
0.0829116
0.0820269
0.08102
0.0799042
0.078695
0.0774105
0.0760713
0.0747009
0.0733253
0.0719733
0.0706768
0.0694706
0.0683922
0.0674807
0.0667732
0.0663038
0.0661169
0.0662137
-0.000200917
-0.000227665
-0.000550877
-0.00113217
-0.00190868
-0.00284664
-0.00391468
-0.00508031
-0.00631193
-0.0075804
-0.00885797
-0.0101197
-0.0113438
-0.0125109
-0.0136034
-0.0146051
-0.0155027
-0.0162846
-0.0169407
-0.0174623
-0.0178422
-0.0180745
-0.0181546
-0.0180791
-0.0178463
-0.0174549
-0.0169049
-0.016197
-0.0153328
-0.0143146
-0.0131449
-0.0118264
-0.010363
-0.00875964
-0.00702169
-0.00515488
-0.00316502
-0.00105826
0.0011587
0.0034785
0.00589335
0.00839564
0.010978
0.0136328
0.0163516
0.0191251
0.0219437
0.0247981
0.0276798
0.03058
0.0334894
0.0363983
0.0392968
0.0421749
0.045023
0.0478318
0.0505921
0.0532947
0.0559298
0.058488
0.0609601
0.0633374
0.065612
0.0677763
0.0698224
0.0717428
0.0735299
0.0751771
0.0766786
0.0780298
0.0792268
0.0802663
0.0811452
0.0818613
0.0824129
0.0827996
0.0830221
0.0830825
0.0829843
0.0827322
0.0823322
0.0817912
0.0811175
0.0803203
0.0794107
0.0784014
0.0773073
0.0761453
0.0749351
0.0736982
0.0724586
0.0712422
0.0700775
0.0689946
0.0680255
0.0672028
0.0665565
0.0661155
0.0659293
0.0660249
0.000162362
0.000109431
-0.000211689
-0.000766
-0.0014977
-0.00237393
-0.00336595
-0.00444405
-0.00558072
-0.00674994
-0.00792709
-0.00908928
-0.010216
-0.0112898
-0.0122947
-0.0132156
-0.0140395
-0.0147549
-0.0153523
-0.0158234
-0.0161612
-0.0163596
-0.0164138
-0.016321
-0.016079
-0.0156867
-0.0151437
-0.0144504
-0.0136081
-0.0126188
-0.0114848
-0.0102087
-0.00879427
-0.00724614
-0.00556931
-0.00376889
-0.00185036
0.000180271
0.00231638
0.00455085
0.00687643
0.00928609
0.0117729
0.0143293
0.016947
0.0196169
0.0223298
0.0250772
0.0278509
0.0306426
0.0334431
0.0362429
0.0390323
0.041802
0.0445429
0.0472463
0.0499032
0.0525046
0.0550411
0.0575035
0.0598833
0.0621724
0.0643632
0.0664484
0.0684204
0.0702719
0.0719957
0.0735856
0.0750364
0.0763439
0.0775043
0.0785147
0.0793722
0.0800746
0.0806206
0.0810098
0.0812432
0.0813231
0.0812528
0.0810371
0.0806819
0.080194
0.0795813
0.0788528
0.0780189
0.0770919
0.0760857
0.0750163
0.073902
0.0727626
0.07162
0.0704978
0.0694211
0.0684166
0.0675121
0.0667357
0.0661137
0.0656726
0.0654595
0.0655048
0.000851754
0.000703087
0.000337284
-0.000224274
-0.000940988
-0.00178347
-0.00272595
-0.00374257
-0.00480876
-0.00590137
-0.00699888
-0.00808075
-0.0091281
-0.0101245
-0.0110553
-0.011907
-0.0126673
-0.0133252
-0.0138716
-0.0142986
-0.0145991
-0.0147674
-0.0147991
-0.0146911
-0.0144413
-0.0140483
-0.0135118
-0.0128321
-0.0120104
-0.011048
-0.00994685
-0.00870987
-0.00734077
-0.00584392
-0.00422373
-0.00248484
-0.000632462
0.00132742
0.00338827
0.00554332
0.00778593
0.0101096
0.0125075
0.0149724
0.0174959
0.0200692
0.0226839
0.025332
0.0280055
0.0306964
0.0333956
0.0360939
0.0387822
0.0414514
0.0440932
0.046699
0.0492603
0.051768
0.0542133
0.0565874
0.0588821
0.0610899
0.0632037
0.0652161
0.0671198
0.0689078
0.0705734
0.0721108
0.0735151
0.0747824
0.0759094
0.0768929
0.0777305
0.0784199
0.0789602
0.0793511
0.0795936
0.0796901
0.0796439
0.0794598
0.0791435
0.0787014
0.0781412
0.0774712
0.0767016
0.0758439
0.0749111
0.0739181
0.0728816
0.0718199
0.0707528
0.0697015
0.0686883
0.0677365
0.0668702
0.0661138
0.0654904
0.0650239
0.0647508
0.0646941
0.00180069
0.00151472
0.00106992
0.000472136
-0.000256766
-0.00109102
-0.00200827
-0.00298724
-0.00400562
-0.00504273
-0.0060799
-0.00709918
-0.00808375
-0.00901805
-0.00988832
-0.0106825
-0.0113894
-0.0119989
-0.012502
-0.0128911
-0.0131595
-0.0133019
-0.0133144
-0.0131937
-0.0129374
-0.0125443
-0.0120141
-0.0113471
-0.0105442
-0.00960648
-0.00853576
-0.00733492
-0.00600763
-0.00455787
-0.00298961
-0.00130717
0.000484306
0.00237888
0.00437025
0.00645216
0.00861847
0.010863
0.0131792
0.0155595
0.0179959
0.0204802
0.0230045
0.0255612
0.0281426
0.0307407
0.0333467
0.0359517
0.0385469
0.041124
0.0436749
0.0461913
0.0486649
0.0510869
0.0534486
0.0557418
0.0579589
0.0600926
0.062136
0.064082
0.0659236
0.0676537
0.0692663
0.0707558
0.0721179
0.0733486
0.0744449
0.0754039
0.0762229
0.0769002
0.0774346
0.0778262
0.078076
0.0781862
0.0781604
0.0780031
0.0777196
0.0773162
0.0767999
0.0761788
0.0754623
0.0746612
0.0737878
0.0728556
0.07188
0.0708775
0.0698659
0.0688643
0.0678924
0.0669704
0.066119
0.0653591
0.0647111
0.0641962
0.0638356
0.0636393
0.00295354
0.00250461
0.00195646
0.00129911
0.000534887
-0.000314287
-0.00122894
-0.00219122
-0.0031825
-0.00418424
-0.00517968
-0.00615339
-0.00709048
-0.00797682
-0.00879981
-0.0095483
-0.0102121
-0.010782
-0.0112494
-0.011607
-0.0118488
-0.0119699
-0.0119664
-0.0118352
-0.0115741
-0.0111818
-0.010658
-0.0100029
-0.00921706
-0.00830167
-0.00725872
-0.00609099
-0.00480186
-0.00339483
-0.00187356
-0.000242321
0.00149371
0.00332871
0.00525681
0.00727229
0.00936941
0.0115421
0.0137837
0.016087
0.0184441
0.0208475
0.0232897
0.0257634
0.0282612
0.0307749
0.0332962
0.0358165
0.0383274
0.040821
0.0432897
0.0457253
0.0481196
0.0504639
0.0527502
0.0549704
0.0571175
0.0591845
0.0611646
0.0630509
0.0648365
0.0665146
0.0680795
0.0695261
0.0708502
0.0720481
0.0731168
0.0740534
0.0748554
0.0755212
0.0760496
0.0764409
0.076696
0.0768173
0.0768082
0.0766728
0.0764162
0.0760442
0.0755634
0.0749815
0.0743072
0.0735506
0.0727228
0.0718365
0.0709054
0.0699445
0.0689699
0.0679985
0.0670474
0.0661343
0.0652768
0.0644926
0.0637998
0.0632168
0.0627477
0.0623875
0.00426171
0.00363372
0.00296518
0.00223072
0.00141241
0.000528575
-0.000402783
-0.00136658
-0.00234825
-0.00333202
-0.0043025
-0.00524593
-0.00614931
-0.0070004
-0.00778799
-0.00850166
-0.0091319
-0.00967017
-0.0101088
-0.0104412
-0.0106617
-0.0107657
-0.0107495
-0.01061
-0.0103455
-0.0099548
-0.00943751
-0.00879352
-0.00802335
-0.00712839
-0.00611081
-0.00497325
-0.00371865
-0.00235013
-0.000871273
0.000713575
0.00239928
0.0041803
0.00605121
0.00800676
0.0100414
0.0121491
0.0143232
0.0165565
0.018842
0.0211723
0.0235404
0.0259392
0.0283613
0.0307989
0.0332437
0.0356875
0.0381225
0.0405411
0.0429358
0.0452987
0.0476216
0.0498962
0.0521146
0.0542695
0.0563539
0.0583612
0.0602847
0.0621175
0.0638529
0.0654846
0.0670069
0.0684152
0.0697054
0.0708739
0.0719178
0.0728342
0.0736207
0.0742757
0.0747981
0.0751881
0.0754469
0.0755768
0.0755808
0.0754629
0.0752277
0.0748804
0.0744273
0.0738756
0.0732334
0.07251
0.0717156
0.0708615
0.0699603
0.0690255
0.0680715
0.0671131
0.0661652
0.0652431
0.0643616
0.0635356
0.0627813
0.0621148
0.0615219
0.0609828
0.00568201
0.00486693
0.00406641
0.00324101
0.00235385
0.00142011
0.000456074
-0.000525744
-0.00151314
-0.00249337
-0.00345318
-0.00437995
-0.00526223
-0.0060897
-0.00685244
-0.00754079
-0.00814593
-0.00866015
-0.00907668
-0.00938953
-0.00959358
-0.00968437
-0.00965835
-0.00951296
-0.00924658
-0.00885822
-0.00834728
-0.00771363
-0.00695796
-0.00608186
-0.00508746
-0.00397713
-0.00275347
-0.00141949
2.11769e-05
0.00156412
0.00320439
0.00493686
0.00675654
0.00865841
0.010637
0.0126861
0.0147993
0.0169698
0.0191908
0.0214556
0.0237573
0.026089
0.0284433
0.0308125
0.0331887
0.035564
0.0379312
0.0402828
0.0426114
0.0449094
0.0471685
0.0493808
0.0515387
0.0536354
0.0556641
0.0576183
0.0594915
0.0612769
0.0629678
0.0645582
0.0660428
0.0674171
0.0686772
0.0698197
0.0708416
0.0717399
0.0725124
0.0731572
0.0736736
0.0740617
0.0743227
0.0744587
0.0744727
0.0743681
0.074149
0.0738204
0.0733878
0.0728581
0.0722389
0.0715385
0.0707662
0.0699323
0.0690481
0.0681257
0.0671779
0.0662176
0.0652578
0.0643114
0.063391
0.0625088
0.0616798
0.0609178
0.0601909
0.0594647
0.00717847
0.0061723
0.00523248
0.00430611
0.00333874
0.00234285
0.00133295
0.000319472
-0.000687281
-0.00167674
-0.00263792
-0.00355984
-0.0044326
-0.00524711
-0.00599433
-0.00666565
-0.00725335
-0.00775061
-0.00815129
-0.00844989
-0.00864168
-0.00872264
-0.0086897
-0.00854065
-0.00827391
-0.00788842
-0.00738362
-0.00675967
-0.00601751
-0.00515874
-0.00418529
-0.00309927
-0.00190314
-0.000599993
0.00080643
0.00231179
0.00391145
0.00560073
0.00737494
0.00922907
0.0111576
0.0131544
0.0152133
0.0173277
0.0194916
0.0216982
0.0239409
0.0262128
0.0285068
0.0308152
0.0331304
0.0354452
0.0377523
0.0400447
0.0423149
0.0445554
0.0467581
0.0489153
0.05102
0.0530654
0.0550451
0.0569527
0.0587816
0.0605252
0.062177
0.0637312
0.0651828
0.0665274
0.0677613
0.0688809
0.0698834
0.0707658
0.0715256
0.0721612
0.0726716
0.0730572
0.0733191
0.0734593
0.0734803
0.073385
0.0731773
0.0728615
0.072443
0.0719279
0.0713232
0.0706365
0.0698763
0.0690519
0.0681732
0.0672512
0.066297
0.0653219
0.0643371
0.0633536
0.0623818
0.0614319
0.0605176
0.0596513
0.0587839
0.057867
0.00871921
0.0075219
0.00643896
0.00540423
0.00434743
0.00327971
0.00221341
0.00115717
0.00011951
-0.000890408
-0.00186352
-0.00279105
-0.00366445
-0.00447519
-0.00521515
-0.00587709
-0.00645448
-0.00694119
-0.00733156
-0.00762058
-0.00780399
-0.00787842
-0.00784124
-0.00769044
-0.00742446
-0.00704228
-0.0065436
-0.00592888
-0.00519925
-0.00435618
-0.00340134
-0.00233677
-0.00116502
0.000110709
0.00148666
0.00295871
0.00452259
0.00617393
0.00790815
0.00972019
0.0116044
0.013555
0.0155659
0.0176311
0.0197446
0.0219002
0.0240911
0.0263105
0.0285513
0.0308063
0.0330682
0.0353299
0.0375846
0.0398252
0.0420444
0.0442346
0.046388
0.0484973
0.0505556
0.0525566
0.0544938
0.056361
0.0581516
0.0598589
0.0614769
0.0629999
0.064423
0.0657421
0.0669534
0.0680534
0.0690392
0.0699077
0.0706564
0.0712835
0.0717883
0.072171
0.0724328
0.0725752
0.0726003
0.0725109
0.0723101
0.0720021
0.0715917
0.0710844
0.0704867
0.0698055
0.0690484
0.0682238
0.0673407
0.0664085
0.0654369
0.0644359
0.063415
0.0623835
0.0613501
0.0603231
0.0593155
0.0583386
0.0573267
0.0562187
0.0102778
0.0088907
0.00766293
0.00651542
0.00536223
0.00421452
0.00308342
0.00197531
0.000897441
-0.000142533
-0.0011373
-0.00207969
-0.00296206
-0.00377678
-0.00451705
-0.00517685
-0.0057504
-0.0062321
-0.0066169
-0.00690049
-0.00707927
-0.00715033
-0.00711128
-0.00696024
-0.00669586
-0.00631742
-0.00582495
-0.00521909
-0.0045009
-0.00367171
-0.00273315
-0.00168735
-0.000537044
0.000714508
0.0020637
0.00350671
0.00503958
0.00665805
0.00835748
0.0101327
0.0119783
0.0138885
0.0158577
0.0178803
0.0199503
0.0220616
0.0242075
0.0263813
0.0285761
0.0307848
0.0330007
0.0352168
0.0374264
0.0396225
0.0417977
0.0439446
0.0460558
0.0481241
0.050143
0.0521061
0.0540073
0.05584
0.057598
0.0592747
0.0608641
0.0623607
0.0637598
0.0650575
0.0662498
0.0673335
0.0683053
0.069162
0.0699011
0.0705208
0.0710203
0.0714
0.0716606
0.0718035
0.0718305
0.0717437
0.071546
0.0712412
0.0708335
0.070328
0.0697305
0.0690474
0.0682855
0.0674523
0.0665558
0.0656042
0.064606
0.0635695
0.062503
0.0614145
0.0603111
0.0591997
0.0580927
0.0570006
0.0558424
0.0545446
0.0118322
0.0102568
0.00888373
0.00762096
0.00636671
0.00513225
0.00392941
0.00276229
0.00163646
0.000558059
-0.000466786
-0.00143168
-0.00233004
-0.00315575
-0.00390329
-0.00456731
-0.00514253
-0.00562402
-0.00600756
-0.00628963
-0.0064672
-0.00653759
-0.00649859
-0.00634861
-0.00608668
-0.00571249
-0.00522626
-0.00462865
-0.00392062
-0.00310348
-0.00217898
-0.00114948
-1.78447e-05
0.00121276
0.00253898
0.00395724
0.00546371
0.0070541
0.00872368
0.0104673
0.0122796
0.0141553
0.0160891
0.0180753
0.0201084
0.0221819
0.0242895
0.0264244
0.02858
0.0307496
0.0329266
0.0351042
0.0372758
0.0394343
0.0415725
0.0436831
0.0457589
0.0477931
0.0497792
0.051711
0.0535822
0.0553866
0.0571177
0.0587691
0.0603351
0.0618102
0.0631899
0.0644702
0.0656474
0.0667178
0.0676782
0.0685252
0.0692564
0.0698698
0.0703648
0.0707413
0.0710001
0.0711422
0.0711688
0.0710819
0.070884
0.0705783
0.0701685
0.0696595
0.0690563
0.0683648
0.0675912
0.066742
0.0658243
0.0648453
0.0638123
0.0627323
0.0616123
0.0604593
0.0592791
0.0580774
0.0568663
0.0556563
0.0543512
0.052866
0.0133634
0.0116018
0.010083
0.00870312
0.00734493
0.00601934
0.00473885
0.0035066
0.00232615
0.00120244
0.000140893
-0.000852905
-0.00177374
-0.00261691
-0.00337768
-0.00405116
-0.00463272
-0.00511838
-0.00550477
-0.00578892
-0.00596811
-0.00603994
-0.00600261
-0.00585494
-0.00559638
-0.00522687
-0.00474668
-0.00415643
-0.00345713
-0.00265025
-0.0017378
-0.000722287
0.000393475
0.00160648
0.00291357
0.00431129
0.00579577
0.00736263
0.00900709
0.0107241
0.0125087
0.0143557
0.01626
0.0182162
0.0202184
0.0222606
0.0243362
0.0264389
0.0285621
0.0306994
0.0328444
0.0349904
0.0371308
0.0392586
0.0413665
0.0434476
0.0454949
0.0475016
0.0494614
0.0513682
0.0532158
0.0549976
0.0567075
0.0583391
0.0598868
0.0613452
0.0627101
0.0639772
0.0651428
0.0662032
0.0671549
0.0679946
0.0687195
0.069328
0.0698191
0.0701927
0.0704492
0.0705893
0.070614
0.0705248
0.0703237
0.0700136
0.0695977
0.0690804
0.0684664
0.0677608
0.0669694
0.0660978
0.0651522
0.0641389
0.063064
0.0619336
0.0607537
0.0595299
0.0582674
0.0569708
0.0556524
0.0543224
0.0528708
0.0512011
0.0148545
0.0129093
0.0112447
0.00974638
0.00828213
0.00686253
0.00549991
0.00419713
0.00295659
0.00178223
0.000678615
-0.000349801
-0.00129905
-0.00216522
-0.00294408
-0.0036314
-0.00422354
-0.00471747
-0.00511039
-0.00539961
-0.0055827
-0.00565779
-0.0056236
-0.00547944
-0.00522502
-0.00486034
-0.00438566
-0.00380172
-0.00310976
-0.00231149
-0.00140913
-0.000405206
0.000697602
0.00189646
0.00318826
0.00456947
0.00603615
0.00758386
0.0092079
0.0109035
0.0126657
0.0144897
0.0163705
0.0183024
0.0202799
0.0222968
0.0243468
0.0264236
0.0285211
0.0306329
0.0327527
0.0348738
0.0369897
0.0390933
0.0411777
0.043236
0.0452613
0.0472471
0.0491871
0.0510752
0.052905
0.0546701
0.0563644
0.0579816
0.0595162
0.060963
0.0623174
0.0635755
0.0647333
0.0657869
0.0667327
0.0675674
0.0682881
0.068893
0.0693812
0.0697523
0.0700064
0.0701438
0.0701653
0.0700719
0.0698652
0.0695477
0.0691222
0.0685926
0.0679632
0.0672388
0.0664242
0.0655247
0.0645454
0.0634918
0.0623692
0.0611825
0.0599369
0.0586374
0.0572882
0.0558932
0.054465
0.0530139
0.0514164
0.0495654
0.0162897
0.0141644
0.012355
0.0107371
0.00916503
0.00764884
0.00620104
0.00482356
0.00351853
0.00228912
0.00113871
7.05918e-05
-0.000911989
-0.00180558
-0.0026066
-0.00331182
-0.00391853
-0.00442428
-0.00482665
-0.00512328
-0.00531225
-0.0053923
-0.00536269
-0.00522301
-0.00497308
-0.00461294
-0.00414304
-0.00356434
-0.00287841
-0.00208714
-0.00119282
-0.000197891
0.000895056
0.00208323
0.00336344
0.00473203
0.00618497
0.00771788
0.00932623
0.0110054
0.0127507
0.0145573
0.0164202
0.0183338
0.0202923
0.0222899
0.0243205
0.026378
0.0284562
0.0305491
0.0326502
0.034753
0.0368508
0.0389368
0.0410042
0.0430462
0.0450561
0.0470275
0.0489539
0.0508293
0.0526473
0.0544016
0.0560858
0.0576941
0.0592208
0.0606607
0.0620094
0.0632627
0.0644164
0.0654665
0.0664094
0.0672415
0.0679601
0.0685632
0.0690496
0.0694188
0.0696707
0.0698051
0.0698224
0.0697232
0.069509
0.0691816
0.0687436
0.0681983
0.0675498
0.0668022
0.06596
0.0650277
0.0640098
0.0629108
0.0617351
0.0604872
0.0591713
0.0577919
0.0563525
0.0548564
0.0533165
0.0517436
0.0500013
0.047972
0.0176546
0.0153531
0.0134005
0.0116627
0.00998143
0.00836656
0.00683103
0.00537591
0.00400292
0.00271453
0.00151312
0.000401144
-0.000618635
-0.00154329
-0.00237016
-0.00309701
-0.00372172
-0.00424215
-0.00465623
-0.00496219
-0.00515884
-0.00524544
-0.00522156
-0.00508689
-0.00484135
-0.00448523
-0.00401928
-0.00344481
-0.00276357
-0.00197755
-0.00108896
-0.000100233
0.000986029
0.00216693
0.00343913
0.00479886
0.00624212
0.00776468
0.00936216
0.0110301
0.0127638
0.0145585
0.0164089
0.0183097
0.0202552
0.0222396
0.024257
0.0263014
0.0283669
0.0304472
0.0325359
0.0346267
0.0367129
0.0387878
0.0408447
0.0428769
0.0448778
0.046841
0.0487601
0.0506288
0.0524408
0.0541898
0.0558696
0.0574743
0.0589983
0.0604364
0.0617839
0.0630366
0.06419
0.0652402
0.0661831
0.0670155
0.0677342
0.0683373
0.0688234
0.0691917
0.0694417
0.069573
0.0695854
0.0694795
0.069256
0.0689167
0.0684637
0.0679001
0.0672292
0.0664549
0.0655812
0.0646119
0.0635509
0.0624021
0.0611691
0.0598557
0.0584656
0.0570028
0.0554703
0.0538709
0.0522181
0.050523
0.0486368
0.0464317
0.0189372
0.0164628
0.014369
0.0125114
0.0107199
0.00900485
0.00737944
0.00584437
0.00440057
0.00304986
0.00179398
0.00063485
-0.000425296
-0.00138429
-0.00224037
-0.00299198
-0.00363733
-0.0041746
-0.00460229
-0.00491941
-0.00512534
-0.0052197
-0.00520214
-0.00507252
-0.00483103
-0.00447832
-0.0040155
-0.00344414
-0.00276608
-0.00198325
-0.00109787
-0.000112445
0.000970271
0.00214721
0.00341491
0.00476958
0.00620733
0.00772409
0.00931559
0.0109773
0.0127047
0.0144927
0.0163363
0.0182299
0.0201681
0.0221453
0.0241556
0.0261933
0.0282522
0.0303262
0.032409
0.0344941
0.0365751
0.0386453
0.0406981
0.0427269
0.0447251
0.0466862
0.0486039
0.0504719
0.0522837
0.0540331
0.0557141
0.0573207
0.0588471
0.0602882
0.0616392
0.0628954
0.0640526
0.0651063
0.0660526
0.066888
0.0676094
0.0682146
0.0687021
0.0690707
0.0693195
0.0694478
0.0694551
0.0693416
0.0691077
0.0687549
0.068285
0.0677006
0.0670048
0.0662009
0.0652923
0.0642825
0.0631747
0.0619722
0.0606781
0.0592955
0.057828
0.0562789
0.0546509
0.0529465
0.0511797
0.0493621
0.0473329
0.0449545
0.0201273
0.0174823
0.0152487
0.013272
0.0113696
0.00955324
0.00783637
0.00621937
0.00470239
0.00328666
0.00197357
0.000764599
-0.000338688
-0.00133497
-0.00222309
-0.00300182
-0.00366974
-0.00422562
-0.00466868
-0.00499858
-0.00521501
-0.00531773
-0.0053066
-0.00518176
-0.00494384
-0.0045939
-0.00413331
-0.00356372
-0.00288697
-0.00210501
-0.00122017
-0.000235165
0.00084707
0.00202332
0.00329006
0.00464358
0.00608013
0.00759574
0.00918611
0.0108467
0.0125728
0.0143594
0.0162014
0.0180935
0.0200303
0.0220063
0.0240158
0.0260528
0.0281114
0.0301854
0.0322684
0.0343541
0.0364362
0.0385081
0.0405632
0.0425949
0.0445967
0.0465619
0.0484842
0.0503572
0.0521746
0.0539302
0.0556179
0.0572317
0.0587658
0.0602148
0.0615738
0.062838
0.0640028
0.0650638
0.0660168
0.0668584
0.0675852
0.068195
0.0686857
0.0690559
0.0693045
0.0694302
0.0694324
0.0693108
0.0690658
0.0686984
0.0682101
0.0676031
0.0668802
0.0660442
0.0650981
0.0640448
0.062887
0.0616276
0.0602691
0.0588145
0.0572666
0.0556288
0.0539033
0.0520923
0.0502105
0.0482701
0.0460987
0.043549
0.0212156
0.0184019
0.0160292
0.0139335
0.0119204
0.0100018
0.00819225
0.00649163
0.00489947
0.0034166
0.00204411
0.000783015
-0.000365853
-0.00140183
-0.00232411
-0.00313171
-0.00382378
-0.00439987
-0.00485985
-0.00520369
-0.00543124
-0.00554245
-0.00553753
-0.00541709
-0.00518224
-0.0048343
-0.00437474
-0.00380521
-0.0031276
-0.00234403
-0.00145706
-0.000469623
0.000615168
0.00179404
0.00306351
0.00441996
0.00585972
0.00737881
0.00897286
0.0106372
0.012367
0.0141575
0.0160034
0.0178996
0.0198408
0.0218216
0.0238362
0.0258788
0.0279431
0.0300231
0.0321127
0.0342054
0.0362949
0.0383749
0.0404387
0.0424796
0.0444911
0.0464665
0.0483994
0.0502834
0.0521123
0.0538798
0.0555797
0.0572061
0.0587531
0.060215
0.0615867
0.0628632
0.0640397
0.0651118
0.0660752
0.0669262
0.0676614
0.0682782
0.0687743
0.0691479
0.0693973
0.0695212
0.0695186
0.069389
0.0691325
0.0687497
0.068242
0.0676111
0.0668593
0.0659893
0.0650034
0.0639041
0.0626938
0.0613747
0.0599492
0.0584198
0.0567893
0.0550607
0.0532359
0.0513169
0.0493192
0.0472558
0.0449428
0.0422235
0.0221928
0.0192118
0.0167007
0.014486
0.0123621
0.0103409
0.00843769
0.00665198
0.00498305
0.00343142
0.00199776
0.000682555
-0.000513918
-0.00159137
-0.00254928
-0.00338716
-0.00410485
-0.00470255
-0.00518053
-0.00553887
-0.00577766
-0.00589718
-0.00589816
-0.00578171
-0.00554925
-0.00520222
-0.0047421
-0.00417061
-0.00348982
-0.00270212
-0.00181037
-0.000817673
0.00027279
0.00145776
0.00273382
0.00409739
0.00554479
0.00707195
0.00867435
0.0103473
0.0120858
0.0138853
0.0157406
0.0176466
0.0195981
0.0215896
0.0236154
0.0256694
0.0277456
0.0298379
0.0319402
0.0340462
0.0361496
0.0382441
0.0403229
0.0423793
0.0444067
0.0463984
0.0483479
0.050249
0.0520952
0.0538804
0.0555983
0.0572428
0.0588078
0.0602875
0.0616767
0.06297
0.0641626
0.0652497
0.0662272
0.0670911
0.0678378
0.0684643
0.0689682
0.069347
0.0695989
0.0697221
0.0697154
0.0695782
0.0693102
0.0689118
0.068384
0.0677282
0.0669465
0.0660408
0.0650134
0.0638662
0.0626011
0.0612202
0.0597255
0.0581192
0.056404
0.0545827
0.052657
0.0506288
0.0485144
0.0463277
0.0438735
0.0409857
0.0230497
0.0199026
0.0172538
0.0149205
0.0126854
0.0105611
0.00856341
0.00669148
0.00494456
0.00332287
0.00182656
0.000455628
-0.000789967
-0.00191015
-0.00290484
-0.00377422
-0.00451877
-0.00513906
-0.00563553
-0.00600845
-0.00625827
-0.00638582
-0.00639233
-0.00627927
-0.00604819
-0.00570056
-0.00523795
-0.00466229
-0.00397597
-0.00318168
-0.00228248
-0.00128157
-0.000182144
0.00101258
0.00229921
0.00367414
0.00513358
0.0066733
0.00828868
0.00997492
0.0117273
0.013541
0.0154112
0.0173327
0.0193003
0.0213084
0.0233512
0.0254227
0.0275168
0.0296276
0.0317489
0.0338746
0.0359983
0.0381136
0.0402138
0.042292
0.0443416
0.0463558
0.0483282
0.0502524
0.052122
0.0539308
0.0556723
0.0573404
0.0589288
0.0604315
0.0618429
0.0631577
0.0643707
0.0654772
0.0664727
0.0673531
0.0681146
0.0687539
0.0692681
0.0696544
0.0699106
0.0700346
0.0700251
0.069881
0.069602
0.0691882
0.0686401
0.067959
0.0671464
0.0662041
0.0651338
0.0639371
0.0626156
0.061171
0.0596051
0.0579201
0.0561184
0.0542028
0.0521749
0.0500364
0.0478046
0.0454942
0.042899
0.0398431
0.0237777
0.0204658
0.0176799
0.015228
0.0128813
0.0106534
0.00856044
0.00660153
0.00477567
0.00308277
0.00152257
9.47346e-05
-0.001201
-0.00236485
-0.00339733
-0.00429926
-0.00507149
-0.00571479
-0.00622974
-0.00661702
-0.00687758
-0.00701281
-0.0070243
-0.00691369
-0.00668256
-0.00633248
-0.00586527
-0.00528322
-0.00458903
-0.00378564
-0.00287621
-0.00186398
-0.000752103
0.00045619
0.00175744
0.00314794
0.00462374
0.00618046
0.00781339
0.00951781
0.011289
0.0131224
0.0150129
0.0169556
0.0189449
0.0209754
0.0230411
0.0251361
0.0272543
0.0293898
0.0315365
0.0336883
0.0358388
0.0379813
0.0401092
0.0422156
0.0442937
0.0463368
0.0483383
0.0502919
0.052191
0.0540293
0.0558004
0.0574978
0.059115
0.0606459
0.0620847
0.0634258
0.0646638
0.065794
0.0668117
0.0677126
0.0684925
0.0691478
0.0696751
0.0700715
0.0703342
0.0704611
0.0704503
0.0703006
0.0700115
0.0695827
0.0690146
0.0683081
0.0674643
0.0664847
0.0653706
0.0641232
0.0627439
0.0612341
0.0595955
0.0578302
0.0559406
0.0539294
0.051798
0.0495482
0.0471981
0.0447635
0.0420269
0.038803
0.024369
0.0208928
0.0179701
0.0153995
0.0129409
0.0106088
0.00842007
0.00637362
0.004468
0.00270289
0.00107788
-0.000407639
-0.00175419
-0.00296249
-0.00403359
-0.00496872
-0.00576896
-0.00643519
-0.00696835
-0.00736965
-0.00764059
-0.00778296
-0.00779853
-0.00768899
-0.00745603
-0.00710149
-0.00662756
-0.0060369
-0.00533247
-0.00451733
-0.00359468
-0.00256778
-0.00143981
-0.000214053
0.00110588
0.00251612
0.00401254
0.00559069
0.00724586
0.00897335
0.0107686
0.0126269
0.0145433
0.0165126
0.0185294
0.0205881
0.0226827
0.0248072
0.0269556
0.0291221
0.0313006
0.0334849
0.0356685
0.0378448
0.0400068
0.0421478
0.0442608
0.0463393
0.0483764
0.0503657
0.0523006
0.0541746
0.0559812
0.0577137
0.0593654
0.06093
0.0624014
0.0637738
0.0650419
0.0662005
0.0672448
0.0681703
0.0689724
0.0696472
0.0701909
0.0706002
0.0708721
0.0710041
0.0709941
0.0708405
0.0705426
0.0700998
0.0695123
0.0687806
0.0679057
0.0668884
0.0657299
0.064431
0.0629928
0.0614166
0.0597041
0.0578573
0.0558785
0.0537704
0.0515344
0.0491722
0.0467029
0.0441433
0.0412646
0.0378721
0.024816
0.0211753
0.0181157
0.0154261
0.0128554
0.0104186
0.00813364
0.005999
0.00401293
0.00217496
0.000484526
-0.00105916
-0.00245706
-0.00371039
-0.00482062
-0.00578915
-0.00661721
-0.007306
-0.00785698
-0.00827187
-0.00855263
-0.00870124
-0.00871952
-0.00860929
-0.00837253
-0.00801147
-0.00752869
-0.00692712
-0.00620988
-0.00538007
-0.00444097
-0.00339588
-0.00224803
-0.00100087
0.000341808
0.00177594
0.0032973
0.00490141
0.00658357
0.00833916
0.0101636
0.0120522
0.014
0.0160015
0.0180514
0.020144
0.0222734
0.0244335
0.0266185
0.0288223
0.0310389
0.0332622
0.0354854
0.0377017
0.0399044
0.0420865
0.0442411
0.0463614
0.0484406
0.050472
0.0524491
0.0543651
0.0562134
0.0579869
0.059679
0.0612829
0.0627925
0.0642017
0.065505
0.066697
0.0677726
0.068727
0.0695555
0.0702536
0.0708172
0.0712428
0.0715269
0.0716666
0.0716597
0.0715043
0.0711992
0.0707438
0.0701379
0.0693819
0.0684761
0.0674212
0.0662179
0.0648669
0.063369
0.0617255
0.0599381
0.0580087
0.0559397
0.0537336
0.0513918
0.048916
0.0463264
0.0436406
0.0406186
0.0370562
0.0251111
0.0213054
0.0181083
0.0152994
0.0126162
0.0100744
0.00769254
0.00546907
0.00340207
0.00149087
-0.000265296
-0.0018675
-0.00331715
-0.00461586
-0.0057653
-0.00676697
-0.00762239
-0.00833324
-0.00890154
-0.00932943
-0.00961909
-0.00977257
-0.00979182
-0.00967896
-0.00943638
-0.00906672
-0.00857285
-0.00795787
-0.00722497
-0.00637735
-0.00541835
-0.00435137
-0.0031798
-0.00190727
-0.000537797
0.000924434
0.00247517
0.00410991
0.00582397
0.00761275
0.00947166
0.0113959
0.0133804
0.0154198
0.0175085
0.0196408
0.021811
0.0240129
0.0262406
0.0284881
0.0307493
0.0330179
0.0352871
0.0375501
0.0398
0.0420298
0.0442326
0.0464014
0.0485292
0.0506094
0.0526351
0.0545995
0.0564956
0.0583164
0.0600548
0.0617041
0.0632576
0.0647093
0.0660533
0.0672839
0.0683959
0.069384
0.0702431
0.0709687
0.0715562
0.0720016
0.0723012
0.0724517
0.0724504
0.0722955
0.0719854
0.0715191
0.0708963
0.0701169
0.0691809
0.0680888
0.0668407
0.0654372
0.0638792
0.0621678
0.0603047
0.0582918
0.0561314
0.0538261
0.0513773
0.0487867
0.0460753
0.0432619
0.0400951
0.036361
0.0252464
0.0212751
0.0179398
0.015011
0.0122149
0.00956753
0.00708825
0.00477552
0.00262729
0.000642678
-0.0011794
-0.00284039
-0.00434202
-0.0056861
-0.0068744
-0.00790867
-0.00879085
-0.0095232
-0.0101081
-0.0105481
-0.0108452
-0.0110018
-0.0110201
-0.0109027
-0.0106522
-0.0102718
-0.00976434
-0.00913317
-0.00838153
-0.00751271
-0.00653019
-0.00543755
-0.00423838
-0.00293652
-0.00153611
-4.1447e-05
0.00154323
0.00321342
0.00496441
0.00679153
0.00869015
0.0106554
0.0126821
0.0147648
0.016898
0.0190761
0.0212932
0.0235431
0.0258198
0.0281174
0.0304295
0.0327499
0.0350716
0.0373878
0.0396915
0.0419758
0.0442334
0.0464574
0.0486407
0.0507762
0.0528571
0.0548764
0.0568268
0.0587012
0.0604923
0.0621929
0.0637965
0.0652966
0.0666871
0.0679619
0.0691156
0.0701423
0.071037
0.0717944
0.0724099
0.0728791
0.0731977
0.0733623
0.0733699
0.0732181
0.0729054
0.0724304
0.0717924
0.0709909
0.0700257
0.0688968
0.0676043
0.0661484
0.0645301
0.0627504
0.0608109
0.0587136
0.0564607
0.054055
0.0514977
0.0487907
0.045956
0.0430133
0.0396997
0.0357918
0.0252141
0.0210763
0.0176021
0.0145526
0.0116428
0.00888931
0.00631226
0.00391005
0.00168041
-0.000377802
-0.00226597
-0.00398586
-0.00553938
-0.00692844
-0.00815497
-0.00922114
-0.0101294
-0.0108825
-0.011483
-0.0119336
-0.0122365
-0.0123942
-0.0124096
-0.0122854
-0.0120249
-0.0116312
-0.0111075
-0.010457
-0.00968328
-0.00878968
-0.00777991
-0.00665779
-0.0054271
-0.00409184
-0.00265625
-0.00112464
0.000498726
0.0022093
0.0040023
0.00587294
0.00781652
0.00982815
0.0119025
0.0140342
0.0162178
0.0184476
0.0207176
0.0230218
0.0253539
0.0277078
0.0300774
0.0324559
0.0348367
0.0372128
0.0395771
0.0419225
0.0442419
0.0465279
0.0487734
0.0509711
0.0531139
0.0551947
0.057206
0.0591405
0.0609907
0.0627493
0.0644093
0.065964
0.0674069
0.0687318
0.0699327
0.0710035
0.0719387
0.0727329
0.0733809
0.073878
0.0742197
0.074402
0.0744217
0.0742762
0.0739636
0.0734823
0.0728312
0.0720093
0.0710162
0.0698515
0.0685151
0.0670072
0.0653286