/*--------------------------------*- C++ -*----------------------------------*\
  =========                 |
  \\      /  F ield         | OpenFOAM: The Open Source CFD Toolbox
   \\    /   O peration     | Website:  https://openfoam.org
    \\  /    A nd           | Version:  11
     \\/     M anipulation  |
\*---------------------------------------------------------------------------*/
FoamFile
{
    format      ascii;
    class       surfaceScalarField;
    location    "5.8";
    object      phi;
}
// * * * * * * * * * * * * * * * * * * * * * * * * * * * * * * * * * * * * * //

dimensions      [0 3 -1 0 0 0 0];

internalField   nonuniform List<scalar> 
19980
(
6.70633e-07
-6.71528e-07
2.3686e-06
-1.69791e-06
4.18183e-06
-1.8132e-06
5.60689e-06
-1.42514e-06
6.31676e-06
-7.09875e-07
6.13866e-06
1.78149e-07
4.98769e-06
1.15094e-06
2.83616e-06
2.15155e-06
-3.11266e-07
3.14738e-06
-4.4252e-06
4.11402e-06
-9.46321e-06
5.03784e-06
-1.53727e-05
5.90952e-06
-2.20958e-05
6.72315e-06
-2.95696e-05
7.47382e-06
-3.77292e-05
8.1596e-06
-4.65096e-05
8.7803e-06
-5.58454e-05
9.33578e-06
-6.56715e-05
9.82615e-06
-7.59232e-05
1.02517e-05
-8.65361e-05
1.0613e-05
-9.74472e-05
1.09111e-05
-0.000108595
1.11475e-05
-0.000119918
1.13236e-05
-0.000131359
1.14408e-05
-0.00014286
1.1501e-05
-0.000154366
1.15064e-05
-0.000165825
1.14592e-05
-0.000177187
1.13613e-05
-0.000188401
1.12144e-05
-0.000199422
1.10208e-05
-0.000210204
1.07823e-05
-0.000220705
1.0501e-05
-0.000230884
1.0179e-05
-0.000240703
9.81828e-06
-0.000250123
9.42063e-06
-0.000259111
8.98815e-06
-0.000267635
8.52323e-06
-0.000275663
8.02816e-06
-0.000283168
7.50491e-06
-0.000290123
6.95535e-06
-0.000296505
6.38162e-06
-0.000302291
5.78591e-06
-0.000307461
5.17005e-06
-0.000311996
4.53569e-06
-0.000315881
3.8846e-06
-0.0003191
3.21894e-06
-0.000321641
2.54118e-06
-0.000323495
1.85362e-06
-0.000324653
1.1585e-06
-0.000325111
4.5791e-07
-0.000324865
-2.46132e-07
-0.000323914
-9.51453e-07
-0.000322258
-1.6558e-06
-0.000319901
-2.35675e-06
-0.000316849
-3.05166e-06
-0.000313111
-3.73797e-06
-0.000308698
-4.41318e-06
-0.000303623
-5.07484e-06
-0.000297903
-5.72049e-06
-0.000291555
-6.34756e-06
-0.000284602
-6.95333e-06
-0.000277067
-7.5351e-06
-0.000268977
-8.09026e-06
-0.00026036
-8.61618e-06
-0.00025125
-9.11029e-06
-0.00024168
-9.57001e-06
-0.000231687
-9.99257e-06
-0.000221312
-1.03752e-05
-0.000210597
-1.07154e-05
-0.000199586
-1.10108e-05
-0.000188327
-1.12591e-05
-0.000176869
-1.14581e-05
-0.000165264
-1.16054e-05
-0.000153565
-1.16988e-05
-0.000141829
-1.17361e-05
-0.000130113
-1.17153e-05
-0.000118478
-1.16349e-05
-0.000106985
-1.14932e-05
-9.56961e-05
-1.1289e-05
-8.46747e-05
-1.10213e-05
-7.39855e-05
-1.06892e-05
-6.36934e-05
-1.02921e-05
-5.38638e-05
-9.8296e-06
-4.45621e-05
-9.3017e-06
-3.58535e-05
-8.70868e-06
-2.78022e-05
-8.0513e-06
-2.0471e-05
-7.3311e-06
-1.39204e-05
-6.55059e-06
-8.20707e-06
-5.71341e-06
-3.38233e-06
-4.82478e-06
5.09908e-07
-3.8922e-06
3.43632e-06
-2.92638e-06
5.37908e-06
-1.9428e-06
6.34358e-06
-9.64536e-07
6.37053e-06
-2.69243e-08
5.55531e-06
8.15263e-07
4.07878e-06
1.4765e-06
2.25936e-06
1.81933e-06
6.42584e-07
1.61677e-06
6.42546e-07
1.51709e-06
-2.18852e-06
4.29949e-06
-4.48037e-06
7.01173e-06
-4.52529e-06
8.62868e-06
-3.04196e-06
8.48076e-06
-5.62094e-07
6.13857e-06
2.52043e-06
1.35519e-06
5.93431e-06
-5.9863e-06
9.49297e-06
-1.59099e-05
1.30711e-05
-2.83767e-05
1.65807e-05
-4.33013e-05
1.99625e-05
-6.05673e-05
2.31755e-05
-8.00357e-05
2.61916e-05
-0.000101553
2.89909e-05
-0.000124954
3.15612e-05
-0.000150069
3.38953e-05
-0.000176723
3.59897e-05
-0.00020474
3.78429e-05
-0.000233943
3.94548e-05
-0.000264157
4.0827e-05
-0.000295208
4.19623e-05
-0.000326925
4.28647e-05
-0.000359141
4.35389e-05
-0.000391691
4.39907e-05
-0.000424416
4.42264e-05
-0.000457163
4.42528e-05
-0.000489781
4.40771e-05
-0.000522125
4.37063e-05
-0.000554058
4.31474e-05
-0.000585446
4.24081e-05
-0.000616159
4.14961e-05
-0.000646078
4.0419e-05
-0.000675083
3.91843e-05
-0.000703064
3.77996e-05
-0.000729916
3.62725e-05
-0.000755539
3.4611e-05
-0.000779839
3.28234e-05
-0.000802728
3.09177e-05
-0.000824125
2.8902e-05
-0.000843954
2.6784e-05
-0.000862144
2.45717e-05
-0.000878631
2.22733e-05
-0.000893358
1.98961e-05
-0.00090627
1.74478e-05
-0.000917321
1.49362e-05
-0.000926472
1.23694e-05
-0.000933687
9.75606e-06
-0.000938938
7.10477e-06
-0.000942203
4.42417e-06
-0.000943468
1.72285e-06
-0.000942724
-9.90713e-07
-0.000939967
-3.70787e-06
-0.000935203
-6.41967e-06
-0.000928443
-9.11696e-06
-0.000919705
-1.17902e-05
-0.000909013
-1.44298e-05
-0.0008964
-1.70259e-05
-0.000881906
-1.95689e-05
-0.000865578
-2.2049e-05
-0.000847469
-2.44564e-05
-0.000827641
-2.67811e-05
-0.000806163
-2.90131e-05
-0.000783111
-3.11422e-05
-0.000758569
-3.31583e-05
-0.000732628
-3.50514e-05
-0.000705386
-3.68115e-05
-0.00067695
-3.84286e-05
-0.000647432
-3.98928e-05
-0.000616953
-4.11946e-05
-0.000585639
-4.23248e-05
-0.000553624
-4.32746e-05
-0.000521046
-4.40353e-05
-0.000488054
-4.45981e-05
-0.000454797
-4.49551e-05
-0.000421435
-4.50985e-05
-0.000388129
-4.50215e-05
-0.000355046
-4.4718e-05
-0.000322356
-4.41825e-05
-0.000290235
-4.34104e-05
-0.000258858
-4.23979e-05
-0.000228405
-4.11422e-05
-0.000199056
-3.96418e-05
-0.000170989
-3.78964e-05
-0.000144384
-3.59071e-05
-0.000119415
-3.36769e-05
-9.62555e-05
-3.12113e-05
-7.50682e-05
-2.85185e-05
-5.60081e-05
-2.56107e-05
-3.92164e-05
-2.25051e-05
-2.48156e-05
-1.92255e-05
-1.29032e-05
-1.58046e-05
-3.54207e-06
-1.22875e-05
3.25217e-06
-8.73706e-06
7.52973e-06
-5.2421e-06
9.4319e-06
-1.92909e-06
9.22683e-06
1.02026e-06
7.35787e-06
3.34539e-06
4.50129e-06
4.67592e-06
1.61478e-06
4.50321e-06
2.25728e-06
1.69393e-06
-3.88241e-06
4.25658e-06
-7.04289e-06
6.16495e-06
-6.43385e-06
6.22628e-06
-3.10315e-06
3.59102e-06
2.07315e-06
-2.31622e-06
8.42763e-06
-1.1849e-05
1.5467e-05
-2.51958e-05
2.28397e-05
-4.24156e-05
3.02909e-05
-6.34759e-05
3.7641e-05
-8.82714e-05
4.47581e-05
-0.000116646
5.15498e-05
-0.000148404
5.79501e-05
-0.000183325
6.39113e-05
-0.000221165
6.94019e-05
-0.000261671
7.44008e-05
-0.000304576
7.88953e-05
-0.000349612
8.28788e-05
-0.000396506
8.63488e-05
-0.000444986
8.9307e-05
-0.000494782
9.17578e-05
-0.000545625
9.37083e-05
-0.000597254
9.51676e-05
-0.00064941
9.61467e-05
-0.000701842
9.66581e-05
-0.000754305
9.67156e-05
-0.000806561
9.63334e-05
-0.000858381
9.55262e-05
-0.000909543
9.43092e-05
-0.000959833
9.26983e-05
-0.00100905
9.07098e-05
-0.00105699
8.83597e-05
-0.00110347
8.56646e-05
-0.00114831
8.26411e-05
-0.00119134
7.9306e-05
-0.00123241
7.56763e-05
-0.00127135
7.17696e-05
-0.00130804
6.76032e-05
-0.00134233
6.31944e-05
-0.00137411
5.85606e-05
-0.00140326
5.37191e-05
-0.00142967
4.86876e-05
-0.00145326
4.34832e-05
-0.00147393
3.81233e-05
-0.00149162
3.26254e-05
-0.00150626
2.70077e-05
-0.00151779
2.12886e-05
-0.00152618
1.5487e-05
-0.00153137
9.62153e-06
-0.00153336
3.71131e-06
-0.00153213
-2.22459e-06
-0.00152767
-8.16686e-06
-0.00151999
-1.40957e-05
-0.00150912
-1.99911e-05
-0.00149508
-2.58323e-05
-0.00147791
-3.15986e-05
-0.00145766
-3.72687e-05
-0.00143441
-4.28216e-05
-0.00140822
-4.82359e-05
-0.00137919
-5.34901e-05
-0.00134741
-5.85623e-05
-0.00131299
-6.3431e-05
-0.00127606
-6.8074e-05
-0.00123675
-7.24696e-05
-0.0011952
-7.6596e-05
-0.00115158
-8.04317e-05
-0.00110606
-8.39552e-05
-0.0010588
-8.71454e-05
-0.00101002
-8.99819e-05
-0.000959898
-9.24447e-05
-0.000908658
-9.45145e-05
-0.00085652
-9.61726e-05
-0.000803717
-9.74011e-05
-0.00075049
-9.81828e-05
-0.000697086
-9.8502e-05
-0.000643763
-9.83442e-05
-0.000590785
-9.76966e-05
-0.00053842
-9.65479e-05
-0.000486941
-9.48888e-05
-0.000436627
-9.27119e-05
-0.000387757
-9.00124e-05
-0.000340611
-8.6788e-05
-0.000295468
-8.30397e-05
-0.000252602
-7.87722e-05
-0.000212285
-7.39947e-05
-0.000174774
-6.87218e-05
-0.000140318
-6.29748e-05
-0.000109144
-5.67841e-05
-8.14587e-05
-5.01908e-05
-5.74336e-05
-4.32507e-05
-3.71996e-05
-3.60386e-05
-2.08318e-05
-2.86553e-05
-8.33202e-06
-2.12368e-05
3.9394e-07
-1.39681e-05
5.56614e-06
-7.10125e-06
7.56794e-06
-9.81562e-07
6.99233e-06
3.92098e-06
4.69078e-06
6.97742e-06
1.82153e-06
7.37233e-06
4.07882e-06
1.30005e-06
-5.18255e-06
2.77802e-06
-8.52072e-06
2.8038e-06
-6.45944e-06
1.36307e-07
-4.35736e-07
-6.13555e-06
8.34501e-06
-1.66462e-05
1.89383e-05
-3.18064e-05
3.06271e-05
-5.18419e-05
4.28753e-05
-7.68374e-05
5.52864e-05
-0.000106762
6.75661e-05
-0.0001415
7.94957e-05
-0.000180865
9.09151e-05
-0.000224621
0.000101706
-0.000272493
0.000111783
-0.000324177
0.000121086
-0.000379347
0.000129571
-0.000437665
0.000137213
-0.000498782
0.000143996
-0.000562344
0.00014991
-0.000627994
0.000154957
-0.000695377
0.000159141
-0.000764141
0.000162472
-0.000833938
0.000164964
-0.000904425
0.000166634
-0.000975269
0.000167502
-0.00104614
0.000167589
-0.00111673
0.000166918
-0.00118672
0.000165515
-0.00125581
0.000163405
-0.00132373
0.000160614
-0.00139019
0.000157169
-0.00145492
0.000153098
-0.00151769
0.00014843
-0.00157824
0.000143193
-0.00163635
0.000137415
-0.0016918
0.000131127
-0.00174439
0.000124357
-0.00179392
0.000117136
-0.00184022
0.000109494
-0.00188312
0.000101461
-0.00192247
9.3066e-05
-0.00195812
8.43409e-05
-0.00198995
7.53156e-05
-0.00201785
6.60207e-05
-0.00204171
5.64872e-05
-0.00206145
4.67466e-05
-0.00207699
3.68311e-05
-0.00208828
2.67731e-05
-0.00209526
1.66053e-05
-0.00209791
6.36091e-06
-0.00209621
-3.92679e-06
-0.00209016
-1.42238e-05
-0.00207976
-2.44959e-05
-0.00206504
-3.47078e-05
-0.00204605
-4.48241e-05
-0.00202284
-5.48089e-05
-0.00199548
-6.46256e-05
-0.00196406
-7.42378e-05
-0.00192869
-8.36084e-05
-0.00188948
-9.27002e-05
-0.00184657
-0.000101476
-0.0018001
-0.000109897
-0.00175025
-0.000117928
-0.00169719
-0.000125529
-0.00164112
-0.000132664
-0.00158226
-0.000139295
-0.00152082
-0.000145387
-0.00145707
-0.000150903
-0.00139124
-0.000155808
-0.00132362
-0.000160068
-0.00125448
-0.00016365
-0.00118413
-0.000166522
-0.00111288
-0.000168654
-0.00104104
-0.000170019
-0.000968958
-0.000170588
-0.000896964
-0.000170338
-0.000825412
-0.000169249
-0.000754658
-0.000167301
-0.000685067
-0.000164481
-0.000617003
-0.000160775
-0.000550836
-0.000156179
-0.000486933
-0.000150691
-0.000425659
-0.000144314
-0.000367373
-0.000137059
-0.000312422
-0.000128945
-0.000261141
-0.000120003
-0.000213844
-0.000110272
-0.00017082
-9.98084e-05
-0.000132323
-8.86882e-05
-9.85625e-05
-7.70108e-05
-6.96937e-05
-6.49074e-05
-4.57986e-05
-5.25505e-05
-2.68684e-05
-4.0167e-05
-1.27798e-05
-2.80566e-05
-3.26577e-06
-1.66153e-05
2.11876e-06
-6.36614e-06
4.0371e-06
2.00263e-06
3.41473e-06
7.59972e-06
1.49534e-06
9.2917e-06
5.57419e-06
6.25799e-07
-5.80835e-06
3.85384e-07
-8.28049e-06
-2.2635e-06
-3.81054e-06
-8.52144e-06
5.82222e-06
-1.92885e-05
1.91122e-05
-3.52035e-05
3.48533e-05
-5.66871e-05
5.21108e-05
-8.3978e-05
7.01663e-05
-0.000117165
8.84736e-05
-0.000156215
0.000106616
-0.000200996
0.000124277
-0.000251299
0.000141218
-0.000306853
0.00015726
-0.000367339
0.000172269
-0.000432402
0.000186149
-0.000501659
0.000198829
-0.000574708
0.000210262
-0.000651132
0.00022042
-0.000730508
0.000229286
-0.000812405
0.000236854
-0.000896394
0.00024313
-0.000982048
0.000248126
-0.00106894
0.000251858
-0.00115666
0.000254352
-0.00124479
0.000255633
-0.00133293
0.000255733
-0.0014207
0.000254685
-0.00150771
0.000252526
-0.0015936
0.000249293
-0.00167801
0.000245025
-0.00176061
0.000239763
-0.00184106
0.000233548
-0.00191905
0.000226423
-0.00199429
0.00021843
-0.00206649
0.000209614
-0.00213538
0.000200018
-0.00220071
0.000189689
-0.00226224
0.000178669
-0.00231975
0.000167007
-0.00237304
0.000154746
-0.00242191
0.000141934
-0.00246618
0.000128617
-0.00250571
0.000114842
-0.00254034
0.000100656
-0.00256996
8.61057e-05
-0.00259446
7.12409e-05
-0.00261374
5.611e-05
-0.00262773
4.07627e-05
-0.00263637
2.5249e-05
-0.00263963
9.61965e-06
-0.00263748
-6.07416e-06
-0.00262992
-2.17804e-05
-0.00261697
-3.74464e-05
-0.00259866
-5.30186e-05
-0.00257504
-6.84431e-05
-0.00254619
-8.36649e-05
-0.00251218
-9.86288e-05
-0.00247314
-0.000113279
-0.00242919
-0.000127559
-0.00238048
-0.000141413
-0.00232717
-0.000154783
-0.00226946
-0.000167613
-0.00220754
-0.000179845
-0.00214164
-0.000191423
-0.00207202
-0.000202291
-0.00199892
-0.000212392
-0.00192264
-0.000221671
-0.00184347
-0.000230075
-0.00176172
-0.00023755
-0.00167775
-0.000244045
-0.00159188
-0.000249511
-0.00150451
-0.000253901
-0.00141599
-0.000257169
-0.00132674
-0.000259274
-0.00123715
-0.000260176
-0.00114764
-0.000259841
-0.00105866
-0.000258237
-0.000970619
-0.000255339
-0.000883973
-0.000251126
-0.000799165
-0.000245583
-0.000716641
-0.000238703
-0.000636847
-0.000230485
-0.000560221
-0.00022094
-0.000487193
-0.000210086
-0.00041818
-0.000197959
-0.000353579
-0.000184605
-0.000293759
-0.000170091
-0.00023906
-0.000154508
-0.000189776
-0.000137972
-0.000146148
-0.000120638
-0.000108352
-0.000102703
-7.64797e-05
-8.44233e-05
-5.052e-05
-6.61267e-05
-3.03391e-05
-4.82376e-05
-1.56528e-05
-3.13018e-05
-5.99691e-06
-1.6022e-05
-6.94574e-07
-3.29973e-06
1.18241e-06
5.72265e-06
8.63788e-07
9.61038e-06
6.43797e-06
-2.0817e-07
-5.60013e-06
-2.57024e-06
-5.91833e-06
-8.44052e-06
2.05971e-06
-1.89096e-05
1.62914e-05
-3.48083e-05
3.50108e-05
-5.67352e-05
5.67803e-05
-8.50872e-05
8.04628e-05
-0.000120089
0.000105168
-0.000161816
0.000130201
-0.000210221
0.000155021
-0.000265153
0.000179209
-0.000326378
0.000202443
-0.000393592
0.000224474
-0.000466439
0.000245116
-0.00054452
0.000264229
-0.000627401
0.00028171
-0.000714626
0.000297487
-0.00080572
0.000311514
-0.000900197
0.000323763
-0.000997565
0.000334222
-0.00109733
0.000342893
-0.00119899
0.000349789
-0.00130206
0.00035493
-0.00140606
0.000358348
-0.0015105
0.000360076
-0.00161493
0.000360156
-0.00171887
0.000358633
-0.0018219
0.000355554
-0.00192358
0.000350972
-0.00202349
0.000344939
-0.00212124
0.000337512
-0.00221644
0.000328748
-0.00230873
0.000318706
-0.00239774
0.000307444
-0.00248315
0.000295026
-0.00256464
0.000281511
-0.00264192
0.000266964
-0.0027147
0.000251446
-0.00278271
0.000235023
-0.00284573
0.000217759
-0.00290351
0.000199718
-0.00295586
0.000180966
-0.00300259
0.00016157
-0.00304353
0.000141596
-0.00307853
0.000121111
-0.00310748
0.000100183
-0.00313025
7.88828e-05
-0.00314676
5.72788e-05
-0.00315696
3.54422e-05
-0.00316078
1.34443e-05
-0.00315821
-8.64236e-06
-0.00314925
-3.07445e-05
-0.00313391
-5.27878e-05
-0.00311223
-7.46971e-05
-0.00308428
-9.63962e-05
-0.00305013
-0.000117808
-0.00300991
-0.000138856
-0.00296373
-0.00015946
-0.00291174
-0.000179542
-0.00285413
-0.000199023
-0.00279109
-0.000217822
-0.00272285
-0.000235861
-0.00264963
-0.00025306
-0.00257172
-0.000269339
-0.00248939
-0.000284619
-0.00240296
-0.000298823
-0.00231275
-0.000311874
-0.00221913
-0.000323696
-0.00212246
-0.000334217
-0.00202314
-0.000343366
-0.00192158
-0.000351073
-0.00181821
-0.000357275
-0.00171347
-0.000361908
-0.00160783
-0.000364916
-0.00150176
-0.000366245
-0.00139575
-0.000365849
-0.0012903
-0.000363685
-0.00118592
-0.000359721
-0.00108312
-0.000353928
-0.000982414
-0.000346289
-0.00088432
-0.000336797
-0.000789351
-0.000325455
-0.00069801
-0.00031228
-0.00061079
-0.000297306
-0.000528168
-0.000280581
-0.000450593
-0.000262179
-0.000378486
-0.000242198
-0.000312227
-0.000220766
-0.000252149
-0.000198051
-0.000198521
-0.000174266
-0.00015154
-0.000149684
-0.000111314
-0.000124649
-7.78426e-05
-9.9598e-05
-5.09993e-05
-7.50809e-05
-3.05084e-05
-5.17926e-05
-1.59218e-05
-3.06086e-05
-6.59203e-06
-1.26296e-05
-1.64384e-06
7.74402e-07
6.21752e-08
7.90439e-06
6.50014e-06
-1.12367e-06
-4.47646e-06
-5.85088e-06
-1.19115e-06
-1.53024e-05
1.15112e-05
-3.04081e-05
3.13971e-05
-5.18917e-05
5.64945e-05
-8.02774e-05
8.51661e-05
-0.000115911
0.000116096
-0.000158977
0.000148235
-0.000209525
0.000180748
-0.000267478
0.000212974
-0.000332661
0.000244392
-0.00040481
0.000274591
-0.00048359
0.000303254
-0.000568607
0.000330134
-0.000659422
0.000355044
-0.000755557
0.000377845
-0.000856508
0.000398438
-0.000961748
0.000416754
-0.00107074
0.000432752
-0.00118293
0.00044641
-0.00129776
0.000457727
-0.00141468
0.000466714
-0.00153315
0.000473395
-0.00165261
0.000477807
-0.00177252
0.000479992
-0.00189237
0.00048
-0.00201163
0.00047789
-0.00212979
0.000473723
-0.00224639
0.000467565
-0.00236093
0.000459485
-0.00247298
0.000449556
-0.00258208
0.000437852
-0.00268783
0.000424451
-0.00278981
0.000409432
-0.00288766
0.000392875
-0.00298101
0.000374862
-0.00306953
0.000355475
-0.00315288
0.000334798
-0.00323077
0.000312916
-0.00330292
0.000289915
-0.00336909
0.000265881
-0.00342902
0.000240901
-0.00348252
0.000215064
-0.00352938
0.000188458
-0.00356944
0.000161174
-0.00360256
0.000133303
-0.00362861
0.000104936
-0.0036475
7.6167e-05
-0.00365915
4.709e-05
-0.00366351
1.78002e-05
-0.00366054
-1.16056e-05
-0.00365026
-4.10299e-05
-0.00363267
-7.03736e-05
-0.00360783
-9.95366e-05
-0.00357581
-0.000128418
-0.0035367
-0.000156915
-0.00349064
-0.000184925
-0.00343775
-0.000212343
-0.00337823
-0.000239066
-0.00331226
-0.000264987
-0.00324008
-0.000290002
-0.00316194
-0.000314004
-0.00307811
-0.000336889
-0.0029889
-0.000358551
-0.00289463
-0.000378887
-0.00279566
-0.000397794
-0.00269236
-0.000415171
-0.00258514
-0.000430919
-0.00247442
-0.000444941
-0.00236064
-0.000457144
-0.00224427
-0.00046744
-0.0021258
-0.000475742
-0.00200574
-0.000481971
-0.0018846
-0.000486052
-0.00176293
-0.000487916
-0.00164128
-0.000487503
-0.0015202
-0.000484761
-0.00140028
-0.000479647
-0.00128208
-0.000472128
-0.00116618
-0.000462184
-0.00105317
-0.000449809
-0.000943611
-0.000435011
-0.000838074
-0.000417817
-0.000737104
-0.000398275
-0.000641229
-0.000376456
-0.000550949
-0.00035246
-0.000466727
-0.00032642
-0.000388984
-0.000298509
-0.000318086
-0.000268949
-0.000254335
-0.000238017
-0.000197953
-0.000206066
-0.000149071
-0.000173532
-0.000107711
-0.000140958
-7.37721e-05
-0.00010902
-4.70091e-05
-7.85556e-05
-2.70177e-05
-5.06e-05
-1.32142e-05
-2.64332e-05
-4.81703e-06
-7.62271e-06
-8.27868e-07
3.9152e-06
5.67231e-06
-2.07528e-06
-2.40113e-06
-9.30073e-06
6.03424e-06
-2.255e-05
2.47604e-05
-4.25699e-05
5.14171e-05
-6.99471e-05
8.38717e-05
-0.000105106
0.000120325
-0.000148319
0.000159309
-0.000199716
0.000199632
-0.000259299
0.000240331
-0.000326955
0.00028063
-0.000402472
0.000319909
-0.000485554
0.000357673
-0.000575831
0.000393531
-0.000672872
0.000427175
-0.000776199
0.000458371
-0.000885294
0.00048694
-0.000999606
0.00051275
-0.00111856
0.000535711
-0.00124157
0.000555764
-0.00136804
0.000572877
-0.00149736
0.000587042
-0.00162891
0.00059827
-0.0017621
0.000606586
-0.00189633
0.000612032
-0.002031
0.000614658
-0.00216552
0.000614527
-0.00229934
0.000611706
-0.00243189
0.000606274
-0.00256263
0.00059831
-0.00269105
0.000587902
-0.00281664
0.00057514
-0.0029389
0.000560119
-0.00305739
0.000542935
-0.00317164
0.000523689
-0.00328125
0.000502481
-0.0033858
0.000479415
-0.00348492
0.000454596
-0.00357826
0.000428132
-0.00366547
0.000400129
-0.00374625
0.000370697
-0.00382032
0.000339947
-0.00388741
0.00030799
-0.00394728
0.000274938
-0.00399973
0.000240906
-0.00404456
0.000206008
-0.00408162
0.000170361
-0.00411077
0.000134084
-0.0041319
9.72936e-05
-0.00414492
6.0112e-05
-0.00414978
2.26608e-05
-0.00414645
-1.49365e-05
-0.00413492
-5.25551e-05
-0.00411523
-9.00684e-05
-0.00408742
-0.000127349
-0.00405157
-0.000164267
-0.00400779
-0.000200692
-0.00395622
-0.000236493
-0.00389703
-0.000271538
-0.0038304
-0.000305692
-0.00375657
-0.000338823
-0.00367577
-0.000370795
-0.0035883
-0.000401474
-0.00349446
-0.000430727
-0.0033946
-0.000458421
-0.00328906
-0.000484424
-0.00317825
-0.000508606
-0.00306258
-0.000530839
-0.0029425
-0.000550997
-0.00281848
-0.00056896
-0.00269102
-0.00058461
-0.00256062
-0.000597834
-0.00242784
-0.000608525
-0.00229323
-0.000616583
-0.00215736
-0.000621915
-0.00202084
-0.000624437
-0.00188427
-0.000624074
-0.00174827
-0.000620761
-0.00161347
-0.000614447
-0.00148051
-0.000605094
-0.00135001
-0.000592681
-0.00122262
-0.000577202
-0.00109896
-0.000558672
-0.000979642
-0.000537131
-0.000865274
-0.000512644
-0.000756426
-0.000485303
-0.000653645
-0.000455242
-0.000557435
-0.00042263
-0.000468257
-0.000387688
-0.000386511
-0.000350695
-0.000312531
-0.000311997
-0.000246574
-0.000272024
-0.0001888
-0.000231305
-0.000139268
-0.00019049
-9.79141e-05
-0.000150374
-6.45457e-05
-0.000111924
-3.88234e-05
-7.63223e-05
-2.02523e-05
-4.50043e-05
-8.173e-06
-1.9702e-05
-1.75648e-06
-2.50133e-06
3.91589e-06
-3.03269e-06
6.31551e-07
-1.28166e-05
1.58182e-05
-2.99824e-05
4.19263e-05
-5.50793e-05
7.65141e-05
-8.85437e-05
0.000117336
-0.000130685
0.000162467
-0.000181684
0.000210308
-0.000241598
0.000259546
-0.000310372
0.000309105
-0.000387845
0.000358103
-0.000473761
0.000405825
-0.000567784
0.000451696
-0.000669505
0.000495252
-0.000778456
0.000536127
-0.00089412
0.000574035
-0.00101594
0.000608757
-0.00114332
0.000640128
-0.00127564
0.000668034
-0.00141227
0.000692397
-0.00155257
0.000713173
-0.00169587
0.000730347
-0.00184153
0.000743926
-0.00198888
0.000753939
-0.00213728
0.000760431
-0.00228608
0.000763461
-0.00243466
0.000763102
-0.00258239
0.000759434
-0.00272866
0.00075255
-0.0028729
0.000742548
-0.00301453
0.000729532
-0.003153
0.000713612
-0.00328779
0.000694903
-0.00341838
0.000673524
-0.00354428
0.000649596
-0.00366505
0.000623244
-0.00378023
0.000594596
-0.00388941
0.00056378
-0.00399221
0.000530929
-0.00408826
0.000496175
-0.00417721
0.000459654
-0.00425877
0.000421501
-0.00433263
0.000381855
-0.00439855
0.000340855
-0.00445628
0.000298643
-0.00450564
0.00025536
-0.00454643
0.000211152
-0.00457851
0.000166165
-0.00460176
0.000120545
-0.00461609
7.44417e-05
-0.00462144
2.80073e-05
-0.00461777
-1.86058e-05
-0.00460508
-6.52429e-05
-0.0045834
-0.000111747
-0.00455279
-0.000157961
-0.00451333
-0.000203725
-0.00446515
-0.000248876
-0.00440839
-0.000293253
-0.00434323
-0.000336692
-0.00426989
-0.000379029
-0.00418862
-0.000420097
-0.00409968
-0.000459731
-0.00400339
-0.000497767
-0.00390008
-0.000534039
-0.00379012
-0.000568384
-0.0036739
-0.000600639
-0.00355186
-0.000630644
-0.00342446
-0.000658244
-0.00329217
-0.000683283
-0.00315552
-0.000705615
-0.00301504
-0.000725093
-0.00287129
-0.000741583
-0.00272486
-0.000754952
-0.00257636
-0.00076508
-0.00242642
-0.000771853
-0.00227569
-0.00077517
-0.00212482
-0.000774941
-0.00197449
-0.000771091
-0.00182538
-0.000763558
-0.00167818
-0.0007523
-0.00153356
-0.000737293
-0.00139223
-0.000718534
-0.00125486
-0.000696048
-0.0011221
-0.000669886
-0.000994613
-0.000640131
-0.000873013
-0.000606904
-0.000757887
-0.000570367
-0.000649784
-0.000530733
-0.000549201
-0.000488271
-0.000456578
-0.000443318
-0.000372286
-0.000396288
-0.000296618
-0.000347691
-0.000229777
-0.000298146
-0.000171866
-0.000248402
-0.000122875
-0.000199365
-8.26757e-05
-0.000152123
-5.10121e-05
-0.000107986
-2.74955e-05
-6.85209e-05
-1.16052e-05
-3.55923e-05
-2.69405e-06
-1.14124e-05
1.22184e-06
-3.98165e-06
4.61332e-06
-1.63357e-05
2.81722e-05
-3.7462e-05
6.30525e-05
-6.77168e-05
0.000106769
-0.000107377
0.000156996
-0.000156625
0.000211714
-0.000215538
0.000269221
-0.000284093
0.000328101
-0.000362164
0.000387175
-0.000449531
0.00044547
-0.000545889
0.000502183
-0.000650855
0.000556662
-0.000763977
0.000608375
-0.000884748
0.000656897
-0.00101261
0.000701894
-0.00114696
0.000743105
-0.00128716
0.000780334
-0.00143256
0.000813438
-0.00158249
0.000842321
-0.00173624
0.000866927
-0.00189313
0.000887232
-0.00205244
0.00090324
-0.00221348
0.000914981
-0.00237556
0.000922505
-0.00253797
0.00092588
-0.00270006
0.000925187
-0.00286115
0.000920522
-0.00302059
0.000911992
-0.00317775
0.000899712
-0.00333203
0.000883806
-0.00348282
0.000864405
-0.00362956
0.000841645
-0.0037717
0.000815667
-0.00390873
0.000786618
-0.00404013
0.000754646
-0.00416544
0.000719905
-0.00428421
0.000682549
-0.00439601
0.000642737
-0.00450047
0.000600629
-0.0045972
0.000556388
-0.00468588
0.000510178
-0.00476619
0.000462166
-0.00483786
0.000412521
-0.00490062
0.000361412
-0.00495428
0.000309013
-0.00499862
0.000255497
-0.0050335
0.000201041
-0.00505878
0.000145824
-0.00507436
9.00253e-05
-0.00508018
3.38282e-05
-0.00507621
-2.25825e-05
-0.00506243
-7.90199e-05
-0.00503888
-0.000135295
-0.00500563
-0.000191217
-0.00496276
-0.000246593
-0.0049104
-0.000301229
-0.00484873
-0.000354928
-0.00477793
-0.000407493
-0.00469823
-0.000458725
-0.0046099
-0.000508426
-0.00451324
-0.000556397
-0.00440857
-0.000602438
-0.00429625
-0.000646352
-0.00417669
-0.000687942
-0.00405032
-0.000727013
-0.00391759
-0.000763373
-0.003779
-0.000796835
-0.00363507
-0.000827214
-0.00348635
-0.000854333
-0.00333343
-0.000878019
-0.0031769
-0.00089811
-0.0030174
-0.00091445
-0.00285559
-0.000926895
-0.00269213
-0.00093531
-0.00252772
-0.000939577
-0.00236308
-0.000939589
-0.00219891
-0.000935258
-0.00203595
-0.000926516
-0.00187494
-0.000913313
-0.00171661
-0.000895624
-0.00156169
-0.000873451
-0.00141091
-0.000846826
-0.00126498
-0.000815815
-0.00112459
-0.00078052
-0.000990409
-0.000741089
-0.000863058
-0.000697718
-0.00074313
-0.000650662
-0.000631163
-0.000600238
-0.000527638
-0.000546842
-0.00043297
-0.000490957
-0.000347493
-0.000433168
-0.000271461
-0.000374179
-0.000205029
-0.000314834
-0.000148254
-0.00025614
-0.000101084
-0.000199293
-6.33576e-05
-0.000145713
-3.48028e-05
-9.70757e-05
-1.5046e-05
-5.53491e-05
-3.62353e-06
-2.28349e-05
-2.40174e-06
-4.91193e-06
9.52514e-06
-1.98173e-05
4.30777e-05
-4.49027e-05
8.81379e-05
-8.03358e-05
0.000142202
-0.000126234
0.000202895
-0.000182648
0.000268128
-0.000249546
0.00033612
-0.000326811
0.000405366
-0.000414241
0.000474605
-0.000511549
0.000542778
-0.000618372
0.000609007
-0.000734276
0.000672565
-0.000858762
0.000732861
-0.000991277
0.000789412
-0.00113122
0.000841836
-0.00127795
0.000889833
-0.00143079
0.000933173
-0.00158904
0.00097169
-0.00175198
0.00100527
-0.00191889
0.00103383
-0.00208902
0.00105736
-0.00226162
0.00107584
-0.00243595
0.00108932
-0.00261128
0.00109784
-0.00278688
0.00110147
-0.00296202
0.00110033
-0.00313599
0.0010945
-0.00330812
0.00108412
-0.00347773
0.00106932
-0.00364416
0.00105024
-0.00380679
0.00102703
-0.00396501
0.000999863
-0.00411823
0.000968892
-0.0042659
0.000934291
-0.00440749
0.000896236
-0.00454249
0.000854907
-0.00467043
0.000810487
-0.00479086
0.000763161
-0.00490335
0.000713121
-0.00500752
0.000660557
-0.005103
0.000605664
-0.00518948
0.000548639
-0.00526664
0.000489681
-0.00533422
0.000428993
-0.00539198
0.000366779
-0.00543973
0.000303244
-0.00547729
0.000238598
-0.00550451
0.000173052
-0.00552131
0.000106821
-0.0055276
4.01191e-05
-0.00552335
-2.68334e-05
-0.00550855
-9.38156e-05
-0.00548325
-0.000160604
-0.00544749
-0.000226972
-0.00540139
-0.000292693
-0.00534508
-0.000357536
-0.00527874
-0.000421269
-0.00520258
-0.000483658
-0.00511683
-0.000544471
-0.00502179
-0.000603472
-0.00491776
-0.000660425
-0.0048051
-0.000715097
-0.0046842
-0.000767253
-0.00455548
-0.000816662
-0.0044194
-0.000863095
-0.00427644
-0.000906326
-0.00412715
-0.000946133
-0.00397206
-0.000982302
-0.00381177
-0.00101462
-0.00364689
-0.00104289
-0.00347808
-0.00106692
-0.003306
-0.00108653
-0.00313134
-0.00110155
-0.00295483
-0.00111182
-0.0027772
-0.00111721
-0.0025992
-0.00111759
-0.00242161
-0.00111286
-0.00224518
-0.00110294
-0.00207072
-0.00108778
-0.00189899
-0.00106735
-0.00173077
-0.00104167
-0.00156684
-0.00101076
-0.00140794
-0.000974709
-0.00125482
-0.000933641
-0.00110818
-0.00088773
-0.000968693
-0.000837206
-0.000836989
-0.000782365
-0.000713652
-0.000723575
-0.000599208
-0.000661287
-0.000494115
-0.000596049
-0.000398762
-0.000528521
-0.000313456
-0.000459485
-0.000238415
-0.000389874
-0.00017377
-0.000320785
-0.000119554
-0.000253509
-7.57076e-05
-0.000189559
-4.20829e-05
-0.0001307
-1.84542e-05
-7.89778e-05
-4.53552e-06
-3.67535e-05
-6.93727e-06
-5.81953e-06
1.53447e-05
-2.32387e-05
6.04969e-05
-5.22492e-05
0.000117148
-9.28399e-05
0.000182793
-0.000144974
0.000255029
-0.000208566
0.00033172
-0.000283472
0.000411025
-0.000369476
0.000491371
-0.000466292
0.000571421
-0.000573561
0.000650047
-0.000690856
0.000726302
-0.000817685
0.000799394
-0.000953499
0.000868674
-0.00109769
0.000933608
-0.00124963
0.000993768
-0.00140861
0.00104882
-0.00157393
0.00109849
-0.00174484
0.0011426
-0.00192059
0.00118101
-0.0021004
0.00121364
-0.00228349
0.00124045
-0.00246908
0.00126143
-0.00265638
0.00127662
-0.00284462
0.00128607
-0.00303302
0.00128988
-0.00322083
0.00128814
-0.00340731
0.00128097
-0.00359172
0.00126853
-0.00377335
0.00125095
-0.00395153
0.00122841
-0.00412558
0.00120108
-0.00429486
0.00116914
-0.00445876
0.00113279
-0.00461668
0.00109222
-0.00476807
0.00104763
-0.0049124
0.00099923
-0.00504915
0.000947237
-0.00517785
0.000891864
-0.00529806
0.000833332
-0.00540937
0.000771864
-0.00551139
0.000707686
-0.00560378
0.000641026
-0.00568621
0.000572119
-0.00575842
0.000501197
-0.00582014
0.000428499
-0.00587116
0.000354265
-0.0059113
0.000278739
-0.00594041
0.000202167
-0.00595839
0.000124797
-0.00596515
4.68822e-05
-0.00596066
-3.13234e-05
-0.00594492
-0.000109562
-0.00591795
-0.000187573
-0.00587983
-0.000265095
-0.00583066
-0.00034186
-0.00577059
-0.000417603
-0.00569981
-0.000492053
-0.00561853
-0.00056494
-0.00552701
-0.00063599
-0.00542555
-0.000704932
-0.00531448
-0.000771491
-0.00519418
-0.000835397
-0.00506505
-0.000896378
-0.00492755
-0.000954165
-0.00478215
-0.00100849
-0.00462938
-0.0010591
-0.00446979
-0.00110573
-0.00430396
-0.00114813
-0.00413252
-0.00118606
-0.00395611
-0.0012193
-0.00377543
-0.00124761
-0.00359117
-0.00127079
-0.00340408
-0.00128865
-0.0032149
-0.001301
-0.00302442
-0.00130769
-0.00283343
-0.00130858
-0.00264273
-0.00130355
-0.00245315
-0.00129252
-0.00226551
-0.00127542
-0.00208064
-0.00125223
-0.00189934
-0.00122296
-0.00172245
-0.00118765
-0.00155075
-0.00114641
-0.00138502
-0.00109937
-0.00122602
-0.00104673
-0.00107446
-0.000988768
-0.000931012
-0.00092581
-0.000796314
-0.000858273
-0.000670935
-0.000786666
-0.000555387
-0.000711597
-0.000450114
-0.000633794
-0.000355484
-0.000554115
-0.000271787
-0.000473571
-0.00019923