/*--------------------------------*- C++ -*----------------------------------*\
  =========                 |
  \\      /  F ield         | OpenFOAM: The Open Source CFD Toolbox
   \\    /   O peration     | Website:  https://openfoam.org
    \\  /    A nd           | Version:  11
     \\/     M anipulation  |
\*---------------------------------------------------------------------------*/
FoamFile
{
    format      ascii;
    class       volVectorField;
    location    "7.4";
    object      U;
}
// * * * * * * * * * * * * * * * * * * * * * * * * * * * * * * * * * * * * * //

dimensions      [0 1 -1 0 0 0 0];

internalField   nonuniform List<vector> 
10100
(
(3.30213e-06 -2.72067e-06 0)
(1.47314e-05 -7.32902e-06 0)
(3.3533e-05 -8.80189e-06 0)
(5.1033e-05 -7.64417e-06 0)
(6.27018e-05 -5.18817e-06 0)
(6.58852e-05 -2.09839e-06 0)
(5.93419e-05 1.26029e-06 0)
(4.25198e-05 4.67241e-06 0)
(1.53058e-05 8.01366e-06 0)
(-2.21199e-05 1.12149e-05 0)
(-6.93938e-05 1.42431e-05 0)
(-0.000126036 1.70784e-05 0)
(-0.000191481 1.97058e-05 0)
(-0.000265111 2.2119e-05 0)
(-0.000346276 2.43145e-05 0)
(-0.000434309 2.62912e-05 0)
(-0.00052853 2.80507e-05 0)
(-0.000628251 2.95961e-05 0)
(-0.000732795 3.09335e-05 0)
(-0.000841486 3.20673e-05 0)
(-0.000953656 3.29996e-05 0)
(-0.00106865 3.3736e-05 0)
(-0.00118584 3.42849e-05 0)
(-0.00130461 3.46532e-05 0)
(-0.00142434 3.48475e-05 0)
(-0.00154447 3.48754e-05 0)
(-0.00166443 3.4743e-05 0)
(-0.00178368 3.44555e-05 0)
(-0.0019017 3.40193e-05 0)
(-0.00201798 3.34414e-05 0)
(-0.00213205 3.2727e-05 0)
(-0.00224343 3.18805e-05 0)
(-0.00235169 3.0908e-05 0)
(-0.00245641 2.98172e-05 0)
(-0.00255719 2.86156e-05 0)
(-0.00265364 2.73087e-05 0)
(-0.00274541 2.59006e-05 0)
(-0.00283216 2.43965e-05 0)
(-0.00291358 2.28031e-05 0)
(-0.00298936 2.11289e-05 0)
(-0.00305925 1.93816e-05 0)
(-0.00312298 1.75676e-05 0)
(-0.00318035 1.56925e-05 0)
(-0.00323113 1.37616e-05 0)
(-0.00327516 1.17812e-05 0)
(-0.00331227 9.75838e-06 0)
(-0.00334232 7.69968e-06 0)
(-0.00336519 5.61138e-06 0)
(-0.00338081 3.49941e-06 0)
(-0.00338909 1.36972e-06 0)
(-0.00338999 -7.70987e-07 0)
(-0.00338349 -2.91567e-06 0)
(-0.00336959 -5.05701e-06 0)
(-0.00334832 -7.18719e-06 0)
(-0.00331974 -9.29871e-06 0)
(-0.00328392 -1.13846e-05 0)
(-0.00324097 -1.34377e-05 0)
(-0.00319101 -1.54507e-05 0)
(-0.00313422 -1.74157e-05 0)
(-0.00307076 -1.93238e-05 0)
(-0.00300086 -2.1166e-05 0)
(-0.00292476 -2.29344e-05 0)
(-0.00284273 -2.4621e-05 0)
(-0.00275506 -2.6218e-05 0)
(-0.00266208 -2.7718e-05 0)
(-0.00256414 -2.91129e-05 0)
(-0.00246163 -3.03939e-05 0)
(-0.00235493 -3.15527e-05 0)
(-0.0022445 -3.25815e-05 0)
(-0.00213078 -3.34728e-05 0)
(-0.00201426 -3.42192e-05 0)
(-0.00189544 -3.48145e-05 0)
(-0.00177487 -3.52523e-05 0)
(-0.00165308 -3.55256e-05 0)
(-0.00153065 -3.56277e-05 0)
(-0.00140818 -3.55526e-05 0)
(-0.00128628 -3.52943e-05 0)
(-0.00116557 -3.48467e-05 0)
(-0.0010467 -3.42039e-05 0)
(-0.000930339 -3.3361e-05 0)
(-0.00081715 -3.23134e-05 0)
(-0.000707819 -3.10573e-05 0)
(-0.000603031 -2.95899e-05 0)
(-0.000503476 -2.791e-05 0)
(-0.000409838 -2.60173e-05 0)
(-0.000322795 -2.39124e-05 0)
(-0.000243006 -2.15981e-05 0)
(-0.000171111 -1.90795e-05 0)
(-0.000107712 -1.6365e-05 0)
(-5.33652e-05 -1.34665e-05 0)
(-8.55892e-06 -1.04013e-05 0)
(2.63117e-05 -7.19591e-06 0)
(5.09853e-05 -3.8925e-06 0)
(6.53961e-05 -5.61274e-07 0)
(6.9775e-05 2.67772e-06 0)
(6.48063e-05 5.61784e-06 0)
(5.18457e-05 7.90224e-06 0)
(3.33785e-05 8.89753e-06 0)
(1.43704e-05 7.52657e-06 0)
(2.79509e-06 2.79331e-06 0)
(7.97114e-06 -1.48699e-05 0)
(3.12631e-05 -3.05219e-05 0)
(6.21783e-05 -3.29598e-05 0)
(8.69851e-05 -2.52404e-05 0)
(9.62976e-05 -1.13579e-05 0)
(8.45953e-05 6.06363e-06 0)
(4.85644e-05 2.53375e-05 0)
(-1.3627e-05 4.5358e-05 0)
(-0.000102682 6.53921e-05 0)
(-0.000218518 8.49673e-05 0)
(-0.000360498 0.000103766 0)
(-0.000527582 0.00012158 0)
(-0.000718458 0.000138267 0)
(-0.000931614 0.000153735 0)
(-0.00116541 0.000167925 0)
(-0.0014181 0.000180795 0)
(-0.00168789 0.000192331 0)
(-0.00197296 0.00020253 0)
(-0.00227146 0.000211397 0)
(-0.00258155 0.000218944 0)
(-0.00290141 0.000225193 0)
(-0.00322924 0.00023017 0)
(-0.00356326 0.000233908 0)
(-0.00390174 0.000236441 0)
(-0.004243 0.000237803 0)
(-0.00458539 0.000238033 0)
(-0.00492733 0.00023717 0)
(-0.00526727 0.000235251 0)
(-0.00560372 0.000232316 0)
(-0.00593525 0.000228404 0)
(-0.00626048 0.000223555 0)
(-0.00657809 0.000217807 0)
(-0.00688683 0.000211202 0)
(-0.00718548 0.000203782 0)
(-0.0074729 0.000195589 0)
(-0.007748 0.000186663 0)
(-0.00800975 0.000177044 0)
(-0.0082572 0.000166776 0)
(-0.00848944 0.000155903 0)
(-0.00870563 0.00014447 0)
(-0.00890498 0.000132522 0)
(-0.00908678 0.000120103 0)
(-0.00925038 0.000107256 0)
(-0.00939519 9.40237e-05 0)
(-0.00952069 8.04518e-05 0)
(-0.00962642 6.65855e-05 0)
(-0.00971199 5.24693e-05 0)
(-0.00977706 3.81479e-05 0)
(-0.00982137 2.36664e-05 0)
(-0.00984473 9.07065e-06 0)
(-0.00984701 -5.59163e-06 0)
(-0.00982817 -2.02714e-05 0)
(-0.00978822 -3.49192e-05 0)
(-0.00972723 -4.94845e-05 0)
(-0.00964538 -6.39161e-05 0)
(-0.0095429 -7.81636e-05 0)
(-0.00942008 -9.21761e-05 0)
(-0.00927733 -0.000105901 0)
(-0.0091151 -0.000119284 0)
(-0.00893393 -0.00013227 0)
(-0.00873443 -0.000144801 0)
(-0.00851731 -0.000156824 0)
(-0.00828333 -0.000168285 0)
(-0.00803335 -0.000179128 0)
(-0.00776829 -0.000189302 0)
(-0.00748916 -0.000198751 0)
(-0.00719703 -0.000207422 0)
(-0.00689308 -0.000215262 0)
(-0.00657852 -0.000222217 0)
(-0.00625467 -0.000228238 0)
(-0.00592289 -0.000233277 0)
(-0.00558463 -0.000237289 0)
(-0.00524138 -0.000240229 0)
(-0.00489472 -0.000242055 0)
(-0.00454626 -0.000242726 0)
(-0.00419767 -0.000242203 0)
(-0.00385068 -0.000240452 0)
(-0.00350706 -0.000237439 0)
(-0.00316861 -0.000233136 0)
(-0.00283717 -0.000227518 0)
(-0.00251461 -0.000220565 0)
(-0.0022028 -0.000212264 0)
(-0.00190362 -0.00020261 0)
(-0.00161895 -0.000191608 0)
(-0.00135063 -0.00017927 0)
(-0.00110046 -0.000165625 0)
(-0.000870203 -0.000150713 0)
(-0.000661501 -0.000134597 0)
(-0.000475886 -0.000117364 0)
(-0.000314719 -9.91336e-05 0)
(-0.000179129 -8.00752e-05 0)
(-6.99378e-05 -6.0424e-05 0)
(1.24549e-05 -4.05165e-05 0)
(6.82272e-05 -2.08441e-05 0)
(9.83629e-05 -2.13589e-06 0)
(0.000104962 1.45138e-05 0)
(9.15898e-05 2.74551e-05 0)
(6.38398e-05 3.41969e-05 0)
(3.11393e-05 3.1106e-05 0)
(7.53465e-06 1.43642e-05 0)
(8.79232e-06 -3.34887e-05 0)
(3.29182e-05 -6.17904e-05 0)
(6.0465e-05 -6.04717e-05 0)
(7.46052e-05 -3.77634e-05 0)
(6.41025e-05 -7.77441e-07 0)
(2.19106e-05 4.51517e-05 0)
(-5.65889e-05 9.62052e-05 0)
(-0.000174154 0.000149685 0)
(-0.000332032 0.0002037 0)
(-0.000530335 0.00025691 0)
(-0.000768342 0.000308384 0)
(-0.0010447 0.000357461 0)
(-0.00135757 0.000403677 0)
(-0.00170479 0.000446707 0)
(-0.00208397 0.000486327 0)
(-0.00249249 0.000522396 0)
(-0.00292766 0.000554825 0)
(-0.00338669 0.000583569 0)
(-0.00386674 0.000608621 0)
(-0.00436499 0.000629996 0)
(-0.00487858 0.000647733 0)
(-0.00540471 0.000661893 0)
(-0.00594059 0.000672551 0)
(-0.00648351 0.000679786 0)
(-0.00703079 0.000683688 0)
(-0.00757983 0.000684355 0)
(-0.00812809 0.00068189 0)
(-0.00867312 0.000676397 0)
(-0.00921255 0.000667984 0)
(-0.00974408 0.000656762 0)
(-0.0102655 0.000642843 0)
(-0.0107747 0.000626339 0)
(-0.0112697 0.00060737 0)
(-0.0117485 0.000586051 0)
(-0.0122094 0.000562503 0)
(-0.0126504 0.000536842 0)
(-0.0130701 0.000509188 0)
(-0.0134668 0.000479665 0)
(-0.0138391 0.000448397 0)
(-0.0141857 0.000415511 0)
(-0.0145053 0.000381133 0)
(-0.0147967 0.000345389 0)
(-0.0150589 0.000308405 0)
(-0.015291 0.00027031 0)
(-0.0154921 0.000231232 0)
(-0.0156614 0.000191302 0)
(-0.0157984 0.000150649 0)
(-0.0159025 0.000109407 0)
(-0.0159732 6.77087e-05 0)
(-0.0160104 2.56902e-05 0)
(-0.0160138 -1.65105e-05 0)
(-0.0159832 -5.87521e-05 0)
(-0.0159188 -0.000100892 0)
(-0.0158207 -0.000142784 0)
(-0.0156891 -0.000184283 0)
(-0.0155245 -0.00022524 0)
(-0.0153273 -0.000265506 0)
(-0.0150982 -0.000304929 0)
(-0.0148379 -0.000343354 0)
(-0.0145472 -0.000380625 0)
(-0.0142273 -0.000416585 0)
(-0.0138791 -0.000451076 0)
(-0.013504 -0.000483944 0)
(-0.0131033 -0.000515033 0)
(-0.0126786 -0.00054419 0)
(-0.0122313 -0.000571262 0)
(-0.0117632 -0.000596095 0)
(-0.0112763 -0.000618539 0)
(-0.0107724 -0.000638449 0)
(-0.0102537 -0.000655683 0)
(-0.00972226 -0.000670104 0)
(-0.00918047 -0.000681582 0)
(-0.00863071 -0.000689993 0)
(-0.00807546 -0.000695219 0)
(-0.00751729 -0.000697148 0)
(-0.00695886 -0.000695676 0)
(-0.0064029 -0.00069071 0)
(-0.00585221 -0.000682167 0)
(-0.00530962 -0.000669975 0)
(-0.00477802 -0.000654076 0)
(-0.00426033 -0.000634432 0)
(-0.00375947 -0.000611021 0)
(-0.00327836 -0.000583846 0)
(-0.00281989 -0.000552939 0)
(-0.00238689 -0.000518362 0)
(-0.00198211 -0.000480216 0)
(-0.0016082 -0.000438653 0)
(-0.0012676 -0.000393883 0)
(-0.000962571 -0.000346196 0)
(-0.000695056 -0.000295983 0)
(-0.000466617 -0.000243775 0)
(-0.000278308 -0.000190291 0)
(-0.000130514 -0.000136519 0)
(-2.27519e-05 -8.38239e-05 0)
(4.66138e-05 -3.41106e-05 0)
(8.07128e-05 9.95432e-06 0)
(8.45055e-05 4.46499e-05 0)
(6.52517e-05 6.48715e-05 0)
(3.44037e-05 6.38569e-05 0)
(8.93963e-06 3.34107e-05 0)
(7.55644e-06 -5.1192e-05 0)
(2.52209e-05 -8.68022e-05 0)
(3.80713e-05 -7.47483e-05 0)
(2.89402e-05 -2.84638e-05 0)
(-1.3964e-05 4.14734e-05 0)
(-9.83916e-05 0.000126857 0)
(-0.000229603 0.000221507 0)
(-0.000410868 0.000320869 0)
(-0.000643775 0.000421606 0)
(-0.000928582 0.000521268 0)
(-0.00126451 0.000618071 0)
(-0.00164998 0.000710708 0)
(-0.00208279 0.00079823 0)
(-0.00256029 0.000879957 0)
(-0.00307945 0.000955403 0)
(-0.00363699 0.00102424 0)
(-0.00422944 0.00108625 0)
(-0.00485323 0.00114132 0)
(-0.00550468 0.00118938 0)
(-0.00618007 0.00123044 0)
(-0.0068757 0.00126456 0)
(-0.00758784 0.00129182 0)
(-0.00831284 0.00131233 0)
(-0.00904707 0.00132625 0)
(-0.00978699 0.00133373 0)
(-0.0105291 0.00133494 0)
(-0.0112701 0.00133007 0)
(-0.0120066 0.00131932 0)
(-0.0127354 0.00130289 0)
(-0.0134535 0.00128099 0)
(-0.014158 0.00125384 0)
(-0.0148459 0.00122165 0)
(-0.0155145 0.00118465 0)
(-0.0161613 0.00114307 0)
(-0.0167837 0.00109714 0)
(-0.0173794 0.00104708 0)
(-0.0179463 0.000993135 0)
(-0.0184821 0.000935543 0)
(-0.0189849 0.000874543 0)
(-0.0194529 0.00081038 0)
(-0.0198845 0.000743297 0)
(-0.0202779 0.000673542 0)
(-0.0206319 0.000601361 0)
(-0.0209452 0.000527007 0)
(-0.0212166 0.000450732 0)
(-0.021445 0.000372791 0)
(-0.0216298 0.000293442 0)
(-0.02177 0.000212945 0)
(-0.0218653 0.000131564 0)
(-0.0219152 4.95677e-05 0)
(-0.0219193 -3.27728e-05 0)
(-0.0218777 -0.000115182 0)
(-0.0217904 -0.000197379 0)
(-0.0216575 -0.000279081 0)
(-0.0214795 -0.000360001 0)
(-0.0212569 -0.00043985 0)
(-0.0209903 -0.000518334 0)
(-0.0206806 -0.000595157 0)
(-0.0203288 -0.000670018 0)
(-0.0199362 -0.000742616 0)
(-0.019504 -0.000812648 0)
(-0.0190338 -0.00087981 0)
(-0.0185272 -0.0009438 0)
(-0.0179862 -0.00100432 0)
(-0.0174127 -0.00106106 0)
(-0.0168088 -0.00111374 0)
(-0.016177 -0.00116206 0)
(-0.0155197 -0.00120572 0)
(-0.0148396 -0.00124446 0)
(-0.0141394 -0.001278 0)
(-0.0134221 -0.00130607 0)
(-0.0126908 -0.00132843 0)
(-0.0119486 -0.00134484 0)
(-0.011199 -0.00135507 0)
(-0.0104453 -0.00135892 0)
(-0.00969116 -0.00135619 0)
(-0.0089401 -0.00134671 0)
(-0.00819589 -0.00133034 0)
(-0.0074623 -0.00130695 0)
(-0.00674314 -0.00127644 0)
(-0.00604226 -0.00123877 0)
(-0.0053635 -0.00119391 0)
(-0.00471069 -0.00114189 0)
(-0.00408759 -0.0010828 0)
(-0.00349787 -0.0010168 0)
(-0.00294509 -0.000944103 0)
(-0.00243262 -0.000865049 0)
(-0.00196357 -0.000780084 0)
(-0.00154075 -0.000689814 0)
(-0.00116656 -0.000595038 0)
(-0.000842882 -0.000496819 0)
(-0.000570912 -0.000396564 0)
(-0.000351016 -0.000296146 0)
(-0.000182488 -0.000198071 0)
(-6.32778e-05 -0.000105695 0)
(1.03343e-05 -2.35211e-05 0)
(4.40351e-05 4.24383e-05 0)
(4.58861e-05 8.43052e-05 0)
(2.80236e-05 9.196e-05 0)
(8.01579e-06 5.20531e-05 0)
(5.16597e-06 -6.2777e-05 0)
(1.17462e-05 -9.64827e-05 0)
(1.9725e-06 -6.47229e-05 0)
(-3.96078e-05 1.4216e-05 0)
(-0.000124294 0.000126397 0)
(-0.000259933 0.000260812 0)
(-0.000451946 0.000408952 0)
(-0.000703728 0.000564354 0)
(-0.00101697 0.000722122 0)
(-0.00139194 0.000878567 0)
(-0.00182778 0.00103091 0)
(-0.00232271 0.00117706 0)
(-0.00287423 0.00131548 0)
(-0.00347926 0.00144501 0)
(-0.00413429 0.00156483 0)
(-0.00483546 0.00167433 0)
(-0.00557868 0.00177312 0)
(-0.00635967 0.00186096 0)
(-0.00717405 0.00193771 0)
(-0.00801735 0.00200334 0)
(-0.00888508 0.00205789 0)
(-0.00977274 0.00210148 0)
(-0.0106759 0.00213426 0)
(-0.0115901 0.00215644 0)
(-0.012511 0.00216824 0)
(-0.0134344 0.00216995 0)
(-0.0143561 0.00216184 0)
(-0.015272 0.00214422 0)
(-0.0161783 0.00211741 0)
(-0.0170712 0.00208173 0)
(-0.0179469 0.00203754 0)
(-0.018802 0.00198518 0)
(-0.019633 0.00192502 0)
(-0.0204369 0.00185741 0)
(-0.0212104 0.00178273 0)
(-0.0219507 0.00170136 0)
(-0.022655 0.00161367 0)
(-0.0233208 0.00152006 0)
(-0.0239455 0.0014209 0)
(-0.024527 0.0013166 0)
(-0.025063 0.00120754 0)
(-0.0255518 0.00109414 0)
(-0.0259914 0.000976799 0)
(-0.0263804 0.000855919 0)
(-0.0267173 0.000731917 0)
(-0.0270009 0.000605209 0)
(-0.0272302 0.000476215 0)
(-0.0274041 0.000345364 0)
(-0.0275222 0.000213085 0)
(-0.0275837 7.98165e-05 0)
(-0.0275886 -5.39973e-05 0)
(-0.0275365 -0.000187907 0)
(-0.0274277 -0.000321457 0)
(-0.0272623 -0.000454186 0)
(-0.0270408 -0.000585627 0)
(-0.0267639 -0.000715309 0)
(-0.0264324 -0.000842756 0)
(-0.0260474 -0.000967485 0)
(-0.0256102 -0.00108901 0)
(-0.0251223 -0.00120685 0)
(-0.0245853 -0.0013205 0)
(-0.0240011 -0.00142949 0)
(-0.0233718 -0.00153332 0)
(-0.0226997 -0.0016315 0)
(-0.0219873 -0.00172356 0)
(-0.0212372 -0.00180902 0)
(-0.0204525 -0.0018874 0)
(-0.0196361 -0.00195825 0)
(-0.0187913 -0.00202111 0)
(-0.0179216 -0.00207556 0)
(-0.0170306 -0.00212117 0)
(-0.016122 -0.00215754 0)
(-0.0151999 -0.0021843 0)
(-0.0142684 -0.00220109 0)
(-0.0133316 -0.00220758 0)
(-0.0123939 -0.00220348 0)
(-0.0114598 -0.00218852 0)
(-0.0105337 -0.00216249 0)
(-0.00962037 -0.0021252 0)
(-0.00872438 -0.00207654 0)
(-0.00785039 -0.00201642 0)
(-0.00700308 -0.00194485 0)
(-0.00618704 -0.00186193 0)
(-0.00540681 -0.0017678 0)
(-0.0046668 -0.00166277 0)
(-0.00397122 -0.00154725 0)
(-0.00332406 -0.0014218 0)
(-0.00272899 -0.0012872 0)
(-0.00218929 -0.00114447 0)
(-0.00170772 -0.000994925 0)
(-0.00128642 -0.000840293 0)
(-0.000926745 -0.000682808 0)
(-0.000629085 -0.000525374 0)
(-0.000392654 -0.000371768 0)
(-0.000215236 -0.000226906 0)
(-9.29033e-05 -9.71864e-05 0)
(-1.97417e-05 9.10197e-06 0)
(1.251e-05 8.13772e-05 0)
(1.56441e-05 0.000106227 0)
(5.84624e-06 6.54334e-05 0)
(2.22148e-06 -6.62228e-05 0)
(-5.09014e-06 -8.56919e-05 0)
(-4.28106e-05 -2.35674e-05 0)
(-0.000123339 9.79124e-05 0)
(-0.000256665 0.000261788 0)
(-0.00045028 0.000454484 0)
(-0.00070933 0.000665304 0)
(-0.00103704 0.000885914 0)
(-0.00143497 0.00110985 0)
(-0.00190326 0.00133213 0)
(-0.0024409 0.0015489 0)
(-0.00304587 0.00175722 0)
(-0.00371537 0.00195484 0)
(-0.00444596 0.00214007 0)
(-0.0052337 0.00231166 0)
(-0.00607425 0.00246869 0)
(-0.00696296 0.00261053 0)
(-0.00789496 0.00273675 0)
(-0.00886525 0.00284711 0)
(-0.0098687 0.00294152 0)
(-0.0109001 0.00302 0)
(-0.0119544 0.00308267 0)
(-0.0130262 0.00312972 0)
(-0.0141106 0.00316141 0)
(-0.0152024 0.00317807 0)
(-0.0162968 0.00318006 0)
(-0.0173888 0.00316776 0)
(-0.0184737 0.00314162 0)
(-0.0195469 0.00310207 0)
(-0.020604 0.0030496 0)
(-0.0216406 0.00298469 0)
(-0.0226527 0.00290785 0)
(-0.0236363 0.00281961 0)
(-0.0245875 0.00272048 0)
(-0.0255028 0.00261101 0)
(-0.0263787 0.00249174 0)
(-0.0272119 0.00236324 0)
(-0.0279994 0.00222605 0)
(-0.0287384 0.00208075 0)
(-0.0294261 0.00192792 0)
(-0.03006 0.00176813 0)
(-0.0306379 0.00160197 0)
(-0.0311578 0.00143004 0)
(-0.0316176 0.00125293 0)
(-0.0320159 0.00107125 0)
(-0.032351 0.000885614 0)
(-0.0326218 0.000696639 0)
(-0.0328273 0.000504952 0)
(-0.0329665 0.000311189 0)
(-0.033039 0.000115991 0)
(-0.0330444 -7.99892e-05 0)
(-0.0329825 -0.000276092 0)
(-0.0328535 -0.000471649 0)
(-0.0326575 -0.000665984 0)
(-0.0323953 -0.000858414 0)
(-0.0320675 -0.00104825 0)
(-0.0316753 -0.00123479 0)
(-0.0312198 -0.00141733 0)
(-0.0307026 -0.00159517 0)
(-0.0301255 -0.00176759 0)
(-0.0294903 -0.00193388 0)
(-0.0287993 -0.00209333 0)
(-0.0280551 -0.00224523 0)
(-0.0272603 -0.00238887 0)
(-0.0264178 -0.00252354 0)
(-0.0255308 -0.00264857 0)
(-0.0246027 -0.00276326 0)
(-0.0236372 -0.00286695 0)
(-0.022638 -0.002959 0)
(-0.0216093 -0.00303876 0)
(-0.0205552 -0.00310565 0)
(-0.0194803 -0.00315909 0)
(-0.0183892 -0.00319854 0)
(-0.0172865 -0.00322348 0)
(-0.0161774 -0.00323347 0)
(-0.0150668 -0.00322808 0)
(-0.0139599 -0.00320695 0)
(-0.012862 -0.00316978 0)
(-0.0117785 -0.00311635 0)
(-0.0107148 -0.00304648 0)
(-0.00967617 -0.00296013 0)
(-0.00866809 -0.00285732 0)
(-0.00769583 -0.00273822 0)
(-0.0067646 -0.00260311 0)
(-0.00587943 -0.00245245 0)
(-0.00504513 -0.0022869 0)
(-0.00426623 -0.00210733 0)
(-0.00354686 -0.00191491 0)
(-0.00289072 -0.00171113 0)
(-0.0023009 -0.00149795 0)
(-0.0017798 -0.00127783 0)
(-0.00132897 -0.00105393 0)
(-0.000948901 -0.000830254 0)
(-0.000638897 -0.00061192 0)
(-0.000396808 -0.00040542 0)
(-0.000218811 -0.000219009 0)
(-9.91607e-05 -6.31406e-05 0)
(-2.98689e-05 4.90856e-05 0)
(-2.73154e-07 0.000101275 0)
(3.06077e-06 7.11714e-05 0)
(-9.53045e-07 -6.03453e-05 0)
(-2.37386e-05 -5.11203e-05 0)
(-9.27709e-05 5.33953e-05 0)
(-0.000216632 0.000228056 0)
(-0.000403443 0.000453343 0)
(-0.000659931 0.000713454 0)
(-0.000990687 0.000995689 0)
(-0.00139849 0.00128997 0)
(-0.00188457 0.00158832 0)
(-0.00244879 0.00188447 0)
(-0.00308985 0.00217347 0)
(-0.00380548 0.00245148 0)
(-0.00459255 0.00271551 0)
(-0.00544727 0.00296327 0)
(-0.00636529 0.00319302 0)
(-0.00734184 0.00340348 0)
(-0.00837178 0.00359373 0)
(-0.00944973 0.00376313 0)
(-0.0105701 0.00391131 0)
(-0.0117272 0.00403808 0)
(-0.0129153 0.00414342 0)
(-0.0141285 0.00422743 0)
(-0.0153611 0.00429035 0)
(-0.0166072 0.00433249 0)
(-0.0178613 0.00435426 0)
(-0.0191177 0.00435612 0)
(-0.0203709 0.00433857 0)
(-0.0216155 0.00430219 0)
(-0.0228465 0.00424756 0)
(-0.0240586 0.00417533 0)
(-0.0252471 0.00408614 0)
(-0.0264073 0.00398068 0)
(-0.0275345 0.00385965 0)
(-0.0286245 0.00372376 0)
(-0.0296732 0.00357374 0)
(-0.0306767 0.00341034 0)
(-0.0316312 0.00323431 0)
(-0.0325332 0.00304641 0)
(-0.0333795 0.00284743 0)
(-0.0341671 0.00263814 0)
(-0.034893 0.00241934 0)
(-0.0355547 0.00219183 0)
(-0.0361499 0.00195643 0)
(-0.0366763 0.00171396 0)
(-0.0371321 0.00146523 0)
(-0.0375156 0.00121111 0)
(-0.0378254 0.000952424 0)
(-0.0380604 0.000690046 0)
(-0.0382196 0.000424842 0)
(-0.0383023 0.000157695 0)
(-0.0383082 -0.000110503 0)
(-0.0382371 -0.000378849 0)
(-0.038089 -0.000646426 0)
(-0.0378644 -0.00091231 0)
(-0.0375639 -0.00117556 0)
(-0.0371885 -0.00143525 0)
(-0.0367392 -0.0016904 0)
(-0.0362175 -0.00194008 0)
(-0.0356252 -0.0021833 0)
(-0.0349642 -0.0024191 0)
(-0.0342369 -0.00264651 0)
(-0.0334457 -0.00286456 0)
(-0.0325935 -0.00307229 0)
(-0.0316833 -0.00326872 0)
(-0.0307185 -0.00345292 0)
(-0.0297028 -0.00362394 0)
(-0.0286399 -0.00378087 0)
(-0.0275341 -0.00392279 0)
(-0.0263896 -0.00404884 0)
(-0.0252111 -0.00415817 0)
(-0.0240034 -0.00424997 0)
(-0.0227716 -0.00432347 0)
(-0.0215208 -0.00437794 0)
(-0.0202565 -0.00441272 0)
(-0.0189843 -0.00442719 0)
(-0.0177098 -0.00442081 0)
(-0.0164391 -0.00439311 0)
(-0.015178 -0.0043437 0)
(-0.0139324 -0.00427231 0)
(-0.0127086 -0.00417874 0)
(-0.0115125 -0.00406297 0)
(-0.0103501 -0.00392506 0)
(-0.00922735 -0.00376529 0)
(-0.00815008 -0.00358409 0)
(-0.00712387 -0.00338214 0)
(-0.00615405 -0.00316036 0)
(-0.00524562 -0.00291999 0)
(-0.00440317 -0.00266264 0)
(-0.00363075 -0.00239037 0)
(-0.00293181 -0.0021058 0)
(-0.00230903 -0.00181219 0)
(-0.00176419 -0.00151369 0)
(-0.00129803 -0.00121542 0)
(-0.000910074 -0.000923847 0)
(-0.000598447 -0.000646986 0)
(-0.0003597 -0.000394847 0)
(-0.000188571 -0.000179872 0)
(-7.77131e-05 -1.73911e-05 0)
(-1.81445e-05 7.36765e-05 0)
(5.02912e-09 6.79921e-05 0)
(-4.18604e-06 -4.4538e-05 0)
(-4.32341e-05 9.16599e-06 0)
(-0.000145552 0.000169198 0)
(-0.000315503 0.000408336 0)
(-0.000559023 0.000705081 0)
(-0.000881812 0.00104174 0)
(-0.00128764 0.00140386 0)
(-0.00177862 0.0017798 0)
(-0.00235546 0.00216016 0)
(-0.00301763 0.00253744 0)
(-0.00376346 0.00290561 0)
(-0.00459029 0.00325994 0)
(-0.00549467 0.00359666 0)
(-0.00647244 0.00391285 0)
(-0.00751886 0.00420626 0)
(-0.00862872 0.00447521 0)
(-0.00979645 0.00471844 0)
(-0.0110162 0.0049351 0)
(-0.0122818 0.00512463 0)
(-0.0135872 0.00528672 0)
(-0.014926 0.0054213 0)
(-0.0162917 0.00552847 0)
(-0.0176782 0.00560847 0)
(-0.019079 0.00566166 0)
(-0.0204878 0.00568854 0)
(-0.0218985 0.00568966 0)
(-0.0233051 0.00566566 0)
(-0.0247016 0.00561725 0)
(-0.0260822 0.00554518 0)
(-0.0274414 0.00545026 0)
(-0.0287737 0.00533331 0)
(-0.030074 0.00519522 0)
(-0.0313372 0.00503689 0)
(-0.0325585 0.00485922 0)
(-0.0337333 0.00466317 0)
(-0.0348572 0.0044497 0)
(-0.0359262 0.00421979 0)
(-0.0369364 0.00397443 0)
(-0.037884 0.00371462 0)
(-0.0387658 0.0034414 0)
(-0.0395784 0.00315579 0)
(-0.0403192 0.00285884 0)
(-0.0409853 0.0025516 0)
(-0.0415744 0.00223516 0)
(-0.0420845 0.00191058 0)
(-0.0425136 0.00157897 0)
(-0.0428602 0.00124144 0)
(-0.043123 0.000899105 0)
(-0.043301 0.000553108 0)
(-0.0433934 0.000204598 0)
(-0.0433997 -0.00014526 0)
(-0.0433199 -0.000495286 0)
(-0.043154 -0.000844288 0)
(-0.0429025 -0.00119106 0)
(-0.042566 -0.00153438 0)
(-0.0421456 -0.00187302 0)
(-0.0416427 -0.00220575 0)
(-0.0410587 -0.00253131 0)
(-0.0403957 -0.00284844 0)
(-0.0396558 -0.0031559 0)
(-0.0388416 -0.00345242 0)
(-0.037956 -0.00373675 0)
(-0.037002 -0.00400762 0)
(-0.0359831 -0.0042638 0)
(-0.034903 -0.00450406 0)
(-0.0337658 -0.00472718 0)
(-0.0325756 -0.00493198 0)
(-0.0313372 -0.00511729 0)
(-0.0300554 -0.00528198 0)
(-0.0287352 -0.00542498 0)
(-0.027382 -0.00554523 0)
(-0.0260014 -0.00564176 0)
(-0.0245992 -0.00571363 0)
(-0.0231814 -0.00576001 0)
(-0.0217541 -0.00578011 0)
(-0.0203237 -0.00577326 0)
(-0.0188967 -0.00573887 0)
(-0.0174795 -0.00567647 0)
(-0.0160788 -0.00558574 0)
(-0.0147012 -0.00546648 0)
(-0.0133535 -0.00531866 0)
(-0.0120421 -0.00514246 0)
(-0.0107736 -0.00493823 0)
(-0.00955435 -0.00470661 0)
(-0.00839037 -0.00444851 0)
(-0.00728753 -0.00416518 0)
(-0.00625126 -0.00385824 0)
(-0.00528657 -0.0035298 0)
(-0.00439791 -0.00318251 0)
(-0.00358907 -0.0028197 0)
(-0.00286304 -0.00244547 0)
(-0.00222196 -0.00206493 0)
(-0.00166688 -0.00168437 0)
(-0.0011977 -0.0013115 0)
(-0.000813002 -0.000955796 0)
(-0.000509922 -0.000628876 0)
(-0.000283932 -0.000344941 0)
(-0.000128598 -0.000121215 0)
(-3.69642e-05 2.13623e-05 0)
(-3.12941e-06 5.52503e-05 0)
(-7.38596e-06 -1.86082e-05 0)
(-6.29887e-05 9.61523e-05 0)
(-0.000199565 0.000325574 0)
(-0.000417187 0.000641061 0)
(-0.000719414 0.00101964 0)
(-0.00111073 0.00144208 0)
(-0.0015939 0.00189249 0)
(-0.00217021 0.0023578 0)
(-0.00283972 0.00282735 0)
(-0.00360133 0.00329247 0)
(-0.0044529 0.00374615 0)
(-0.00539137 0.00418273 0)
(-0.00641287 0.00459769 0)
(-0.00751284 0.00498749 0)
(-0.00868615 0.00534934 0)
(-0.00992717 0.00568111 0)
(-0.0112299 0.00598123 0)
(-0.012588 0.00624857 0)
(-0.013995 0.00648238 0)
(-0.0154441 0.00668224 0)
(-0.0169286 0.00684798 0)
(-0.0184415 0.00697968 0)
(-0.0199761 0.00707759 0)
(-0.0215253 0.00714213 0)
(-0.0230825 0.00717386 0)
(-0.024641 0.00717344 0)
(-0.0261942 0.00714165 0)
(-0.0277356 0.00707934 0)
(-0.029259 0.00698743 0)
(-0.0307582 0.0068669 0)
(-0.0322275 0.00671878 0)
(-0.033661 0.00654415 0)
(-0.0350533 0.00634413 0)
(-0.0363992 0.00611987 0)
(-0.0376937 0.00587253 0)
(-0.038932 0.00560332 0)
(-0.0401095 0.00531347 0)
(-0.0412221 0.00500421 0)
(-0.0422657 0.00467682 0)
(-0.0432366 0.00433257 0)
(-0.0441314 0.00397276 0)
(-0.0449469 0.0035987 0)
(-0.0456803 0.00321172 0)
(-0.0463288 0.00281317 0)
(-0.0468902 0.00240442 0)
(-0.0473625 0.00198685 0)
(-0.0477439 0.00156184 0)
(-0.0480331 0.00113081 0)
(-0.0482288 0.000695205 0)
(-0.0483304 0.000256458 0)
(-0.0483374 -0.000183959 0)
(-0.0482494 -0.000624563 0)
(-0.0480668 -0.00106385 0)
(-0.0477899 -0.00150032 0)
(-0.0474195 -0.00193242 0)
(-0.0469567 -0.00235862 0)
(-0.0464031 -0.00277736 0)
(-0.0457603 -0.00318708 0)
(-0.0450305 -0.0035862 0)
(-0.0442161 -0.00397315 0)
(-0.0433199 -0.00434634 0)
(-0.042345 -0.00470421 0)
(-0.0412948 -0.00504519 0)
(-0.040173 -0.00536772 0)
(-0.0389837 -0.00567027 0)
(-0.0377313 -0.00595133 0)
(-0.0364206 -0.00620941 0)
(-0.0350564 -0.00644307 0)
(-0.0336442 -0.0066509 0)
(-0.0321893 -0.00683156 0)
(-0.0306978 -0.00698377 0)
(-0.0291756 -0.00710629 0)
(-0.027629 -0.007198 0)
(-0.0260647 -0.00725786 0)
(-0.0244892 -0.0072849 0)
(-0.0229094 -0.00727832 0)
(-0.0213324 -0.00723741 0)
(-0.0197653 -0.00716162 0)
(-0.0182151 -0.00705058 0)
(-0.0166892 -0.00690407 0)
(-0.0151947 -0.00672211 0)
(-0.0137388 -0.00650495 0)
(-0.0123283 -0.0062531 0)
(-0.0109703 -0.00596739 0)
(-0.00967111 -0.005649 0)
(-0.00843719 -0.00529951 0)
(-0.00727438 -0.00492097 0)
(-0.00618808 -0.00451602 0)
(-0.00518314 -0.00408791 0)
(-0.00426374 -0.00364069 0)
(-0.00343327 -0.00317932 0)
(-0.00269424 -0.00270986 0)
(-0.00204816 -0.00223968 0)
(-0.00149542 -0.00177772 0)
(-0.0010352 -0.00133477 0)
(-0.000665403 -0.000923896 0)
(-0.000382414 -0.000560798 0)
(-0.000180898 -0.000264258 0)
(-5.61056e-05 -5.67522e-05 0)
(-6.23962e-06 3.27036e-05 0)
(-1.04982e-05 1.74122e-05 0)
(-8.2632e-05 0.000210189 0)
(-0.000253795 0.000523352 0)
(-0.000519796 0.000927497 0)
(-0.000881785 0.0013986 0)
(-0.00134293 0.00191625 0)
(-0.00190485 0.00246334 0)
(-0.00256789 0.00302561 0)
(-0.00333132 0.00359128 0)
(-0.00419337 0.00415062 0)
(-0.00515136 0.00469567 0)
(-0.00620173 0.00521993 0)
(-0.00734015 0.00571815 0)
(-0.00856162 0.00618615 0)
(-0.00986059 0.00662061 0)
(-0.011231 0.00701898 0)
(-0.0126665 0.00737932 0)
(-0.0141602 0.00770023 0)
(-0.0157052 0.00798076 0)
(-0.0172944 0.00822034 0)
(-0.0189204 0.00841873 0)
(-0.020576 0.00857595 0)
(-0.0222537 0.00869228 0)
(-0.0239463 0.00876817 0)
(-0.0256464 0.00880425 0)
(-0.027347 0.00880131 0)
(-0.029041 0.00876024 0)
(-0.0307214 0.00868205 0)
(-0.0323815 0.00856783 0)
(-0.0340147 0.00841877 0)
(-0.0356148 0.00823609 0)
(-0.0371756 0.0080211 0)
(-0.0386912 0.00777515 0)
(-0.040156 0.00749961 0)
(-0.0415645 0.00719591 0)
(-0.0429116 0.00686552 0)
(-0.0441925 0.00650992 0)
(-0.0454025 0.00613063 0)
(-0.0465374 0.00572919 0)
(-0.0475932 0.00530715 0)
(-0.0485661 0.00486611 0)
(-0.0494527 0.00440766 0)
(-0.0502498 0.00393344 0)
(-0.0509548 0.00344509 0)
(-0.051565 0.00294428 0)
(-0.0520783 0.00243269 0)
(-0.0524929 0.00191204 0)
(-0.0528072 0.00138406 0)
(-0.05302 0.000850494 0)
(-0.0531305 0.000313115 0)
(-0.053138 -0.000226282 0)
(-0.0530425 -0.000765883 0)
(-0.0528441 -0.00130386 0)
(-0.0525433 -0.00183835 0)
(-0.0521409 -0.00236749 0)
(-0.0516381 -0.00288939 0)
(-0.0510366 -0.00340216 0)
(-0.0503382 -0.00390388 0)
(-0.0495451 -0.00439264 0)
(-0.0486601 -0.00486652 0)
(-0.0476861 -0.00532359 0)
(-0.0466265 -0.00576194 0)
(-0.0454849 -0.00617966 0)
(-0.0442653 -0.00657487 0)
(-0.0429723 -0.00694569 0)
(-0.0416105 -0.0072903 0)
(-0.0401849 -0.0076069 0)
(-0.0387009 -0.00789372 0)
(-0.0371642 -0.00814909 0)
(-0.0355809 -0.00837137 0)
(-0.0339571 -0.008559 0)
(-0.0322994 -0.00871053 0)
(-0.0306146 -0.00882457 0)
(-0.0289096 -0.0088999 0)
(-0.0271917 -0.00893538 0)
(-0.0254682 -0.00893003 0)
(-0.0237467 -0.00888303 0)
(-0.0220347 -0.00879376 0)
(-0.0203399 -0.00866178 0)
(-0.0186701 -0.00848689 0)
(-0.0170328 -0.00826915 0)
(-0.0154358 -0.00800888 0)
(-0.0138865 -0.00770678 0)
(-0.0123922 -0.00736386 0)
(-0.01096 -0.0069816 0)
(-0.00959647 -0.00656194 0)
(-0.00830809 -0.00610737 0)
(-0.00710065 -0.00562105 0)
(-0.0059794 -0.00510687 0)
(-0.00494895 -0.00456958 0)
(-0.00401313 -0.00401498 0)
(-0.00317494 -0.00345005 0)
(-0.00243641 -0.00288318 0)
(-0.00179853 -0.00232444 0)
(-0.00126122 -0.00178583 0)
(-0.000823262 -0.00128163 0)
(-0.000482079 -0.00082884 0)
(-0.000233546 -0.000447461 0)
(-7.51868e-05 -0.000161091 0)
(-9.27309e-06 3.51135e-07 0)
(-1.35018e-05 6.33721e-05 0)
(-0.000101952 0.000351203 0)
(-0.000307577 0.000762738 0)
(-0.000622078 0.00126816 0)
(-0.0010442 0.00184273 0)
(-0.00157575 0.00246519 0)
(-0.00221716 0.00311744 0)
(-0.0029677 0.00378424 0)
(-0.00382576 0.00445283 0)
(-0.00478886 0.00511253 0)
(-0.00585365 0.00575452 0)
(-0.00701601 0.00637152 0)
(-0.00827111 0.0069576 0)
(-0.00961346 0.00750794 0)
(-0.0110371 0.00801874 0)
(-0.0125355 0.008487 0)
(-0.0141017 0.00891042 0)
(-0.0157288 0.00928734 0)
(-0.0174092 0.00961658 0)
(-0.0191353 0.00989745 0)
(-0.0208994 0.0101296 0)
(-0.0226938 0.010313 0)
(-0.0245106 0.0104479 0)
(-0.0263422 0.0105349 0)
(-0.0281807 0.0105746 0)
(-0.0300186 0.010568 0)
(-0.0318484 0.010516 0)
(-0.0336627 0.0104199 0)
(-0.0354543 0.0102808 0)
(-0.0372164 0.0101003 0)
(-0.0389421 0.00987968 0)
(-0.040625 0.00962055 0)
(-0.0422587 0.00932449 0)
(-0.0438373 0.00899313 0)
(-0.045355 0.00862817 0)
(-0.0468062 0.00823134 0)
(-0.0481859 0.00780441 0)
(-0.0494891 0.00734918 0)
(-0.0507112 0.0068675 0)
(-0.0518479 0.00636121 0)
(-0.0528954 0.00583223 0)
(-0.0538498 0.00528246 0)
(-0.0547079 0.00471384 0)
(-0.0554668 0.00412835 0)
(-0.0561236 0.00352798 0)
(-0.0566762 0.00291475 0)
(-0.0571225 0.00229071 0)
(-0.0574608 0.00165791 0)
(-0.05769 0.00101847 0)
(-0.057809 0.000374483 0)
(-0.0578174 -0.000271888 0)
(-0.0577149 -0.000918481 0)
(-0.0575017 -0.0015631 0)
(-0.0571783 -0.00220354 0)
(-0.0567456 -0.00283756 0)
(-0.056205 -0.00346292 0)
(-0.055558 -0.00407734 0)
(-0.0548067 -0.00467854 0)
(-0.0539536 -0.00526425 0)
(-0.0530015 -0.00583216 0)
(-0.0519535 -0.00638 0)
(-0.0508132 -0.00690548 0)
(-0.0495845 -0.00740632 0)
(-0.0482718 -0.0078803 0)
(-0.0468798 -0.00832517 0)
(-0.0454133 -0.00873878 0)
(-0.043878 -0.00911898 0)
(-0.0422794 -0.00946369 0)
(-0.0406236 -0.00977091 0)
(-0.038917 -0.0100387 0)
(-0.0371663 -0.0102653 0)
(-0.0353783 -0.0104488 0)
(-0.0335604 -0.0105878 0)