/*--------------------------------*- C++ -*----------------------------------*\
  =========                 |
  \\      /  F ield         | OpenFOAM: The Open Source CFD Toolbox
   \\    /   O peration     | Website:  https://openfoam.org
    \\  /    A nd           | Version:  11
     \\/     M anipulation  |
\*---------------------------------------------------------------------------*/
FoamFile
{
    format      ascii;
    class       surfaceScalarField;
    location    "9.9";
    object      phi;
}
// * * * * * * * * * * * * * * * * * * * * * * * * * * * * * * * * * * * * * //

dimensions      [0 3 -1 0 0 0 0];

internalField   nonuniform List<scalar> 
19980
(
7.12138e-07
-7.11991e-07
2.41824e-06
-1.70619e-06
4.32789e-06
-1.90964e-06
5.82283e-06
-1.49493e-06
6.57177e-06
-7.48771e-07
6.39049e-06
1.81172e-07
5.18718e-06
1.20323e-06
2.9289e-06
2.25837e-06
-3.81627e-07
3.31053e-06
-4.71717e-06
4.33564e-06
-1.00358e-05
5.31869e-06
-1.62849e-05
6.24927e-06
-2.34051e-05
7.12027e-06
-3.13323e-05
7.92711e-06
-3.99996e-05
8.66729e-06
-4.93386e-05
9.3389e-06
-5.92796e-05
9.94097e-06
-6.97529e-05
1.04733e-05
-8.06894e-05
1.09367e-05
-9.20211e-05
1.13315e-05
-0.00010368
1.16588e-05
-0.0001156
1.19202e-05
-0.000127718
1.21175e-05
-0.000139969
1.22519e-05
-0.000152294
1.23249e-05
-0.000164633
1.23387e-05
-0.000176929
1.22956e-05
-0.000189126
1.21976e-05
-0.000201172
1.20462e-05
-0.000213016
1.18436e-05
-0.000224609
1.15925e-05
-0.000235904
1.12949e-05
-0.000246856
1.09525e-05
-0.000257424
1.05677e-05
-0.000267567
1.01428e-05
-0.000277246
9.67994e-06
-0.000286427
9.18107e-06
-0.000295076
8.64855e-06
-0.000303161
8.08471e-06
-0.000310652
7.49163e-06
-0.000317524
6.87149e-06
-0.000323751
6.22672e-06
-0.00032931
5.55974e-06
-0.000334183
4.87272e-06
-0.000338351
4.16762e-06
-0.000341797
3.44677e-06
-0.00034451
2.71281e-06
-0.000346478
1.96835e-06
-0.000347694
1.21586e-06
-0.000348152
4.57547e-07
-0.000347848
-3.04325e-07
-0.000346781
-1.06709e-06
-0.000344953
-1.82789e-06
-0.000342368
-2.58404e-06
-0.000339036
-3.33292e-06
-0.000334964
-4.072e-06
-0.000330165
-4.7988e-06
-0.000324654
-5.51056e-06
-0.00031845
-6.20433e-06
-0.000311573
-6.87717e-06
-0.000304046
-7.52622e-06
-0.000295898
-8.14865e-06
-0.000287156
-8.74176e-06
-0.000277853
-9.3029e-06
-0.000268024
-9.82928e-06
-0.000257706
-1.03179e-05
-0.00024694
-1.07661e-05
-0.000235769
-1.1171e-05
-0.000224239
-1.15299e-05
-0.000212399
-1.18403e-05
-0.000200299
-1.20996e-05
-0.000187994
-1.23055e-05
-0.000175538
-1.24555e-05
-0.00016299
-1.25475e-05
-0.000150411
-1.25794e-05
-0.000137862
-1.25491e-05
-0.000125407
-1.24547e-05
-0.000113113
-1.22945e-05
-0.000101045
-1.20673e-05
-8.92734e-05
-1.17719e-05
-7.78661e-05
-1.14074e-05
-6.68931e-05
-1.0973e-05
-5.64245e-05
-1.04686e-05
-4.65302e-05
-9.89427e-06
-3.72798e-05
-9.25044e-06
-2.87416e-05
-8.53821e-06
-2.09821e-05
-7.75946e-06
-1.40649e-05
-6.9171e-06
-8.04962e-06
-6.01535e-06
-2.98951e-06
-5.06014e-06
1.07035e-06
-4.05989e-06
4.09684e-06
-3.0265e-06
6.07395e-06
-1.97714e-06
7.01094e-06
-9.37043e-07
6.95523e-06
5.56755e-08
6.01313e-06
9.42122e-07
4.38244e-06
1.63072e-06
2.4079e-06
1.97452e-06
6.74952e-07
1.73292e-06
6.74969e-07
1.76617e-06
-2.47831e-06
4.8029e-06
-4.7426e-06
7.7032e-06
-4.81013e-06
9.45853e-06
-3.25032e-06
9.34871e-06
-6.39025e-07
6.91663e-06
2.6133e-06
1.89655e-06
6.22325e-06
-5.84186e-06
9.99663e-06
-1.63311e-05
1.37998e-05
-2.95357e-05
1.75399e-05
-4.53709e-05
2.11538e-05
-6.37178e-05
2.4596e-05
-8.44327e-05
2.78351e-05
-0.000107355
3.08495e-05
-0.000132312
3.36244e-05
-0.000159123
3.61498e-05
-0.000187603
3.84207e-05
-0.000217563
4.0434e-05
-0.000248816
4.21894e-05
-0.000281172
4.36881e-05
-0.000314447
4.49335e-05
-0.000348456
4.59295e-05
-0.00038302
4.66809e-05
-0.000417961
4.71934e-05
-0.00045311
4.74732e-05
-0.000488298
4.75268e-05
-0.000523363
4.73615e-05
-0.000558151
4.69848e-05
-0.000592508
4.64041e-05
-0.000626292
4.56271e-05
-0.000659361
4.4662e-05
-0.000691583
4.35169e-05
-0.000722831
4.21997e-05
-0.000752982
4.07188e-05
-0.000781922
3.90826e-05
-0.000809542
3.72994e-05
-0.000835738
3.53776e-05
-0.000860416
3.33257e-05
-0.000883483
3.11523e-05
-0.000904857
2.88657e-05
-0.00092446
2.64747e-05
-0.000942222
2.39883e-05
-0.000958078
2.14155e-05
-0.00097197
1.87648e-05
-0.000983847
1.60451e-05
-0.000993666
1.32654e-05
-0.00100139
1.04354e-05
-0.00100698
7.5645e-06
-0.00101043
4.6621e-06
-0.00101171
1.73756e-06
-0.00101082
-1.19949e-06
-0.00100774
-4.13912e-06
-0.0010025
-7.07103e-06
-0.0009951
-9.98492e-06
-0.000985562
-1.28707e-05
-0.000973916
-1.57181e-05
-0.000960198
-1.85167e-05
-0.000944452
-2.12562e-05
-0.000926731
-2.39257e-05
-0.000907094
-2.6514e-05
-0.00088561
-2.90103e-05
-0.000862354
-3.14038e-05
-0.000837412
-3.36838e-05
-0.000810876
-3.58397e-05
-0.000782844
-3.78607e-05
-0.000753426
-3.97361e-05
-0.000722737
-4.14553e-05
-0.0006909
-4.30078e-05
-0.000658046
-4.43836e-05
-0.000624314
-4.55727e-05
-0.000589848
-4.65656e-05
-0.0005548
-4.73533e-05
-0.000519328
-4.79271e-05
-0.000483597
-4.82786e-05
-0.000447777
-4.84e-05
-0.000412042
-4.82841e-05
-0.000376572
-4.79244e-05
-0.000341552
-4.73151e-05
-0.000307167
-4.64515e-05
-0.000273609
-4.53299e-05
-0.000241069
-4.39475e-05
-0.000209739
-4.23032e-05
-0.000179811
-4.0397e-05
-0.000151474
-3.82306e-05
-0.000124917
-3.58079e-05
-0.00010032
-3.31353e-05
-7.78567e-05
-3.02225e-05
-5.76904e-05
-2.70834e-05
-3.99684e-05
-2.37375e-05
-2.48172e-05
-2.02113e-05
-1.23358e-05
-1.65413e-05
-2.58501e-06
-1.27773e-05
4.42592e-06
-8.98814e-06
8.75887e-06
-5.27e-06
1.0574e-05
-1.75938e-06
1.01674e-05
1.34871e-06
8.02232e-06
3.77585e-06
4.86881e-06
5.12799e-06
1.73352e-06
4.86825e-06
2.40848e-06
1.922e-06
-4.40031e-06
4.8673e-06
-7.68803e-06
7.06087e-06
-7.0034e-06
7.2773e-06
-3.467e-06
4.62111e-06
2.01761e-06
-1.52166e-06
8.75589e-06
-1.15345e-05
1.62361e-05
-2.56239e-05
2.40863e-05
-4.38619e-05
3.20376e-05
-6.62191e-05
3.98973e-05
-9.25897e-05
4.75244e-05
-0.000122812
5.48181e-05
-0.000156682
6.17051e-05
-0.000193965
6.81329e-05
-0.000234406
7.40651e-05
-0.000277732
7.94767e-05
-0.000323663
8.43511e-05
-0.000371909
8.868e-05
-0.00042218
9.24598e-05
-0.000474183
9.56913e-05
-0.000527628
9.83784e-05
-0.000582227
0.000100528
-0.000637697
0.000102151
-0.00069376
0.000103257
-0.000750145
0.000103857
-0.000806585
0.000103968
-0.000862826
0.000103602
-0.000918616
0.000102776
-0.000973717
0.000101504
-0.00102789
9.98048e-05
-0.00108093
9.76946e-05
-0.0011326
9.51906e-05
-0.00118271
9.23102e-05
-0.00123106
8.90715e-05
-0.00127747
8.54924e-05
-0.00132177
8.15911e-05
-0.00136377
7.73863e-05
-0.00140334
7.28963e-05
-0.00144033
6.81398e-05
-0.0014746
6.31356e-05
-0.00150603
5.79027e-05
-0.0015345
5.24607e-05
-0.00155992
4.68288e-05
-0.00158218
4.10264e-05
-0.00160121
3.50733e-05
-0.00161693
2.89895e-05
-0.00162929
2.27956e-05
-0.00163824
1.65122e-05
-0.00164374
1.01602e-05
-0.00164576
3.76036e-06
-0.00164429
-2.66585e-06
-0.00163933
-9.09674e-06
-0.00163089
-1.55103e-05
-0.001619
-2.1884e-05
-0.00160367
-2.81953e-05
-0.00158497
-3.44217e-05
-0.00156294
-4.05404e-05
-0.00153767
-4.65281e-05
-0.00150924
-5.23614e-05
-0.00147773
-5.80167e-05
-0.00144327
-6.34701e-05
-0.00140598
-6.8698e-05
-0.00136599
-7.36769e-05
-0.00132344
-7.83836e-05
-0.00127851
-8.27947e-05
-0.00123136
-8.68871e-05
-0.00118217
-9.06378e-05
-0.00113116
-9.40246e-05
-0.00107852
-9.70253e-05
-0.00102447
-9.96189e-05
-0.000969251
-0.000101785
-0.0009131
-0.000103504
-0.00085627
-0.000104757
-0.000799022
-0.000105527
-0.000741625
-0.000105797
-0.000684357
-0.000105553
-0.000627501
-0.00010478
-0.000571348
-0.000103468
-0.000516191
-0.000101608
-0.00046233
-9.91915e-05
-0.000410063
-9.62149e-05
-0.000359689
-9.26768e-05
-0.000311507
-8.85792e-05
-0.000265809
-8.39284e-05
-0.000222882
-7.87354e-05
-0.000182999
-7.30174e-05
-0.000146423
-6.67989e-05
-0.000113392
-6.01141e-05
-8.41205e-05
-5.30092e-05
-5.87857e-05
-4.55461e-05
-3.75196e-05
-3.78075e-05
-2.03932e-05
-2.99038e-05
-7.39832e-06
-2.19831e-05
1.57731e-06
-1.42456e-05
6.78114e-06
-6.96323e-06
8.63579e-06
-5.05933e-07
7.78714e-06
4.62451e-06
5.15511e-06
7.76004e-06
1.98317e-06
8.04019e-06
4.39166e-06
1.53341e-06
-5.93369e-06
3.35737e-06
-9.512e-06
3.61525e-06
-7.26158e-06
9.93971e-07
-8.45502e-07
-5.47478e-06
8.4861e-06
-1.64735e-05
1.97547e-05
-3.24467e-05
3.22093e-05
-5.36458e-05
4.52853e-05
-8.01686e-05
5.85603e-05
-0.00011199
7.1719e-05
-0.000148992
8.45261e-05
-0.000190981
9.68071e-05
-0.000237709
0.000108433
-0.000288884
0.000119308
-0.000344184
0.000129365
-0.000403263
0.000138555
-0.000465758
0.000146846
-0.000531297
0.000154219
-0.000599499
0.000160663
-0.000669984
0.000166176
-0.000742368
0.000170763
-0.000816272
0.000174433
-0.000891321
0.0001772
-0.000967145
0.000179081
-0.00104338
0.000180096
-0.00111968
0.000180266
-0.0011957
0.000179617
-0.00127109
0.000178173
-0.00134555
0.000175962
-0.00141876
0.00017301
-0.00149041
0.000169348
-0.00156022
0.000165004
-0.00162792
0.000160009
-0.00169324
0.000154393
-0.00175594
0.000148187
-0.00181577
0.000141422
-0.00187251
0.00013413
-0.00192596
0.000126344
-0.00197592
0.000118095
-0.0020222
0.000109417
-0.00206464
0.000100342
-0.00210308
9.09042e-05
-0.00213739
8.1137e-05
-0.00216744
7.10743e-05
-0.00219311
6.07507e-05
-0.00221433
5.02011e-05
-0.00223099
3.94609e-05
-0.00224304
2.85659e-05
-0.00225044
1.75525e-05
-0.00225313
6.45735e-06
-0.00225112
-4.68254e-06
-0.00224438
-1.58294e-05
-0.00223295
-2.69449e-05
-0.00221684
-3.79904e-05
-0.00219611
-4.89267e-05
-0.00217082
-5.97145e-05
-0.00214105
-7.0314e-05
-0.00210689
-8.0685e-05
-0.00206846
-9.07871e-05
-0.0020259
-0.000100579
-0.00197935
-0.000110021
-0.00192898
-0.000119071
-0.00187496
-0.00012769
-0.00181751
-0.000135836
-0.00175684
-0.000143469
-0.00169317
-0.00015055
-0.00162677
-0.00015704
-0.0015579
-0.000162899
-0.00148683
-0.000168092
-0.00141387
-0.000172582
-0.00133932
-0.000176333
-0.00126351
-0.000179313
-0.00118678
-0.00018149
-0.00110947
-0.000182835
-0.00103195
-0.00018332
-0.000954577
-0.000182921
-0.000877741
-0.000181616
-0.000801823
-0.000179387
-0.000727212
-0.000176219
-0.000654302
-0.000172101
-0.000583488
-0.000167029
-0.000515163
-0.000161002
-0.000449716
-0.000154026
-0.000387529
-0.000146116
-0.00032897
-0.000137294
-0.000274394
-0.000127593
-0.000224132
-0.000117061
-0.000178486
-0.000105761
-0.00013772
-9.37753e-05
-0.00010205
-8.12157e-05
-7.16321e-05
-6.82257e-05
-4.65421e-05
-5.49937e-05
-2.67586e-05
-4.17667e-05
-1.21358e-05
-2.88684e-05
-2.37391e-06
-1.67251e-05
3.01778e-06
-5.89764e-06
4.76276e-06
2.87952e-06
3.86291e-06
8.65985e-06
1.65783e-06
1.02453e-05
6.04952e-06
8.13591e-07
-6.74719e-06
8.20344e-07
-9.51887e-06
-1.74192e-06
-4.69891e-06
-8.1609e-06
5.57304e-06
-1.9397e-05
1.97224e-05
-3.61407e-05
3.64983e-05
-5.88508e-05
5.49192e-05
-8.77919e-05
7.42267e-05
-0.000123069
9.38371e-05
-0.000164653
0.000113303
-0.000212411
0.000132285
-0.000266126
0.000150522
-0.000325511
0.000167818
-0.000390228
0.000184026
-0.0004599
0.000199037
-0.00053412
0.000212775
-0.000612456
0.000225183
-0.000694464
0.000236227
-0.000779687
0.000245887
-0.000867667
0.000254155
-0.00095794
0.000261035
-0.00105004
0.000266537
-0.00114352
0.000270679
-0.00123793
0.000273484
-0.00133281
0.00027498
-0.00142774
0.000275199
-0.0015223
0.000274175
-0.00161607
0.000271945
-0.00170866
0.00026855
-0.00179968
0.00026403
-0.00188876
0.000258428
-0.00197555
0.000251789
-0.00205969
0.000244158
-0.00214088
0.00023558
-0.0022188
0.000226103
-0.00229315
0.000215775
-0.00236366
0.000204642
-0.00243008
0.000192755
-0.00249214
0.000180162
-0.00254964
0.000166914
-0.00260236
0.000153061
-0.00265011
0.000138654
-0.00269272
0.000123745
-0.00273003
0.000108385
-0.0027619
9.26273e-05
-0.00278823
7.65257e-05
-0.0028089
6.01341e-05
-0.00282384
4.35073e-05
-0.00283299
2.67008e-05
-0.00283631
9.77064e-06
-0.00283376
-7.2262e-06
-0.00282536
-2.42322e-05
-0.00281111
-4.11888e-05
-0.00279107
-5.8037e-05
-0.00276528
-7.47172e-05
-0.00273382
-9.11692e-05
-0.0026968
-0.000107332
-0.00265434
-0.000123145
-0.00260659
-0.000138546
-0.00255369
-0.000153474
-0.00249585
-0.000167865
-0.00243326
-0.000181659
-0.00236615
-0.000194794
-0.00229478
-0.000207208
-0.00221941
-0.000218841
-0.00214033
-0.000229632
-0.00205784
-0.000239523
-0.00197229
-0.000248455
-0.00188401
-0.000256373
-0.00179337
-0.000263222
-0.00170075
-0.000268951
-0.00160655
-0.000273508
-0.0015112
-0.000276848
-0.00141511
-0.000278927
-0.00131872
-0.000279704
-0.0012225
-0.000279144
-0.0011269
-0.000277216
-0.00103239
-0.000273894
-0.000939453
-0.000269157
-0.000848562
-0.000262992
-0.000760197
-0.000255394
-0.000674832
-0.000246366
-0.000592938
-0.000235921
-0.00051497
-0.000224083
-0.000441372
-0.000210892
-0.000372561
-0.000196404
-0.00030893
-0.000180693
-0.000250831
-0.000163859
-0.000198572
-0.000146035
-0.0001524
-0.000127387
-0.000112492
-0.000108134
-7.89313e-05
-8.85542e-05
-5.16943e-05
-6.90038e-05
-3.06217e-05
-4.9941e-05
-1.53934e-05
-3.19534e-05
-5.49694e-06
-1.57942e-05
-1.91696e-07
-2.42576e-06
1.53037e-06
6.93773e-06
9.99096e-07
1.07765e-05
7.04861e-06
-8.82627e-08
-6.65889e-06
-2.35375e-06
-7.25325e-06
-8.35031e-06
1.29749e-06
-1.9256e-05
1.64789e-05
-3.5966e-05
3.64323e-05
-5.91298e-05
5.96623e-05
-8.91833e-05
8.49725e-05
-0.000126376
0.000111419
-0.000170799
0.00013826
-0.00022241
0.000164915
-0.000281056
0.000190931
-0.000346492
0.000215957
-0.000418397
0.000239723
-0.000496395
0.000262024
-0.00058006
0.000282702
-0.00066893
0.000301645
-0.000762518
0.00031877
-0.000860315
0.000334023
-0.000961799
0.000347371
-0.00106644
0.000358798
-0.00117371
0.000368303
-0.00128307
0.000375897
-0.00139399
0.0003816
-0.00150595
0.000385443
-0.00161843
0.000387462
-0.00173093
0.000387697
-0.00184295
0.000386195
-0.00195401
0.000383007
-0.00206365
0.000378187
-0.00217141
0.00037179
-0.00227686
0.000363877
-0.00237957
0.000354507
-0.00247916
0.000343744
-0.00257523
0.000331652
-0.00266742
0.000318295
-0.00275539
0.000303742
-0.00283881
0.000288058
-0.00291736
0.000271313
-0.00299078
0.000253575
-0.00305878
0.000234915
-0.00312112
0.000215405
-0.00317758
0.000195115
-0.00322796
0.000174119
-0.00327206
0.000152489
-0.00330973
0.000130301
-0.00334084
0.00010763
-0.00336526
8.45517e-05
-0.00338289
6.11438e-05
-0.00339368
3.74844e-05
-0.00339756
1.36527e-05
-0.00339451
-1.02712e-05
-0.00338454
-3.42059e-05
-0.00336766
-5.80694e-05
-0.00334392
-8.17784e-05
-0.00331339
-0.000105249
-0.00327616
-0.000128397
-0.00323235
-0.000151136
-0.00318212
-0.000173381
-0.00312562
-0.000195045
-0.00306305
-0.000216042
-0.00299463
-0.000236284
-0.00292061
-0.000255685
-0.00284124
-0.000274158
-0.00275683
-0.000291618
-0.00266769
-0.00030798
-0.00257417
-0.00032316
-0.00247661
-0.000337076
-0.00237542
-0.000349647
-0.002271
-0.000360796
-0.00216377
-0.000370448
-0.00205419
-0.000378529
-0.00194273
-0.000384972
-0.00182987
-0.000389712
-0.00171611
-0.000392689
-0.00160196
-0.00039385
-0.00148796
-0.000393145
-0.00137464
-0.000390533
-0.00126256
-0.000385981
-0.00115225
-0.000379462
-0.00104428
-0.000370962
-0.000939199
-0.000360476
-0.000837554
-0.000348011
-0.000739884
-0.000333591
-0.000646713
-0.000317254
-0.000558544
-0.000299061
-0.000475856
-0.000279092
-0.000399089
-0.000257459
-0.000328644
-0.000234305
-0.000264864
-0.000209815
-0.000208027
-0.000184224
-0.000158333
-0.000157829
-0.00011588
-0.000131007
-8.06541e-05
-0.00010423
-5.25032e-05
-7.8092e-05
-3.1115e-05
-5.33416e-05
-1.59921e-05
-3.09171e-05
-6.42365e-06
-1.19943e-05
-1.45483e-06
1.96887e-06
1.52363e-07
9.16932e-06
7.20093e-06
-1.08446e-06
-5.57456e-06
-5.89929e-06
-2.43857e-06
-1.57327e-05
1.11309e-05
-3.16018e-05
3.2348e-05
-5.42908e-05
5.9121e-05
-8.43719e-05
8.97433e-05
-0.000122227
0.000122828
-0.000168067
0.000157259
-0.000221952
0.000192145
-0.000283812
0.000226774
-0.000353464
0.000260583
-0.000430634
0.000293127
-0.000514967
0.000324057
-0.000606048
0.000353104
-0.000703407
0.000380061
-0.000806535
0.000404774
-0.000914894
0.000427128
-0.00102792
0.000447047
-0.00114503
0.000464481
-0.00126563
0.000479404
-0.00138914
0.000491808
-0.00151495
0.000501704
-0.00164246
0.000509116
-0.0017711
0.000514077
-0.00190027
0.000516631
-0.0020294
0.000516831
-0.00215794
0.000514736
-0.00228534
0.00051041
-0.00241108
0.000503922
-0.00253464
0.000495346
-0.00265552
0.000484759
-0.00277325
0.000472239
-0.00288738
0.00045787
-0.00299746
0.000441735
-0.00310309
0.000423921
-0.00320386
0.000404515
-0.00329941
0.000383607
-0.00338938
0.000361288
-0.00347346
0.000337649
-0.00355133
0.000312784
-0.00362271
0.000286788
-0.00368735
0.000259755
-0.00374501
0.000231784
-0.0037955
0.000202971
-0.00383861
0.000173415
-0.0038742
0.000143218
-0.00390213
0.000112481
-0.00392229
8.13068e-05
-0.00393461
4.97998e-05
-0.00393902
1.80654e-05
-0.0039355
-1.37894e-05
-0.00392405
-4.56567e-05
-0.00390469
-7.74268e-05
-0.00387748
-0.000108989
-0.0038425
-0.000140233
-0.00379985
-0.000171044
-0.00374968
-0.00020131
-0.00369214
-0.000230917
-0.00362744
-0.000259749
-0.00355579
-0.000287692
-0.00347744
-0.000314631
-0.00339267
-0.000340451
-0.00330179
-0.000365037
-0.00320513
-0.000388277
-0.00310306
-0.000410057
-0.00299595
-0.000430268
-0.00288422
-0.000448802
-0.00276832
-0.000465552
-0.0026487
-0.000480416
-0.00252585
-0.000493295
-0.00240028
-0.000504096
-0.00227253
-0.000512727
-0.00214313
-0.000519107
-0.00201267
-0.000523156
-0.00188171
-0.000524806
-0.00175086
-0.000523995
-0.00162072
-0.00052067
-0.00149191
-0.000514789
-0.00136505
-0.000506322
-0.00124076
-0.000495251
-0.00111966
-0.000481575
-0.00100237
-0.000465309
-0.000889471
-0.000446486
-0.000781562
-0.000425164
-0.000679198
-0.000401425
-0.000582907
-0.000375383
-0.00049318
-0.000347187
-0.000410455
-0.000317029
-0.000335115
-0.000285155
-0.000267468
-0.00025187
-0.000207741
-0.000217557
-0.000156057
-0.000182691
-0.000112424
-0.000147863
-7.67153e-05
-0.0001138
-4.86521e-05
-8.14049e-05
-2.77816e-05
-5.17877e-05
-1.34589e-05
-2.63171e-05
-4.82676e-06
-6.66328e-06
-7.9421e-07
5.13674e-06
6.4067e-06
-2.12219e-06
-3.45219e-06
-9.63866e-06
5.07782e-06
-2.35566e-05
2.50491e-05
-4.46999e-05
5.34913e-05
-7.37119e-05
8.81333e-05
-0.000111062
0.000127094
-0.000157053
0.000168819
-0.000211837
0.000212043
-0.000275425
0.000255733
-0.000347707
0.000299056
-0.000428463
0.00034134
-0.000517383
0.000382046
-0.000614076
0.00042075
-0.000718085
0.000457114
-0.000828902
0.000490878
-0.000945972
0.000521844
-0.00106871
0.000549864
-0.0011965
0.000574836
-0.0013287
0.000596689
-0.00146469
0.000615386
-0.00160379
0.000630912
-0.00174536
0.000643275
-0.00188875
0.0006525
-0.00203329
0.000658625
-0.00217837
0.000661704
-0.00232333
0.000661797
-0.00246758
0.000658979
-0.00261049
0.000653326
-0.0027515
0.000644927
-0.00289002
0.00063387
-0.00302551
0.000620254
-0.00315745
0.000604177
-0.00328533
0.000585743
-0.00340865
0.000565059
-0.00352696
0.000542234
-0.00363983
0.000517378
-0.00374683
0.000490607
-0.00384757
0.000462034
-0.0039417
0.000431778
-0.00402887
0.000399957
-0.00410878
0.000366692
-0.00418113
0.000332104
-0.00424566
0.000296318
-0.00430215
0.000259459
-0.00435039
0.000221654
-0.0043902
0.00018303
-0.00442144
0.000143718
-0.00444398
0.00010385
-0.00445774
6.3559e-05
-0.00446265
2.29798e-05
-0.00445869
-1.77509e-05
-0.00444585
-5.8495e-05
-0.00442417
-9.91127e-05
-0.00439369
-0.000139463
-0.00435452
-0.000179403
-0.00430678
-0.00021879
-0.00425061
-0.000257478
-0.0041862
-0.000295322
-0.00411378
-0.000332177
-0.00403357
-0.000367895
-0.00394587
-0.00040233
-0.00385099
-0.000435336
-0.00374926
-0.000466769
-0.00364105
-0.000496483
-0.00352677
-0.000524337
-0.00340685
-0.000550192
-0.00328174
-0.000573909
-0.00315194
-0.000595355
-0.00301795
-0.000614402
-0.00288032
-0.000630923
-0.00273962
-0.000644802
-0.00259642
-0.000655925
-0.00245134
-0.000664188
-0.002305
-0.000669494
-0.00215805
-0.000671757
-0.00201114
-0.000670901
-0.00186495
-0.000666862
-0.00172015
-0.00065959
-0.00157742
-0.00064905
-0.00143745
-0.000635224
-0.00130091
-0.000618114
-0.00116848
-0.000597742
-0.00104081
-0.000574157
-0.000918537
-0.000547435
-0.000802275
-0.000517687
-0.000692598
-0.00048506
-0.000590039
-0.000449745
-0.00049508
-0.000411988
-0.00040814
-0.000372096
-0.000329561
-0.000330448
-0.000259604
-0.000287514
-0.000198425
-0.00024387
-0.000146069
-0.000200219
-0.000102451
-0.000157418
-6.73444e-05
-0.000116512
-4.03655e-05
-7.87667e-05
-2.09628e-05
-4.57199e-05
-8.40722e-06
-1.92189e-05
-1.78637e-06
-1.48417e-06
4.62033e-06
-3.16898e-06
-2.83296e-07
-1.34567e-05
1.53654e-05
-3.15935e-05
4.31857e-05
-5.81963e-05
8.00941e-05
-9.37506e-05
0.000123687
-0.000138602
0.000171945
-0.000192959
0.000223176
-0.000256895
0.000275979
-0.00033036
0.000329198
-0.000413192
0.000381887
-0.000505125
0.000433273
-0.000605805
0.000482727
-0.000714802
0.000529746
-0.000831617
0.000573929
-0.0009557
0.000614961
-0.00108645
0.000652597
-0.00122324
0.000686655
-0.00136541
0.000717004
-0.00151228
0.000743554
-0.00166314
0.000766252
-0.00181731
0.000785076
-0.00197406
0.000800028
-0.0021327
0.000811135
-0.00229251
0.000818441
-0.00245281
0.000822005
-0.00261292
0.0008219
-0.00277215
0.000818212
-0.00292986
0.000811036
-0.00308541
0.000800474
-0.00323817
0.000786638
-0.00338756
0.000769642
-0.003533
0.00074961
-0.00367392
0.000726668
-0.00380981
0.000700945
-0.00394015
0.000672577
-0.00406447
0.0006417
-0.00418232
0.000608453
-0.00429326
0.00057298
-0.00439691
0.000535424
-0.00449289
0.000495934
-0.00458085
0.000454657
-0.00466049
0.000411745
-0.00473153
0.000367351
-0.0047937
0.00032163
-0.00484678
0.000274739
-0.00489059
0.000226837
-0.00492496
0.000178086
-0.00494975
0.000128648
-0.00496488
7.86888e-05
-0.00497028
2.83753e-05
-0.00496591
-2.21233e-05
-0.00495177
-7.26358e-05
-0.00492789
-0.000122989
-0.00489434
-0.00017301
-0.00485123
-0.00022252
-0.00479867
-0.000271343
-0.00473685
-0.0003193
-0.00466596
-0.000366211
-0.00458624
-0.000411895
-0.00449797
-0.000456173
-0.00440143
-0.000498863
-0.00429698
-0.000539785
-0.00418499
-0.000578762
-0.00406586
-0.000615614
-0.00394003
-0.000650169
-0.00380797
-0.000682254
-0.00367018
-0.0007117
-0.00352719
-0.000738343
-0.00337956
-0.000762027
-0.00322789
-0.000782597
-0.00307278
-0.00079991
-0.00291488
-0.000813828
-0.00275484
-0.000824225
-0.00259335
-0.000830984
-0.00243111
-0.000834001
-0.00226882
-0.000833185
-0.00210722
-0.000828461
-0.00194704
-0.00081977
-0.00178902
-0.000807072
-0.0016339
-0.00079035
-0.0014824
-0.00076961
-0.00133526
-0.000744884
-0.00119318
-0.000716237
-0.00105685
-0.000683766
-0.000926922
-0.000647611
-0.000804027
-0.000607954
-0.000688738
-0.000565035
-0.000581576
-0.00051915
-0.000483001
-0.000470671
-0.000393396
-0.000420053
-0.000313059
-0.000367851
-0.000242191
-0.000314738
-0.000180884
-0.000261526
-0.000129109
-0.000209193
-8.67084e-05
-0.000158912
-5.33866e-05
-0.000112088
-2.87044e-05
-7.04021e-05
-1.20792e-05
-3.58441e-05
-2.79136e-06
-1.0772e-05
1.82898e-06
-4.20566e-06
3.92256e-06
-1.72798e-05
2.84392e-05
-3.96892e-05
6.55952e-05
-7.18443e-05
0.000112249
-0.000114063
0.000165906
-0.000166556
0.000224438
-0.000229421
0.000286042
-0.000302645
0.000349202
-0.000386103
0.000412656
-0.000479569
0.000475354
-0.000582724
0.000536428
-0.000695165
0.000595168
-0.000816416
0.000650997
-0.000945934
0.000703448
-0.00108313
0.000752152
-0.00122735
0.000796821
-0.00137793
0.000837236
-0.00153416
0.000873236
-0.00169532
0.00090471
-0.00186065
0.000931589
-0.00202942
0.000953843
-0.00220086
0.00097147
-0.00237422
0.000984496
-0.00254875
0.000992969
-0.0027237
0.000996956
-0.00289835
0.000996542
-0.00307196
0.000991825
-0.00324384
0.000982917
-0.0034133
0.000969937
-0.00357968
0.000953018
-0.00374234
0.000932297
-0.00390065
0.000907919
-0.00405401
0.000880034
-0.00420187
0.000848799
-0.00434366
0.000814374
-0.00447889
0.000776924
-0.00460705
0.000736616
-0.00472769
0.000693622
-0.00484038
0.000648116
-0.00494473
0.000600276
-0.00504035
0.00055028
-0.00512692
0.000498311
-0.00520412
0.000444554
-0.00527169
0.000389197
-0.00532938
0.000332429
-0.00537698
0.000274442
-0.00541433
0.000215431
-0.00544127
0.000155594
-0.00545771
9.51292e-05
-0.00546358
3.42392e-05
-0.00545883
-2.68718e-05
-0.00544347
-8.79973e-05
-0.00541753
-0.000148928
-0.00538108
-0.000209454
-0.00533424
-0.000269363
-0.00527714
-0.000328439
-0.00520998
-0.000386468
-0.00513295
-0.000443233
-0.00504633
-0.000498516
-0.00495041
-0.000552101
-0.0048455
-0.000603769
-0.00473198
-0.000653304
-0.00461025
-0.000700492
-0.00448074
-0.00074512
-0.00434394
-0.000786978
-0.00420033
-0.000825859
-0.00405047
-0.000861562
-0.00389492
-0.000893891
-0.00373429
-0.000922656
-0.00356921
-0.000947676
-0.00340034
-0.000968779
-0.00322837
-0.0009858
-0.003054
-0.000998591
-0.00287797
-0.00100701
-0.00270103
-0.00101094
-0.00252395
-0.00101027
-0.00234749
-0.00100492
-0.00217245
-0.000994812
-0.00199961
-0.000979909
-0.00182977
-0.000960191
-0.00166371
-0.00093567
-0.0015022
-0.00090639
-0.00134601
-0.00087243
-0.00119586
-0.000833913
-0.00105247
-0.000791007
-0.000916487
-0.000743934
-0.000788545
-0.000692977
-0.000669205
-0.000638489
-0.000558971
-0.000580905
-0.00045827
-0.000520754
-0.000367447
-0.000458675
-0.000286753
-0.000395432
-0.00021634
-0.00033194
-0.000156246
-0.000269287
-0.000106396
-0.000208762
-6.65948e-05
-0.00015189
-3.65274e-05
-0.00010047
-1.57672e-05
-5.66044e-05
-3.78974e-06
-2.27495e-05
-1.96079e-06
-5.22151e-06
9.14411e-06
-2.10608e-05
4.42785e-05
-4.77432e-05
9.22774e-05
-8.5476e-05
0.000149982
-0.000134408
0.000214838
-0.000194608
0.000284639
-0.000266058
0.000357492
-0.000348644
0.000431788
-0.000442159
0.000506171
-0.000546306
0.000579501
-0.000660704
0.000650826
-0.000784894
0.000719358
-0.000918349
0.000784451
-0.00106048
0.000845578
-0.00121065
0.000902318
-0.00136816
0.000954339
-0.00153231
0.00100138
-0.00170234
0.00104326
-0.00187748
0.00107985
-0.00205694
0.00111105
-0.00223993
0.00113683
-0.00242565
0.00115719
-0.00261329
0.00117214
-0.00280206
0.00118174
-0.00299117
0.00118606
-0.00317984
0.00118521
-0.0033673
0.00117929
-0.00355282
0.00116843
-0.00373565
0.00115277
-0.0039151
0.00113247
-0.00409048
0.00110767
-0.00426112
0.00107856
-0.0044264
0.00104531
-0.0045857
0.0010081
-0.00473845
0.000967121
-0.00488409
0.000922565
-0.0050221
0.000874631
-0.005152
0.000823521
-0.00527332
0.00076944
-0.00538565
0.000712598
-0.00548857
0.000653207
-0.00558175
0.000591483
-0.00566484
0.000527644
-0.00573755
0.000461913
-0.00579964
0.000394514
-0.00585087
0.000325674
-0.00589106
0.000255625
-0.00592007
0.000184599
-0.00593777
0.000112833
-0.0059441
4.05663e-05
-0.00593901
-3.19599e-05
-0.00592251
-0.000104501
-0.00589463
-0.00017681
-0.00585545
-0.000248637
-0.00580508
-0.000319731
-0.00574368
-0.000389839
-0.00567144
-0.000458705
-0.0055886
-0.000526075
-0.00549542
-0.000591692
-0.00539223
-0.000655298
-0.00527936
-0.000716637
-0.00515721
-0.000775454
-0.0050262
-0.000831497
-0.00488681
-0.000884513
-0.00473953
-0.000934257
-0.0045849
-0.000980485
-0.00442351
-0.00102296
-0.00425594
-0.00106145
-0.00408286
-0.00109574
-0.00390493
-0.00112561
-0.00372285
-0.00115086
-0.00353735
-0.0011713
-0.0033492
-0.00118675
-0.00315915
-0.00119706
-0.00296802
-0.00120207
-0.00277661
-0.00120168
-0.00258576
-0.00119578
-0.00239628
-0.00118429
-0.00220903
-0.00116716
-0.00202483
-0.00114438
-0.00184453
-0.00111597
-0.00166895
-0.00108198
-0.00149888
-0.0010425
-0.00133511
-0.000997682
-0.00117839
-0.000947727
-0.00102943
-0.000892893
-0.000888898
-0.00083351
-0.000757403
-0.000769984
-0.000635496
-0.000702813
-0.000523653
-0.000632597
-0.000422273
-0.000560054
-0.000331667
-0.000486037
-0.000252052
-0.000411555
-0.000183546
-0.000337793
-0.000126164
-0.000266144
-7.98189e-05
-0.000198235
-4.43284e-05
-0.00013596
-1.94238e-05
-8.1509e-05
-4.77032e-06
-3.74031e-05
-6.73114e-06
-6.2107e-06
1.5355e-05
-2.47731e-05
6.28406e-05
-5.56912e-05
0.000123195
-9.89801e-05
0.000193271
-0.000154621
0.000270479
-0.000222541
0.000352559
-0.000302597
0.000437548
-0.000394572
0.000523763
-0.000498168
0.000609767
-0.00061301
0.000694343
-0.000738648
0.000776464
-0.000874562
0.000855273
-0.00102017
0.000930059
-0.00117483
0.00100024
-0.00133786
0.00106535
-0.00150852
0.001125
-0.00168605
0.00117891
-0.00186966
0.00122687
-0.00205852
0.00126872
-0.00225182
0.00130435
-0.00244872
0.00133373
-0.00264836
0.00135683
-0.0028499
0.00137368
-0.00305252
0.00138435
-0.00325536
0.00138891
-0.00345762
0.00138747
-0.00365848
0.00138016
-0.00385717
0.00136712
-0.00405291
0.00134851
-0.00424495
0.00132451
-0.00443258
0.0012953
-0.00461509
0.00126107
-0.00479182
0.00122204
-0.00496211
0.0011784
-0.00512537
0.00113038
-0.00528101
0.0010782
-0.00542847
0.00102209
-0.00556724
0.000962292
-0.00569684
0.000899035
-0.0058168
0.000832566
-0.00592673
0.000763132
-0.00602623
0.000690983
-0.00611496
0.000616375
-0.00619261
0.000539564
-0.00625891
0.000460814
-0.00631362
0.000380389
-0.00635656
0.000298558
-0.00638755
0.000215591
-0.00640648
0.000131766
-0.00641327
4.73585e-05
-0.00640789
-3.73483e-05
-0.00639032
-0.00012207
-0.00636061
-0.00020652
-0.00631884
-0.000290407
-0.00626513
-0.00037344
-0.00619964
-0.000455323
-0.00612259
-0.00053576
-0.00603421
-0.000614455
-0.00593479
-0.000691109
-0.00582466
-0.000765423
-0.0057042
-0.000837101
-0.00557381
-0.000905846
-0.00543394
-0.000971364
-0.00528509
-0.00103336
-0.00512778
-0.00109156
-0.0049626
-0.00114567
-0.00479013
-0.00119543
-0.00461103
-0.00124055
-0.00442597
-0.0012808
-0.00423566
-0.00131592
-0.00404085
-0.00134567
-0.00384229
-0.00136985
-0.0036408
-0.00138824
-0.00343719
-0.00140067
-0.00323229
-0.00140697
-0.00302697
-0.001407
-0.00282209
-0.00140065
-0.00261854
-0.00138784
-0.00241719
-0.0013685
-0.00221894
-0.00134263
-0.00202466
-0.00131025
-0.00183522
-0.00127142
-0.00165147
-0.00122625
-0.00147423
-0.00117492
-0.00130431
-0.00111765
-0.00114245
-0.00105475
-0.000989381
-0.000986582
-0.000845751
-0.000913613
-0.000712166
-0.000836398
-0.000589156
-0.000755607
-0.00047718
-0.00067203
-0.000376615
-0.000586603
-0.00028775
-0.000500419
-0.000210789
-0.000414754
-0.000145845
-0.000331088
-9.2946e-05
-0.000251134
-5.20421e-05
-0.000176864