/*--------------------------------*- C++ -*----------------------------------*\
  =========                 |
  \\      /  F ield         | OpenFOAM: The Open Source CFD Toolbox
   \\    /   O peration     | Website:  https://openfoam.org
    \\  /    A nd           | Version:  11
     \\/     M anipulation  |
\*---------------------------------------------------------------------------*/
FoamFile
{
    format      ascii;
    class       volVectorField;
    location    "9.9";
    object      U;
}
// * * * * * * * * * * * * * * * * * * * * * * * * * * * * * * * * * * * * * //

dimensions      [0 1 -1 0 0 0 0];

internalField   nonuniform List<vector> 
10100
(
(3.42702e-06 -2.66993e-06 0)
(1.50005e-05 -7.34361e-06 0)
(3.41914e-05 -8.87826e-06 0)
(5.19739e-05 -7.66955e-06 0)
(6.38333e-05 -5.15007e-06 0)
(6.70055e-05 -2.00352e-06 0)
(6.02472e-05 1.39929e-06 0)
(4.29954e-05 4.85144e-06 0)
(1.5141e-05 8.23289e-06 0)
(-2.3154e-05 1.14772e-05 0)
(-7.15253e-05 1.45536e-05 0)
(-0.000129482 1.74395e-05 0)
(-0.000196469 2.01167e-05 0)
(-0.000271855 2.25784e-05 0)
(-0.000354981 2.48245e-05 0)
(-0.000445173 2.68542e-05 0)
(-0.000541738 2.86627e-05 0)
(-0.000643972 3.02533e-05 0)
(-0.000751183 3.16331e-05 0)
(-0.000862684 3.28033e-05 0)
(-0.000977796 3.37721e-05 0)
(-0.00109585 3.45468e-05 0)
(-0.00121619 3.51306e-05 0)
(-0.00133818 3.55275e-05 0)
(-0.00146121 3.57426e-05 0)
(-0.00158467 3.57815e-05 0)
(-0.00170798 3.5654e-05 0)
(-0.00183058 3.53682e-05 0)
(-0.00195192 3.49279e-05 0)
(-0.00207149 3.43379e-05 0)
(-0.00218879 3.36065e-05 0)
(-0.00230334 3.27403e-05 0)
(-0.00241468 3.17455e-05 0)
(-0.00252238 3.0629e-05 0)
(-0.00262603 2.93967e-05 0)
(-0.00272523 2.80535e-05 0)
(-0.00281962 2.66059e-05 0)
(-0.00290885 2.50629e-05 0)
(-0.00299259 2.34315e-05 0)
(-0.00307054 2.17152e-05 0)
(-0.00314242 1.99186e-05 0)
(-0.00320797 1.80502e-05 0)
(-0.00326695 1.61199e-05 0)
(-0.00331916 1.41341e-05 0)
(-0.0033644 1.20958e-05 0)
(-0.00340251 1.00091e-05 0)
(-0.00343333 7.88242e-06 0)
(-0.00345676 5.72578e-06 0)
(-0.0034727 3.54814e-06 0)
(-0.00348108 1.35508e-06 0)
(-0.00348185 -8.49369e-07 0)
(-0.00347499 -3.05896e-06 0)
(-0.00346051 -5.26483e-06 0)
(-0.00343843 -7.45754e-06 0)
(-0.00340883 -9.62831e-06 0)
(-0.00337177 -1.17701e-05 0)
(-0.00332738 -1.38772e-05 0)
(-0.0032758 -1.5943e-05 0)
(-0.00321718 -1.7959e-05 0)
(-0.00315171 -1.99158e-05 0)
(-0.00307964 -2.18038e-05 0)
(-0.00300119 -2.36141e-05 0)
(-0.00291667 -2.53395e-05 0)
(-0.00282636 -2.69733e-05 0)
(-0.00273061 -2.85079e-05 0)
(-0.00262978 -2.99345e-05 0)
(-0.00252426 -3.12441e-05 0)
(-0.00241447 -3.24282e-05 0)
(-0.00230085 -3.34784e-05 0)
(-0.00218387 -3.43869e-05 0)
(-0.00206405 -3.51468e-05 0)
(-0.00194189 -3.57511e-05 0)
(-0.00181795 -3.61927e-05 0)
(-0.00169279 -3.64645e-05 0)
(-0.00156701 -3.65596e-05 0)
(-0.00144121 -3.6471e-05 0)
(-0.00131604 -3.61925e-05 0)
(-0.00119213 -3.57188e-05 0)
(-0.00107016 -3.50455e-05 0)
(-0.000950802 -3.41683e-05 0)
(-0.000834741 -3.30833e-05 0)
(-0.000722674 -3.17871e-05 0)
(-0.0006153 -3.02771e-05 0)
(-0.000513322 -2.85514e-05 0)
(-0.000417437 -2.66087e-05 0)
(-0.000328337 -2.4449e-05 0)
(-0.000246699 -2.20745e-05 0)
(-0.000173176 -1.949e-05 0)
(-0.000108388 -1.67032e-05 0)
(-5.29051e-05 -1.3726e-05 0)
(-7.22596e-06 -1.05768e-05 0)
(2.82479e-05 -7.28438e-06 0)
(5.32556e-05 -3.89466e-06 0)
(6.77408e-05 -4.81478e-07 0)
(7.19546e-05 2.83089e-06 0)
(6.66158e-05 5.82971e-06 0)
(5.31358e-05 8.14672e-06 0)
(3.40891e-05 9.12817e-06 0)
(1.46021e-05 7.67102e-06 0)
(2.80878e-06 2.80624e-06 0)
(8.30288e-06 -1.52063e-05 0)
(3.22539e-05 -3.11097e-05 0)
(6.399e-05 -3.36447e-05 0)
(8.94981e-05 -2.57141e-05 0)
(9.91515e-05 -1.15113e-05 0)
(8.72845e-05 6.29732e-06 0)
(5.04981e-05 2.5993e-05 0)
(-1.30863e-05 4.6441e-05 0)
(-0.000104223 6.6926e-05 0)
(-0.000222829 8.69495e-05 0)
(-0.000368264 0.000106207 0)
(-0.00053949 0.000124471 0)
(-0.000735164 0.000141595 0)
(-0.000953751 0.000157484 0)
(-0.00119358 0.000172074 0)
(-0.00145286 0.000185322 0)
(-0.00172977 0.000197212 0)
(-0.00202243 0.000207733 0)
(-0.00232896 0.000216894 0)
(-0.00264746 0.000224707 0)
(-0.00297607 0.000231187 0)
(-0.00331293 0.000236366 0)
(-0.00365624 0.000240276 0)
(-0.00400419 0.000242943 0)
(-0.00435505 0.000244397 0)
(-0.00470714 0.000244679 0)
(-0.00505881 0.000243831 0)
(-0.00540845 0.000241892 0)
(-0.00575453 0.000238899 0)
(-0.00609559 0.000234892 0)
(-0.0064302 0.000229917 0)
(-0.00675698 0.000224017 0)
(-0.00707463 0.000217233 0)
(-0.00738191 0.000209606 0)
(-0.00767765 0.000201181 0)
(-0.00796071 0.000192 0)
(-0.00823004 0.000182108 0)
(-0.00848464 0.000171548 0)
(-0.00872358 0.000160365 0)
(-0.00894598 0.0001486 0)
(-0.00915105 0.000136298 0)
(-0.00933804 0.000123506 0)
(-0.00950628 0.000110271 0)
(-0.00965515 9.66388e-05 0)
(-0.00978412 8.26495e-05 0)
(-0.0098927 6.83492e-05 0)
(-0.00998049 5.37885e-05 0)
(-0.0100472 3.90182e-05 0)
(-0.0100924 2.40869e-05 0)
(-0.0101161 9.04109e-06 0)
(-0.010118 -6.07197e-06 0)
(-0.0100982 -2.12013e-05 0)
(-0.0100566 -3.62928e-05 0)
(-0.00999331 -5.12926e-05 0)
(-0.00990855 -6.61484e-05 0)
(-0.00980255 -8.08086e-05 0)
(-0.00967563 -9.52215e-05 0)
(-0.00952819 -0.000109334 0)
(-0.00936072 -0.000123089 0)
(-0.00917377 -0.000136428 0)
(-0.00896799 -0.000149296 0)
(-0.00874409 -0.000161635 0)
(-0.00850289 -0.000173391 0)
(-0.00824525 -0.000184511 0)
(-0.00797216 -0.000194939 0)
(-0.00768463 -0.00020462 0)
(-0.0073838 -0.000213496 0)
(-0.00707086 -0.000221513 0)
(-0.00674707 -0.000228619 0)
(-0.00641379 -0.000234762 0)
(-0.00607243 -0.000239893 0)
(-0.00572448 -0.000243964 0)
(-0.00537149 -0.000246929 0)
(-0.00501506 -0.000248744 0)
(-0.00465688 -0.000249368 0)
(-0.00429867 -0.00024876 0)
(-0.0039422 -0.000246886 0)
(-0.00358929 -0.000243712 0)
(-0.0032418 -0.000239212 0)
(-0.00290162 -0.000233365 0)
(-0.00257066 -0.000226154 0)
(-0.00225084 -0.000217568 0)
(-0.00194408 -0.000207603 0)
(-0.00165229 -0.000196262 0)
(-0.00137738 -0.000183559 0)
(-0.00112117 -0.000169517 0)
(-0.000885464 -0.00015418 0)
(-0.000671944 -0.000137607 0)
(-0.000482174 -0.000119891 0)
(-0.00031754 -0.000101155 0)
(-0.00017919 -8.15755e-05 0)
(-6.79509e-05 -6.14e-05 0)
(1.57869e-05 -4.09796e-05 0)
(7.22331e-05 -2.0824e-05 0)
(0.000102429 -1.6862e-06 0)
(0.000108564 1.53052e-05 0)
(9.43382e-05 2.84521e-05 0)
(6.55293e-05 3.51937e-05 0)
(3.18514e-05 3.18258e-05 0)
(7.67764e-06 1.45938e-05 0)
(9.19726e-06 -3.44496e-05 0)
(3.42099e-05 -6.34654e-05 0)
(6.28525e-05 -6.20973e-05 0)
(7.77465e-05 -3.88389e-05 0)
(6.74044e-05 -9.69256e-07 0)
(2.4596e-05 4.60624e-05 0)
(-5.54771e-05 9.83487e-05 0)
(-0.000175653 0.000153145 0)
(-0.000337236 0.000208511 0)
(-0.00054038 0.000263098 0)
(-0.000784346 0.000315934 0)
(-0.00106776 0.000366346 0)
(-0.00138876 0.000413851 0)
(-0.00174512 0.000458109 0)
(-0.00213439 0.000498891 0)
(-0.00255391 0.000536041 0)
(-0.0030009 0.000569468 0)
(-0.0034725 0.000599127 0)
(-0.0039658 0.000624999 0)
(-0.00447789 0.000647101 0)
(-0.00500585 0.000665474 0)
(-0.00554677 0.000680171 0)
(-0.00609781 0.000691263 0)
(-0.00665616 0.00069883 0)
(-0.00721906 0.000702959 0)
(-0.00778384 0.000703747 0)
(-0.00834787 0.000701302 0)
(-0.00890863 0.000695729 0)
(-0.00946367 0.000687134 0)
(-0.0100106 0.000675635 0)
(-0.0105472 0.000661353 0)
(-0.0110713 0.000644404 0)
(-0.0115807 0.000624907 0)
(-0.0120735 0.000602983 0)
(-0.0125477 0.000578756 0)
(-0.0130017 0.000552351 0)
(-0.0134336 0.000523892 0)
(-0.0138418 0.000493504 0)
(-0.014225 0.000461315 0)
(-0.0145816 0.00042745 0)
(-0.0149104 0.000392037 0)
(-0.0152101 0.00035521 0)
(-0.0154798 0.000317101 0)
(-0.0157184 0.000277838 0)
(-0.015925 0.000237553 0)
(-0.016099 0.000196382 0)
(-0.0162395 0.000154464 0)
(-0.0163462 0.000111941 0)
(-0.0164185 6.89523e-05 0)
(-0.0164561 2.56369e-05 0)
(-0.0164589 -1.78613e-05 0)
(-0.0164268 -6.13952e-05 0)
(-0.0163598 -0.000104814 0)
(-0.016258 -0.000147965 0)
(-0.0161218 -0.000190697 0)
(-0.0159515 -0.000232859 0)
(-0.0157477 -0.000274296 0)
(-0.015511 -0.000314853 0)
(-0.0152423 -0.000354368 0)
(-0.0149423 -0.000392682 0)
(-0.0146122 -0.00042963 0)
(-0.0142531 -0.000465055 0)
(-0.0138663 -0.000498797 0)
(-0.0134533 -0.000530698 0)
(-0.0130155 -0.0005606 0)
(-0.0125546 -0.000588345 0)
(-0.0120725 -0.000613775 0)
(-0.011571 -0.000636738 0)
(-0.0110521 -0.000657084 0)
(-0.0105181 -0.000674668 0)
(-0.00997122 -0.000689351 0)
(-0.00941376 -0.000700997 0)
(-0.00884822 -0.000709479 0)
(-0.00827717 -0.000714675 0)
(-0.00770327 -0.000716472 0)
(-0.00712925 -0.000714765 0)
(-0.00655792 -0.000709458 0)
(-0.00599215 -0.000700471 0)
(-0.00543487 -0.000687734 0)
(-0.00488904 -0.000671195 0)
(-0.00435765 -0.000650819 0)
(-0.00384371 -0.00062659 0)
(-0.0033502 -0.000598513 0)
(-0.00288009 -0.000566621 0)
(-0.00243627 -0.000530978 0)
(-0.00202156 -0.000491687 0)
(-0.00163865 -0.000448901 0)
(-0.00129006 -0.000402837 0)
(-0.000978069 -0.000353795 0)
(-0.000704657 -0.000302181 0)
(-0.000471404 -0.000248546 0)
(-0.000279364 -0.00019364 0)
(-0.000128904 -0.000138485 0)
(-1.94874e-05 -8.44932e-05 0)
(5.0603e-05 -3.3628e-05 0)
(8.46243e-05 1.13642e-05 0)
(8.77147e-05 4.66583e-05 0)
(6.73673e-05 6.70167e-05 0)
(3.53786e-05 6.55476e-05 0)
(9.1651e-06 3.41088e-05 0)
(7.99523e-06 -5.29781e-05 0)
(2.65254e-05 -8.96286e-05 0)
(4.02621e-05 -7.72472e-05 0)
(3.1469e-05 -2.98426e-05 0)
(-1.19301e-05 4.18013e-05 0)
(-9.79192e-05 0.0001293 0)
(-0.000231936 0.000226349 0)
(-0.000417373 0.000328292 0)
(-0.000655902 0.000431696 0)
(-0.000947805 0.000534056 0)
(-0.00129231 0.000633531 0)
(-0.00168781 0.00072878 0)
(-0.00213206 0.000818818 0)
(-0.00262234 0.000902938 0)
(-0.00315555 0.000980638 0)
(-0.00372832 0.00105157 0)
(-0.00433709 0.00111551 0)
(-0.0049782 0.00117232 0)
(-0.00564785 0.00122195 0)
(-0.00634223 0.00126439 0)
(-0.00705752 0.0012997 0)
(-0.0077899 0.00132795 0)
(-0.00853559 0.00134927 0)
(-0.00929086 0.00136379 0)
(-0.0100521 0.00137166 0)
(-0.0108156 0.00137308 0)
(-0.011578 0.00136822 0)
(-0.0123359 0.00135729 0)
(-0.013086 0.00134049 0)
(-0.013825 0.00131805 0)
(-0.0145501 0.00129017 0)
(-0.0152581 0.0012571 0)
(-0.0159463 0.00121907 0)
(-0.0166121 0.00117629 0)
(-0.0172528 0.00112903 0)
(-0.017866 0.0010775 0)
(-0.0184494 0.00102197 0)
(-0.0190008 0.000962665 0)
(-0.0195183 0.000899838 0)
(-0.0199999 0.000833739 0)
(-0.0204439 0.000764621 0)
(-0.0208487 0.000692739 0)
(-0.0212128 0.000618347 0)
(-0.0215349 0.000541703 0)
(-0.0218138 0.000463068 0)
(-0.0220484 0.00038271 0)
(-0.022238 0.000300899 0)
(-0.0223817 0.000217907 0)
(-0.0224791 0.000134009 0)
(-0.0225296 4.94821e-05 0)
(-0.022533 -3.53905e-05 0)
(-0.0224892 -0.000120321 0)
(-0.0223983 -0.000205017 0)
(-0.0222605 -0.000289184 0)
(-0.0220762 -0.000372525 0)
(-0.0218459 -0.000454741 0)
(-0.0215704 -0.000535528 0)
(-0.0212504 -0.000614582 0)
(-0.0208872 -0.000691591 0)
(-0.0204819 -0.000766244 0)
(-0.020036 -0.000838229 0)
(-0.0195509 -0.000907234 0)
(-0.0190285 -0.00097295 0)
(-0.0184707 -0.00103507 0)
(-0.0178795 -0.00109328 0)
(-0.0172572 -0.00114728 0)
(-0.0166062 -0.00119677 0)
(-0.0159292 -0.00124146 0)
(-0.0152287 -0.00128105 0)
(-0.0145078 -0.00131527 0)
(-0.0137695 -0.00134386 0)
(-0.0130169 -0.00136655 0)
(-0.0122533 -0.00138309 0)
(-0.0114822 -0.00139327 0)
(-0.0107072 -0.00139687 0)
(-0.00993177 -0.0013937 0)
(-0.0091598 -0.00138358 0)
(-0.00839507 -0.00136636 0)
(-0.00764145 -0.00134193 0)
(-0.00690286 -0.0013102 0)
(-0.00618327 -0.00127112 0)
(-0.0054866 -0.00122468 0)
(-0.00481679 -0.00117091 0)
(-0.00417768 -0.00110991 0)
(-0.00357306 -0.00104183 0)
(-0.00300654 -0.000966915 0)
(-0.00248156 -0.000885501 0)
(-0.00200132 -0.000798054 0)
(-0.00156866 -0.0007052 0)
(-0.00118602 -0.000607769 0)
(-0.000855295 -0.000506863 0)
(-0.000577682 -0.00040394 0)
(-0.000353515 -0.000300936 0)
(-0.000182026 -0.000200435 0)
(-6.10645e-05 -0.000105896 0)
(1.32382e-05 -2.19536e-05 0)
(4.67703e-05 4.52176e-05 0)
(4.78509e-05 8.75391e-05 0)
(2.89913e-05 9.46922e-05 0)
(8.25396e-06 5.33122e-05 0)
(5.5612e-06 -6.52553e-05 0)
(1.27588e-05 -0.000100178 0)
(3.37069e-06 -6.75882e-05 0)
(-3.86438e-05 1.33026e-05 0)
(-0.000124875 0.000128249 0)
(-0.000263375 0.000266069 0)
(-0.000459763 0.000418068 0)
(-0.000717574 0.000577602 0)
(-0.00103858 0.000739663 0)
(-0.00142309 0.000900449 0)
(-0.00187024 0.00105709 0)
(-0.00237824 0.00120745 0)
(-0.00294451 0.00134991 0)
(-0.00356591 0.00148329 0)
(-0.00423883 0.00160672 0)
(-0.00495933 0.00171958 0)
(-0.00572321 0.00182147 0)
(-0.00652604 0.0019121 0)
(-0.00736333 0.00199135 0)
(-0.0082305 0.00205917 0)
(-0.00912291 0.0021156 0)
(-0.0100359 0.00216075 0)
(-0.010965 0.00219478 0)
(-0.0119055 0.00221788 0)
(-0.012853 0.0022303 0)
(-0.0138032 0.0022323 0)
(-0.0147517 0.00222417 0)
(-0.0156943 0.00220623 0)
(-0.0166271 0.0021788 0)
(-0.0175461 0.00214222 0)
(-0.0184475 0.00209685 0)
(-0.0193277 0.00204304 0)
(-0.0201832 0.00198117 0)
(-0.0210107 0.00191162 0)
(-0.0218069 0.00183476 0)
(-0.022569 0.00175098 0)
(-0.023294 0.00166069 0)
(-0.0239792 0.00156426 0)
(-0.0246222 0.00146211 0)
(-0.0252206 0.00135464 0)
(-0.0257721 0.00124226 0)
(-0.0262749 0.00112538 0)
(-0.0267271 0.00100443 0)
(-0.0271271 0.000879815 0)
(-0.0274733 0.000751972 0)
(-0.0277646 0.000621334 0)
(-0.0279998 0.000488338 0)
(-0.0281781 0.000353429 0)
(-0.0282987 0.000217056 0)
(-0.0283611 7.96736e-05 0)
(-0.0283649 -5.82566e-05 0)
(-0.0283102 -0.000196267 0)
(-0.0281969 -0.000333885 0)
(-0.0280253 -0.00047063 0)
(-0.0277959 -0.000606019 0)
(-0.0275095 -0.000739562 0)
(-0.0271668 -0.000870768 0)
(-0.0267691 -0.00099914 0)
(-0.0263177 -0.00112418 0)
(-0.025814 -0.00124537 0)
(-0.0252598 -0.00136222 0)
(-0.0246571 -0.00147422 0)
(-0.024008 -0.00158088 0)
(-0.023315 -0.00168168 0)
(-0.0225806 -0.00177613 0)
(-0.0218076 -0.00186375 0)
(-0.0209989 -0.00194405 0)
(-0.0201579 -0.00201657 0)
(-0.0192878 -0.00208083 0)
(-0.0183923 -0.0021364 0)
(-0.017475 -0.00218284 0)
(-0.0165399 -0.00221975 0)
(-0.0155911 -0.00224675 0)
(-0.0146328 -0.00226346 0)
(-0.0136693 -0.00226957 0)
(-0.0127051 -0.00226476 0)
(-0.0117449 -0.00224878 0)
(-0.0107931 -0.00222141 0)
(-0.00985473 -0.00218248 0)
(-0.0089344 -0.00213185 0)
(-0.00803693 -0.00206949 0)
(-0.00716711 -0.00199539 0)
(-0.00632966 -0.00190964 0)
(-0.00552923 -0.00181244 0)
(-0.00477033 -0.00170408 0)
(-0.00405728 -0.001585 0)
(-0.00339415 -0.00145578 0)
(-0.00278467 -0.00131722 0)
(-0.00223219 -0.00117039 0)
(-0.00173951 -0.00101664 0)
(-0.00130878 -0.000857769 0)
(-0.000941353 -0.000696081 0)
(-0.000637585 -0.000534576 0)
(-0.000396622 -0.000377148 0)
(-0.000216136 -0.00022886 0)
(-9.20412e-05 -9.62903e-05 0)
(-1.82116e-05 1.20484e-05 0)
(1.38804e-05 8.53049e-05 0)
(1.64078e-05 0.000109793 0)
(6.05338e-06 6.71919e-05 0)
(2.52075e-06 -6.91963e-05 0)
(-4.55784e-06 -8.97402e-05 0)
(-4.26225e-05 -2.60022e-05 0)
(-0.000124612 9.85081e-05 0)
(-0.000260781 0.000266501 0)
(-0.000458808 0.000464163 0)
(-0.000724062 0.000680545 0)
(-0.00105988 0.000907124 0)
(-0.0014679 0.00113724 0)
(-0.00194833 0.00136576 0)
(-0.00250012 0.00158873 0)
(-0.00312123 0.0018031 0)
(-0.00380881 0.00200655 0)
(-0.00455933 0.00219732 0)
(-0.00536875 0.00237412 0)
(-0.00623261 0.002536 0)
(-0.00714613 0.00268228 0)
(-0.00810434 0.00281253 0)
(-0.00910206 0.00292648 0)
(-0.010134 0.00302403 0)
(-0.0111949 0.0031052 0)
(-0.0122793 0.00317009 0)
(-0.0133821 0.0032189 0)
(-0.0144978 0.0032519 0)
(-0.0156212 0.0032694 0)
(-0.0167474 0.00327178 0)
(-0.0178712 0.00325942 0)
(-0.0189878 0.00323277 0)
(-0.0200924 0.00319229 0)
(-0.0211805 0.00313847 0)
(-0.0222476 0.00307182 0)
(-0.0232895 0.00299284 0)
(-0.024302 0.00290208 0)
(-0.0252812 0.00280008 0)
(-0.0262234 0.0026874 0)
(-0.027125 0.00256459 0)
(-0.0279827 0.00243224 0)
(-0.0287933 0.00229092 0)
(-0.0295539 0.00214121 0)
(-0.0302616 0.00198372 0)
(-0.0309139 0.00181903 0)
(-0.0315084 0.00164776 0)
(-0.0320431 0.00147052 0)
(-0.0325159 0.00128793 0)
(-0.0329252 0.00110062 0)
(-0.0332694 0.000909218 0)
(-0.0335473 0.000714375 0)
(-0.0337577 0.000516742 0)
(-0.0339 0.000316977 0)
(-0.0339734 0.000115751 0)
(-0.0339776 -8.6262e-05 0)
(-0.0339125 -0.000288376 0)
(-0.0337782 -0.000489896 0)
(-0.0335749 -0.000690122 0)
(-0.0333033 -0.000888343 0)
(-0.0329643 -0.00108384 0)
(-0.0325588 -0.0012759 0)
(-0.0320882 -0.0014638 0)
(-0.0315541 -0.00164679 0)
(-0.0309582 -0.00182415 0)
(-0.0303027 -0.00199513 0)
(-0.0295898 -0.00215902 0)
(-0.0288222 -0.00231506 0)
(-0.0280026 -0.00246255 0)
(-0.027134 -0.00260075 0)
(-0.0262198 -0.00272896 0)
(-0.0252635 -0.00284647 0)
(-0.0242687 -0.00295261 0)
(-0.0232396 -0.00304671 0)
(-0.0221803 -0.00312813 0)
(-0.0210951 -0.00319625 0)
(-0.0199887 -0.00325049 0)
(-0.0188659 -0.00329029 0)
(-0.0177315 -0.00331515 0)
(-0.0165906 -0.0033246 0)
(-0.0154486 -0.00331821 0)
(-0.0143106 -0.00329562 0)
(-0.0131823 -0.00325654 0)
(-0.0120689 -0.00320074 0)
(-0.0109762 -0.00312807 0)
(-0.00990953 -0.00303847 0)
(-0.00887455 -0.00293201 0)
(-0.00787665 -0.00280885 0)
(-0.00692116 -0.0026693 0)
(-0.00601324 -0.00251384 0)
(-0.00515781 -0.00234316 0)
(-0.00435949 -0.00215817 0)
(-0.0036225 -0.00196006 0)
(-0.00295059 -0.00175042 0)
(-0.00234691 -0.00153123 0)
(-0.00181388 -0.00130506 0)
(-0.00135303 -0.00107516 0)
(-0.000964839 -0.000845683 0)
(-0.000648522 -0.000621884 0)
(-0.000401821 -0.000410452 0)
(-0.000220754 -0.000219871 0)
(-9.93664e-05 -6.08786e-05 0)
(-2.94044e-05 5.309e-05 0)
(1.58787e-07 0.000105291 0)
(3.21208e-06 7.32839e-05 0)
(-7.82328e-07 -6.35081e-05 0)
(-2.38065e-05 -5.48546e-05 0)
(-9.40738e-05 5.2356e-05 0)
(-0.000220576 0.000231422 0)
(-0.000411696 0.000462453 0)
(-0.000674359 0.000729341 0)
(-0.00101331 0.00101911 0)
(-0.00143146 0.00132143 0)
(-0.00193012 0.00162809 0)
(-0.00250916 0.00193263 0)
(-0.00316729 0.00222995 0)
(-0.00390219 0.00251608 0)
(-0.00471067 0.00278794 0)
(-0.00558885 0.00304314 0)
(-0.00653226 0.0032799 0)
(-0.00753601 0.00349687 0)
(-0.00859482 0.00369308 0)
(-0.00970316 0.00386789 0)
(-0.0108553 0.00402088 0)
(-0.0120454 0.00415186 0)
(-0.0132674 0.00426079 0)
(-0.0145155 0.00434777 0)
(-0.0157835 0.00441303 0)
(-0.0170657 0.0044569 0)
(-0.0183562 0.00447976 0)
(-0.0196491 0.00448209 0)
(-0.0209389 0.00446441 0)
(-0.0222199 0.0044273 0)
(-0.0234869 0.00437137 0)
(-0.0247346 0.00429726 0)
(-0.0259581 0.00420565 0)
(-0.0271523 0.00409723 0)
(-0.0283127 0.00397274 0)
(-0.0294348 0.00383289 0)
(-0.0305143 0.00367845 0)
(-0.0315473 0.00351019 0)
(-0.0325298 0.00332887 0)
(-0.0334583 0.00313529 0)
(-0.0343293 0.00293025 0)
(-0.0351398 0.00271456 0)
(-0.0358867 0.00248903 0)
(-0.0365674 0.00225451 0)
(-0.0371795 0.00201183 0)
(-0.0377207 0.00176183 0)
(-0.0381891 0.00150539 0)
(-0.038583 0.00124337 0)
(-0.0389009 0.000976652 0)
(-0.0391416 0.00070613 0)
(-0.0393041 0.000432711 0)
(-0.0393879 0.000157308 0)
(-0.0393924 -0.00011915 0)
(-0.0393175 -0.000395726 0)
(-0.0391634 -0.000671469 0)
(-0.0389304 -0.000945419 0)
(-0.0386192 -0.00121661 0)
(-0.0382307 -0.00148406 0)
(-0.0377662 -0.00174678 0)
(-0.0372272 -0.00200378 0)
(-0.0366155 -0.00225407 0)
(-0.0359331 -0.00249663 0)
(-0.0351825 -0.00273048 0)
(-0.0343662 -0.00295461 0)
(-0.0334872 -0.00316803 0)
(-0.0325486 -0.00336974 0)
(-0.031554 -0.00355877 0)
(-0.0305071 -0.00373416 0)
(-0.0294118 -0.00389496 0)
(-0.0282726 -0.00404025 0)
(-0.0270937 -0.00416913 0)
(-0.0258802 -0.00428073 0)
(-0.0246368 -0.00437423 0)
(-0.0233688 -0.00444885 0)
(-0.0220817 -0.00450384 0)
(-0.020781 -0.00453853 0)
(-0.0194724 -0.0045523 0)
(-0.0181618 -0.00454459 0)
(-0.0168554 -0.00451495 0)
(-0.0155591 -0.00446298 0)
(-0.0142792 -0.00438842 0)
(-0.0130219 -0.00429109 0)
(-0.0117934 -0.00417096 0)
(-0.0105999 -0.00402814 0)
(-0.0094475 -0.00386291 0)
(-0.00834205 -0.00367574 0)
(-0.00728933 -0.00346733 0)
(-0.00629478 -0.00323866 0)
(-0.00536353 -0.00299101 0)
(-0.00450024 -0.00272605 0)
(-0.00370905 -0.00244591 0)
(-0.00299345 -0.0021533 0)
(-0.00235614 -0.00185162 0)
(-0.00179891 -0.0015451 0)
(-0.00132246 -0.00123907 0)
(-0.00092625 -0.000940154 0)
(-0.000608294 -0.000656622 0)
(-0.000364992 -0.000398757 0)
(-0.000190881 -0.00017934 0)
(-7.83623e-05 -1.40973e-05 0)
(-1.81237e-05 7.76325e-05 0)
(8.7342e-08 7.02616e-05 0)
(-4.15583e-06 -4.75549e-05 0)
(-4.39703e-05 6.52714e-06 0)
(-0.000148489 0.000170643 0)
(-0.000322386 0.000415876 0)
(-0.000571815 0.000720263 0)
(-0.000902639 0.00106578 0)
(-0.00131879 0.00143766 0)
(-0.00182247 0.00182393 0)
(-0.00241446 0.00221495 0)
(-0.00309423 0.00260297 0)
(-0.00386009 0.00298179 0)
(-0.00470935 0.0033465 0)
(-0.00563847 0.00369323 0)
(-0.00664319 0.00401895 0)
(-0.00771865 0.00432132 0)
(-0.00885951 0.00459859 0)
(-0.01006 0.00484945 0)
(-0.0113142 0.00507302 0)
(-0.0126158 0.00526869 0)
(-0.0139584 0.00543616 0)
(-0.0153354 0.00557532 0)
(-0.0167404 0.00568626 0)
(-0.0181668 0.00576922 0)
(-0.0196081 0.00582457 0)
(-0.0210578 0.0058528 0)
(-0.0225095 0.00585447 0)
(-0.0239571 0.00583025 0)
(-0.0253944 0.00578084 0)
(-0.0268154 0.00570702 0)
(-0.0282145 0.00560961 0)
(-0.0295859 0.00548947 0)
(-0.0309244 0.00534749 0)
(-0.0322246 0.0051846 0)
(-0.0334818 0.00500175 0)
(-0.0346911 0.00479991 0)
(-0.0358481 0.00458006 0)
(-0.0369484 0.00434323 0)
(-0.0379881 0.00409043 0)
(-0.0389633 0.0038227 0)
(-0.0398706 0.0035411 0)
(-0.0407068 0.0032467 0)
(-0.0414687 0.00294057 0)
(-0.0421537 0.00262382 0)
(-0.0427594 0.00229756 0)
(-0.0432835 0.0019629 0)
(-0.0437241 0.00162098 0)
(-0.0440797 0.00127296 0)
(-0.0443489 0.000920004 0)
(-0.0445306 0.000563287 0)
(-0.0446241 0.000204008 0)
(-0.0446289 -0.000156626 0)
(-0.0445448 -0.00051739 0)
(-0.0443721 -0.000877044 0)
(-0.0441111 -0.00123434 0)
(-0.0437626 -0.00158801 0)
(-0.0433277 -0.00193679 0)
(-0.0428077 -0.00227938 0)
(-0.0422043 -0.00261451 0)
(-0.0415196 -0.00294087 0)
(-0.0407558 -0.00325716 0)
(-0.0399156 -0.00356209 0)
(-0.0390018 -0.00385435 0)
(-0.0380179 -0.00413265 0)
(-0.0369672 -0.00439573 0)
(-0.0358537 -0.0046423 0)
(-0.0346816 -0.00487113 0)
(-0.0334553 -0.00508099 0)
(-0.0321795 -0.00527071 0)
(-0.0308592 -0.00543911 0)
(-0.0294998 -0.00558509 0)
(-0.0281067 -0.00570759 0)
(-0.0266857 -0.00580561 0)
(-0.0252427 -0.0058782 0)
(-0.023784 -0.0059245 0)
(-0.022316 -0.00594374 0)
(-0.020845 -0.00593522 0)
(-0.0193779 -0.00589837 0)
(-0.0179212 -0.00583272 0)
(-0.0164819 -0.00573794 0)
(-0.0150667 -0.00561386 0)
(-0.0136824 -0.00546048 0)
(-0.0123359 -0.00527798 0)
(-0.0110338 -0.00506676 0)
(-0.00978251 -0.0048275 0)
(-0.00858836 -0.00456114 0)
(-0.00745728 -0.00426898 0)
(-0.00639483 -0.00395273 0)
(-0.00540612 -0.00361457 0)
(-0.00449566 -0.00325723 0)
(-0.00366731 -0.00288416 0)
(-0.00292411 -0.00249962 0)
(-0.00226817 -0.00210885 0)
(-0.00170054 -0.00171835 0)
(-0.00122105 -0.00133605 0)
(-0.000828177 -0.000971712 0)
(-0.000518929 -0.000637275 0)
(-0.000288589 -0.000347324 0)
(-0.000130492 -0.000119539 0)
(-3.74008e-05 2.46659e-05 0)
(-3.1225e-06 5.74497e-05 0)
(-7.49521e-06 -2.11148e-05 0)
(-6.44039e-05 9.54352e-05 0)
(-0.000204218 0.00033069 0)
(-0.000427146 0.000654263 0)
(-0.000736953 0.00104268 0)
(-0.00113826 0.00147633 0)
(-0.00163395 0.00193893 0)
(-0.00222539 0.00241711 0)
(-0.00291267 0.00289986 0)
(-0.0036947 0.00337827 0)
(-0.0045693 0.00384509 0)
(-0.00553335 0.0042945 0)
(-0.0065829 0.00472181 0)
(-0.00771327 0.00512336 0)
(-0.0089192 0.00549626 0)
(-0.0101949 0.00583829 0)
(-0.0115343 0.00614783 0)
(-0.0129307 0.00642368 0)
(-0.0143776 0.00666507 0)
(-0.015868 0.00687153 0)
(-0.0173949 0.0070429 0)
(-0.0189513 0.00717922 0)
(-0.02053 0.00728074 0)
(-0.022124 0.00734789 0)
(-0.0237263 0.00738123 0)
(-0.02533 0.00738143 0)
(-0.0269283 0.00734928 0)
(-0.0285147 0.00728564 0)
(-0.0300825 0.00719147 0)
(-0.0316256 0.00706776 0)
(-0.0331378 0.00691557 0)
(-0.0346134 0.00673601 0)
(-0.0360465 0.00653022 0)
(-0.0374319 0.00629939 0)
(-0.0387642 0.00604473 0)
(-0.0400387 0.00576747 0)
(-0.0412507 0.00546888 0)
(-0.0423956 0.00515023 0)
(-0.0434696 0.00481283 0)
(-0.0444686 0.00445802 0)
(-0.0453891 0.00408712 0)
(-0.0462279 0.0037015 0)
(-0.0469819 0.00330253 0)
(-0.0476485 0.00289162 0)
(-0.0482253 0.00247017 0)
(-0.0487102 0.00203961 0)
(-0.0491015 0.0016014 0)
(-0.0493976 0.001157 0)
(-0.0495974 0.000707899 0)
(-0.0497002 0.000255599 0)
(-0.0497053 -0.000198378 0)
(-0.0496127 -0.000652494 0)
(-0.0494225 -0.00110519 0)
(-0.0491352 -0.0015549 0)
(-0.0487516 -0.00200002 0)
(-0.0482728 -0.00243898 0)
(-0.0477005 -0.00287014 0)
(-0.0470364 -0.0032919 0)
(-0.0462827 -0.00370262 0)
(-0.045442 -0.00410069 0)
(-0.0445172 -0.00448446 0)
(-0.0435114 -0.00485233 0)
(-0.0424282 -0.00520267 0)
(-0.0412715 -0.00553388 0)
(-0.0400456 -0.00584439 0)
(-0.0387549 -0.00613264 0)
(-0.0374044 -0.00639712 0)
(-0.0359991 -0.00663634 0)
(-0.0345446 -0.00684886 0)
(-0.0330466 -0.00703331 0)
(-0.0315111 -0.00718838 0)
(-0.0299445 -0.00731282 0)
(-0.0283531 -0.00740549 0)
(-0.0267437 -0.00746531 0)
(-0.0251233 -0.00749133 0)
(-0.0234989 -0.00748274 0)
(-0.0218776 -0.00743882 0)
(-0.0202669 -0.00735903 0)
(-0.018674 -0.00724301 0)
(-0.0171065 -0.00709057 0)
(-0.0155715 -0.00690175 0)
(-0.0140765 -0.00667682 0)
(-0.0126287 -0.00641634 0)
(-0.011235 -0.00612119 0)
(-0.00990208 -0.0057926 0)
(-0.00863649 -0.00543222 0)
(-0.00744419 -0.00504219 0)
(-0.00633071 -0.00462524 0)
(-0.00530097 -0.00418474 0)
(-0.00435922 -0.00372488 0)
(-0.00350888 -0.00325077 0)
(-0.00275248 -0.00276868 0)
(-0.00209152 -0.00228619 0)
(-0.00152633 -0.00181251 0)
(-0.00105601 -0.00135875 0)
(-0.000678351 -0.000938323 0)
(-0.000389563 -0.000567375 0)
(-0.000184111 -0.000265182 0)
(-5.70239e-05 -5.47442e-05 0)
(-6.3106e-06 3.45898e-05 0)
(-1.07443e-05 1.57767e-05 0)
(-8.47232e-05 0.000212239 0)
(-0.000260163 0.000533353 0)
(-0.000532882 0.000947911 0)
(-0.000904154 0.00143133 0)
(-0.00137728 0.00196281 0)
(-0.00195397 0.00252478 0)
(-0.00263459 0.00310264 0)
(-0.00341844 0.00368425 0)
(-0.00430375 0.0042596 0)
(-0.00528776 0.00482046 0)
(-0.00636685 0.00536012 0)
(-0.00753658 0.00587317 0)
(-0.00879185 0.00635527 0)
(-0.0101269 0.00680299 0)
(-0.0115357 0.00721366 0)
(-0.0130114 0.00758529 0)
(-0.0145473 0.0079164 0)
(-0.016136 0.00820601 0)
(-0.0177704 0.00845349 0)
(-0.0194428 0.00865859 0)
(-0.0211457 0.00882132 0)
(-0.0228716 0.00894193 0)
(-0.0246129 0.00902089 0)
(-0.0263622 0.00905883 0)
(-0.0281119 0.00905654 0)
(-0.029855 0.00901493 0)
(-0.0315842 0.00893504 0)
(-0.0332926 0.00881798 0)
(-0.0349734 0.00866496 0)
(-0.0366202 0.00847724 0)
(-0.0382265 0.00825616 0)
(-0.0397864 0.0080031 0)
(-0.0412938 0.00771948 0)
(-0.0427434 0.00740678 0)
(-0.0441298 0.0070665 0)
(-0.0454479 0.00670017 0)
(-0.046693 0.00630935 0)
(-0.0478608 0.00589563 0)
(-0.0489469 0.00546064 0)
(-0.0499476 0.005006 0)
(-0.0508593 0.00453339 0)
(-0.0516789 0.00404447 0)
(-0.0524034 0.00354097 0)
(-0.0530302 0.0030246 0)
(-0.0535572 0.00249713 0)
(-0.0539823 0.00196032 0)
(-0.0543041 0.00141596 0)
(-0.0545213 0.000865884 0)
(-0.0546329 0.000311919 0)
(-0.0546385 -0.000244072 0)
(-0.0545379 -0.000800205 0)
(-0.0543313 -0.00135458 0)
(-0.0540192 -0.00190527 0)
(-0.0536024 -0.00245035 0)
(-0.0530823 -0.00298785 0)
(-0.0524605 -0.00351582 0)
(-0.0517389 -0.00403228 0)
(-0.05092 -0.00453524 0)
(-0.0500065 -0.00502272 0)
(-0.0490015 -0.00549275 0)
(-0.0479084 -0.00594333 0)
(-0.0467311 -0.00637252 0)
(-0.0454738 -0.00677836 0)
(-0.044141 -0.00715894 0)
(-0.0427376 -0.00751237 0)
(-0.0412689 -0.00783682 0)
(-0.0397404 -0.00813047 0)
(-0.038158 -0.00839161 0)
(-0.0365278 -0.00861856 0)
(-0.0348564 -0.00880975 0)
(-0.0331504 -0.00896367 0)
(-0.0314169 -0.00907895 0)
(-0.0296631 -0.00915432 0)
(-0.0278964 -0.00918863 0)
(-0.0261243 -0.00918092 0)
(-0.0243546 -0.00913035 0)
(-0.0225952 -0.00903632 0)
(-0.0208538 -0.0088984 0)
(-0.0191384 -0.0087164 0)
(-0.017457 -0.00849042 0)
(-0.0158173 -0.00822084 0)
(-0.0142269 -0.00790838 0)
(-0.0126934 -0.00755413 0)
(-0.011224 -0.00715962 0)
(-0.00982548 -0.00672689 0)
(-0.00850438 -0.00625853 0)
(-0.00726664 -0.00575781 0)
(-0.00611761 -0.00522874 0)
(-0.00506196 -0.00467627 0)
(-0.00410359 -0.00410636 0)
(-0.0032455 -0.00352622 0)
(-0.00248972 -0.00294449 0)
(-0.00183722 -0.00237154 0)
(-0.00128784 -0.00181971 0)
(-0.000840266 -0.00130369 0)
(-0.00049179 -0.000840947 0)
(-0.000238113 -0.000452014 0)
(-7.65954e-05 -0.000161048 0)
(-9.42178e-06 1.67415e-06 0)
(-1.38746e-05 6.29523e-05 0)
(-0.000104691 0.000356871 0)
(-0.000315635 0.00077885 0)
(-0.000638263 0.00129735 0)
(-0.00107139 0.00188703 0)
(-0.00161692 0.00252618 0)
(-0.00227534 0.00319624 0)
(-0.00304593 0.00388157 0)
(-0.00392707 0.00456901 0)
(-0.00491623 0.0052476 0)
(-0.00601001 0.00590821 0)
(-0.00720419 0.00654333 0)
(-0.00849381 0.00714683 0)
(-0.00987327 0.00771373 0)
(-0.0113364 0.00824009 0)
(-0.0128766 0.00872278 0)
(-0.0144868 0.00915944 0)
(-0.0161595 0.00954831 0)
(-0.0178873 0.00988818 0)
(-0.0196623 0.0101783 0)
(-0.0214766 0.0104183 0)
(-0.0233221 0.0106081 0)
(-0.0251909 0.010748 0)
(-0.027075 0.0108385 0)
(-0.0289663 0.0108803 0)
(-0.0308571 0.0108743 0)
(-0.0327397 0.0108215 0)
(-0.0346064 0.0107233 0)
(-0.0364499 0.0105807 0)
(-0.0382631 0.0103954 0)
(-0.0400389 0.0101687 0)
(-0.0417706 0.00990218 0)
(-0.0434518 0.00959755 0)
(-0.0450761 0.00925647 0)
(-0.0466378 0.00888068 0)
(-0.0481311 0.00847196 0)
(-0.0495506 0.00803214 0)
(-0.0508914 0.00756308 0)
(-0.0521486 0.00706668 0)
(-0.0533178 0.00654486 0)
(-0.054395 0.00599958 0)
(-0.0553764 0.00543282 0)
(-0.0562585 0.00484661 0)
(-0.0570382 0.00424296 0)
(-0.0577128 0.00362397 0)
(-0.0582799 0.00299171 0)
(-0.0587374 0.00234831 0)
(-0.0590838 0.00169592 0)
(-0.0593175 0.00103671 0)
(-0.0594378 0.000372878 0)
(-0.0594441 -0.00029335 0)
(-0.0593361 -0.000959724 0)
(-0.059114 -0.00162397 0)
(-0.0587784 -0.00228379 0)
(-0.0583304 -0.00293688 0)
(-0.0577711 -0.0035809 0)
(-0.0571024 -0.00421351 0)
(-0.0563263 -0.00483235 0)
(-0.0554455 -0.00543505 0)
(-0.0544628 -0.00601925 0)
(-0.0533816 -0.00658259 0)
(-0.0522055 -0.00712271 0)
(-0.0509386 -0.00763728 0)
(-0.0495854 -0.008124 0)
(-0.0481507 -0.00858056 0)
(-0.0466398 -0.00900475 0)
(-0.0450582 -0.00939437 0)
(-0.0434119 -0.00974729 0)
(-0.041707 -0.0100615 0)
(-0.0399502 -0.0103349 0)
(-0.0381483 -0.0105658 0)
(-0.0363086 -0.0107523 0)
(-0.0344384 -0.0108928 0)