/*--------------------------------*- C++ -*----------------------------------*\
  =========                 |
  \\      /  F ield         | OpenFOAM: The Open Source CFD Toolbox
   \\    /   O peration     | Website:  https://openfoam.org
    \\  /    A nd           | Version:  11
     \\/     M anipulation  |
\*---------------------------------------------------------------------------*/
FoamFile
{
    format      ascii;
    class       volScalarField;
    location    "0.7";
    object      p;
}
// * * * * * * * * * * * * * * * * * * * * * * * * * * * * * * * * * * * * * //

dimensions      [0 2 -2 0 0 0 0];

internalField   nonuniform List<scalar> 
10100
(
1.25477e-07
-0.00261501
-0.00614127
-0.00774134
-0.00623287
-0.00171124
0.0054602
0.0147117
0.025696
0.0378907
0.0508192
0.0640304
0.0771017
0.0897059
0.101405
0.111973
0.121279
0.129338
0.136383
0.142664
0.148217
0.153131
0.157526
0.161566
0.165552
0.169764
0.174306
0.179139
0.184248
0.189637
0.195266
0.201074
0.207012
0.213047
0.219119
0.225177
0.231253
0.237402
0.24361
0.249819
0.255987
0.262103
0.268139
0.274014
0.279672
0.285139
0.290451
0.295598
0.30053
0.305181
0.309538
0.313653
0.317593
0.32141
0.325186
0.329018
0.332951
0.33696
0.340962
0.344862
0.348657
0.352481
0.356495
0.360738
0.365161
0.369729
0.374402
0.379068
0.383559
0.387788
0.391787
0.395636
0.399381
0.403019
0.406492
0.409694
0.412545
0.415084
0.417435
0.419631
0.421519
0.422857
0.423507
0.423504
0.422973
0.42203
0.420745
0.419142
0.417234
0.415069
0.412751
0.410438
0.408254
0.406254
0.404465
0.402914
0.401631
0.400742
0.400399
0.400639
-0.00211193
-0.00019489
0.000484602
0.0020074
0.00525646
0.010312
0.0169554
0.0250292
0.0343071
0.0445906
0.0555123
0.0667636
0.0781032
0.0891731
0.0997031
0.10945
0.118193
0.125941
0.132775
0.138869
0.144493
0.149744
0.15464
0.159242
0.163692
0.168185
0.17289
0.17787
0.183145
0.188716
0.194512
0.200435
0.20644
0.212477
0.218477
0.224432
0.230406
0.236467
0.242592
0.248705
0.254778
0.260815
0.266757
0.27253
0.278131
0.283584
0.288895
0.294057
0.299012
0.303698
0.308129
0.312356
0.316386
0.320272
0.324153
0.328123
0.332154
0.336182
0.340136
0.343928
0.347563
0.351206
0.355031
0.359054
0.363202
0.36747
0.371862
0.376261
0.380489
0.384479
0.38831
0.392089
0.395848
0.399544
0.403081
0.40633
0.409226
0.411857
0.414386
0.416839
0.419011
0.42063
0.421589
0.42197
0.4219
0.421431
0.420577
0.419378
0.417896
0.41618
0.414281
0.412279
0.410287
0.408397
0.40662
0.404902
0.40323
0.401796
0.400782
0.400164
-0.00623793
0.000344108
0.00472503
0.00899688
0.0138195
0.0194074
0.0258582
0.033182
0.0413506
0.0502435
0.0596981
0.0695107
0.0794419
0.0892698
0.0987774
0.107695
0.115959
0.1234
0.130057
0.136064
0.141645
0.146977
0.152124
0.157068
0.161844
0.166579
0.171419
0.176493
0.181869
0.187531
0.193406
0.19941
0.205482
0.21154
0.217511
0.22343
0.229385
0.235406
0.241474
0.247548
0.253589
0.259587
0.265481
0.271196
0.276767
0.282256
0.287623
0.29281
0.297795
0.302544
0.307049
0.311339
0.315418
0.319341
0.323269
0.327321
0.33144
0.335483
0.339357
0.343027
0.346542
0.350046
0.353681
0.357474
0.361391
0.365443
0.369626
0.373822
0.377863
0.38171
0.385471
0.38925
0.393044
0.396764
0.400286
0.403493
0.406364
0.409038
0.411697
0.41433
0.416673
0.418441
0.419584
0.420263
0.420598
0.42054
0.420013
0.419082
0.417912
0.416606
0.415129
0.413428
0.411573
0.409696
0.407818
0.405838
0.403749
0.401774
0.400038
0.398355
-0.00850514
0.00157733
0.00885011
0.0152562
0.0213995
0.0273709
0.033633
0.0403233
0.0475697
0.0554206
0.0637206
0.0723151
0.0811083
0.0898706
0.0983977
0.106533
0.114177
0.121286
0.127847
0.133892
0.139521
0.144902
0.150117
0.155176
0.16013
0.165054
0.170034
0.175199
0.180643
0.186343
0.192243
0.198288
0.2044
0.210486
0.216483
0.222427
0.228399
0.234399
0.240402
0.24642
0.252438
0.258399
0.264238
0.269923
0.275501
0.281017
0.286422
0.291645
0.296659
0.301453
0.306033
0.310392
0.314513
0.318479
0.322489
0.326637
0.330806
0.334837
0.338665
0.34228
0.345719
0.349109
0.35258
0.35617
0.35988
0.363759
0.367808
0.371872
0.37578
0.379542
0.383316
0.387176
0.391025
0.394712
0.398132
0.401237
0.404055
0.406737
0.409447
0.412142
0.414527
0.416326
0.417559
0.418455
0.41912
0.419398
0.41912
0.418382
0.417472
0.416554
0.415495
0.414083
0.41232
0.410374
0.408313
0.406066
0.403633
0.401193
0.398834
0.396156
-0.00725114
0.00470932
0.0136299
0.0214423
0.0283176
0.0345124
0.0404962
0.0466505
0.0531699
0.0601127
0.0675061
0.0751725
0.0829778
0.0908934
0.0986562
0.106139
0.113219
0.119954
0.126328
0.132379
0.138139
0.143623
0.148871
0.153973
0.158993
0.163982
0.169046
0.174301
0.179799
0.185521
0.191446
0.19753
0.203664
0.20975
0.215774
0.221762
0.227732
0.233682
0.239619
0.245562
0.251505
0.257398
0.263172
0.268819
0.274406
0.279935
0.285319
0.290531
0.295585
0.300434
0.305041
0.30942
0.31359
0.317639
0.321743
0.325963
0.330157
0.334174
0.337982
0.341586
0.345003
0.348326
0.351676
0.355112
0.358678
0.362453
0.36643
0.370424
0.374266
0.378016
0.381862
0.385829
0.389723
0.393341
0.396622
0.399604
0.402358
0.405014
0.407691
0.410323
0.412628
0.414379
0.41565
0.416694
0.417576
0.41806
0.417932
0.417339
0.416667
0.416096
0.415396
0.414223
0.412514
0.410458
0.408189
0.405728
0.403084
0.400339
0.39744
0.393891
-0.00235968
0.0100444
0.0194682
0.0277096
0.0348321
0.0408879
0.0465462
0.0521866
0.0580416
0.0642914
0.0709445
0.0778666
0.0849535
0.0921323
0.0992812
0.106277
0.113005
0.119428
0.125608
0.131571
0.137346
0.14292
0.148258
0.153416
0.158469
0.163498
0.168624
0.173929
0.179449
0.185206
0.191181
0.197285
0.20341
0.20949
0.21551
0.221481
0.227392
0.233248
0.239105
0.244978
0.250817
0.256597
0.262312
0.267949
0.273523
0.279013
0.284352
0.289546
0.294623
0.299507
0.304128
0.308512
0.312717
0.316842
0.32103
0.325295
0.329477
0.333464
0.337274
0.340909
0.344338
0.347623
0.350901
0.354265
0.357773
0.361502
0.365437
0.369396
0.373228
0.377019
0.38096
0.385017
0.388916
0.392432
0.395574
0.398469
0.401203
0.403832
0.406402
0.408854
0.41099
0.41267
0.413993
0.415164
0.416177
0.416756
0.416715
0.41627
0.415837
0.415544
0.415074
0.414019
0.412299
0.410114
0.407659
0.405052
0.402271
0.399278
0.395906
0.391645
0.00561899
0.017315
0.0264384
0.0344601
0.0413097
0.0470172
0.0522179
0.0572808
0.0625432
0.0681366
0.0740996
0.0804347
0.0869869
0.0935669
0.100199
0.10677
0.113233
0.119478
0.125518
0.131381
0.137094
0.142653
0.148033
0.15325
0.15836
0.163449
0.16863
0.173978
0.179523
0.185306
0.191301
0.197386
0.203467
0.209518
0.215494
0.221366
0.22716
0.232918
0.238686
0.244471
0.250225
0.255939
0.261621
0.26725
0.27281
0.278264
0.283559
0.288735
0.293832
0.298746
0.303378
0.307774
0.312019
0.316204
0.320431
0.324679
0.328802
0.332744
0.33657
0.340258
0.343711
0.346967
0.350208
0.353567
0.357086
0.360805
0.364701
0.368623
0.372461
0.37632
0.380359
0.384471
0.388317
0.3917
0.394737
0.397634
0.400426
0.403034
0.405437
0.407644
0.4096
0.411248
0.412656
0.413936
0.41502
0.415651
0.415708
0.415441
0.415227
0.415109
0.414717
0.413666
0.411902
0.409624
0.407063
0.404366
0.401449
0.398172
0.394359
0.389526
0.0158213
0.0261226
0.0343519
0.041675
0.0479263
0.053077
0.0576571
0.0621853
0.066845
0.0717803
0.0771441
0.0829127
0.0889611
0.0951761
0.101429
0.107656
0.113835
0.119936
0.125882
0.131655
0.137277
0.142765
0.148124
0.153349
0.158489
0.163637
0.168869
0.174248
0.179824
0.185611
0.191568
0.197589
0.203586
0.209538
0.215409
0.221158
0.22682
0.232475
0.23818
0.243914
0.249622
0.255325
0.261037
0.26669
0.272232
0.277647
0.282925
0.288124
0.293252
0.298174
0.302809
0.30724
0.311549
0.315768
0.319955
0.324105
0.328126
0.332018
0.335862
0.339595
0.343062
0.346302
0.349549
0.352955
0.35652
0.360233
0.364081
0.367971
0.371836
0.375779
0.379902
0.384026
0.38779
0.391063
0.394077
0.39707
0.399967
0.402533
0.404711
0.406648
0.408463
0.410135
0.411629
0.412943
0.414004
0.414653
0.414837
0.41477
0.414722
0.414666
0.414264
0.413217
0.41149
0.40924
0.406686
0.403946
0.400849
0.39723
0.392997
0.387714
0.02767
0.0360338
0.042963
0.0492058
0.0546383
0.0590512
0.0629819
0.0668687
0.0709708
0.0754057
0.0802189
0.0854441
0.091071
0.0969896
0.102963
0.108957
0.114897
0.120795
0.126584
0.13223
0.137736
0.143119
0.148399
0.153585
0.158726
0.163904
0.169166
0.17456
0.180152
0.18593
0.191802
0.197696
0.20358
0.209406
0.215108
0.220696
0.226267
0.231882
0.23755
0.243249
0.248969
0.254744
0.26053
0.266193
0.271694
0.277084
0.282387
0.287627
0.292772
0.297688
0.302339
0.306835
0.311208
0.31541
0.31948
0.323477
0.327386
0.331238
0.335091
0.338838
0.342305
0.345563
0.348884
0.35239
0.356002
0.359686
0.363498
0.367421
0.371387
0.375429
0.379592
0.383688
0.387394
0.39065
0.393739
0.39687
0.399847
0.402313
0.40422
0.40588
0.407571
0.409268
0.41079
0.412031
0.412974
0.413607
0.41394
0.414085
0.414165
0.414122
0.413729
0.412784
0.411218
0.4091
0.406593
0.403786
0.400466
0.396524
0.391976
0.386406
0.0405283
0.0466868
0.0519847
0.0569696
0.0613131
0.0649346
0.068168
0.0713611
0.0749287
0.0789615
0.0833739
0.0881855
0.0934596
0.099059
0.104817
0.110581
0.1163
0.121961
0.127521
0.132952
0.138278
0.143519
0.148686
0.153819
0.158954
0.164131
0.169419
0.174862
0.180452
0.186154
0.191931
0.19772
0.203452
0.209084
0.214606
0.220085
0.225603
0.23118
0.23682
0.242537
0.248329
0.254184
0.260002
0.265636
0.271094
0.276474
0.281792
0.287039
0.29218
0.297107
0.301814
0.306392
0.310799
0.314925
0.318835
0.32268
0.326506
0.330332
0.334176
0.337916
0.341401
0.34474
0.348202
0.351833
0.355479
0.359133
0.362969
0.367038
0.371195
0.375345
0.379493
0.383533
0.387243
0.390585
0.393799
0.397019
0.399979
0.402285
0.403929
0.40534
0.406897
0.408562
0.41004
0.411157
0.411976
0.412619
0.413132
0.4135
0.413697
0.413672
0.413329
0.412538
0.411147
0.409115
0.406584
0.403662
0.400164
0.39605
0.391394
0.385743
0.053823
0.0576206
0.0611801
0.064743
0.0679413
0.0706783
0.0731821
0.0757815
0.0787788
0.0823697
0.0864911
0.0910546
0.0960387
0.101325
0.106817
0.112312
0.117781
0.123172
0.128447
0.133605
0.138718
0.143818
0.148872
0.153929
0.159077
0.164323
0.169658
0.175116
0.180703
0.186367
0.192046
0.197682
0.20323
0.208684
0.214069
0.219456
0.224913
0.230446
0.236081
0.241845
0.247703
0.253581
0.259357
0.264919
0.270329
0.275692
0.280987
0.286191
0.291314
0.296294
0.301107
0.305767
0.31016
0.314169
0.317938
0.321694
0.32548
0.329271
0.333085
0.336839
0.34041
0.343888
0.347496
0.351228
0.35491
0.358594
0.362552
0.366852
0.371236
0.375473
0.37957
0.383553
0.387313
0.390786
0.394095
0.397299
0.400139
0.402269
0.403731
0.404988
0.406441
0.408041
0.40945
0.410492
0.411288
0.412031
0.412748
0.413307
0.413585
0.413566
0.413263
0.412559
0.411224
0.409161
0.406544
0.403536
0.399998
0.395917
0.391352
0.385796
0.0670271
0.0684903
0.0702992
0.0723624
0.0743975
0.0762117
0.0780622
0.080118
0.0825876
0.0857233
0.0895414
0.0938811
0.0985769
0.103571
0.108719
0.113921
0.119081
0.124131
0.129111
0.134063
0.138985
0.143901
0.148881
0.153974
0.15917
0.164459
0.16986
0.175378
0.180971
0.18657
0.192129
0.197604
0.202975
0.208273
0.213545
0.218852
0.224242
0.22973
0.235368
0.241173
0.247045
0.252868
0.258543
0.264016
0.269374
0.274691
0.279913
0.285054
0.290193
0.295281
0.300215
0.304923
0.309267
0.313183
0.316885
0.320617
0.32438
0.32812
0.331907
0.335733
0.339454
0.343076
0.346764
0.350542
0.354295
0.358108
0.362267
0.366805
0.371375
0.375663
0.379699
0.383633
0.387441
0.391013
0.394353
0.397465
0.400149
0.402158
0.403567
0.404806
0.406236
0.407796
0.409169
0.410219
0.411101
0.412007
0.412901
0.413565
0.413852
0.413805
0.413504
0.412815
0.411453
0.409333
0.406688
0.403709
0.400265
0.39634
0.391963
0.3866
0.0796836
0.0790289
0.0790787
0.0797218
0.0805543
0.0815012
0.0827303
0.084276
0.0863414
0.0890967
0.0925555
0.0965492
0.100919
0.105614
0.110412
0.115223
0.120014
0.124799
0.129547
0.134271
0.139034
0.143883
0.148864
0.153988
0.159232
0.164589
0.170059
0.175605
0.181161
0.186668
0.192095
0.197409
0.202623
0.207801
0.212986
0.218217
0.223547
0.229015
0.234669
0.24048
0.2463
0.252025
0.257606
0.26301
0.268297
0.273522
0.278657
0.283778
0.288995
0.294206
0.29922
0.303938
0.308257
0.312154
0.315851
0.319582
0.323323
0.32703
0.330835
0.334771
0.338644
0.34235
0.34604
0.349832
0.353699
0.357719
0.362101
0.366826
0.37151
0.375821
0.379808
0.383694
0.387512
0.391119
0.394443
0.397467
0.400058
0.402046
0.403517
0.404841
0.406314
0.407864
0.409223
0.410306
0.41129
0.412336
0.413336
0.414022
0.414262
0.414179
0.413887
0.413223
0.411885
0.409832
0.407316
0.404495
0.401208
0.39746
0.393286
0.38817
0.0913855
0.0888298
0.0872904
0.0865334
0.0863193
0.0864479
0.087011
0.088151
0.0899218
0.0923361
0.0954079
0.0990481
0.103095
0.107355
0.111774
0.116254
0.120729
0.125243
0.129802
0.134395
0.139066
0.143886
0.148883
0.154031
0.1593
0.164683
0.170157
0.175662
0.181126
0.186505
0.191785
0.196963
0.202072
0.207173
0.212293
0.217474
0.222792
0.22828
0.233944
0.239718
0.245464
0.251116
0.256646
0.261989
0.267182
0.272307
0.277396
0.282557
0.28787
0.293162
0.298207
0.302933
0.307282
0.31122
0.314936
0.318664
0.322413
0.326156
0.330031
0.334069
0.338034
0.341763
0.345424
0.34924
0.353255
0.3575
0.362085
0.366937
0.371684
0.376007
0.379963
0.383803
0.387593
0.391195
0.394501
0.397487
0.400069
0.402122
0.403716
0.40515
0.406662
0.40819
0.409517
0.410598
0.411628
0.412737
0.413772
0.41444
0.41464
0.414545
0.414289
0.413704
0.412506
0.410685
0.408454
0.405874
0.402765
0.399206
0.395266
0.390462
0.101555
0.097515
0.0946359
0.0925743
0.0913756
0.0908353
0.0909018
0.0916433
0.0930957
0.0952833
0.0980706
0.101321
0.104975
0.108872
0.112932
0.117065
0.121299
0.125642
0.13006
0.134553
0.13918
0.143997
0.148982
0.154089
0.15931
0.164644
0.170039
0.175418
0.18073
0.185962
0.191125
0.196221
0.201273
0.206336
0.211437
0.216629
0.22198
0.227492
0.233145
0.238882
0.244586
0.250206
0.255696
0.26097
0.266076
0.271143
0.276233
0.281439
0.286806
0.29213
0.297185
0.301938
0.306352
0.31036
0.314111
0.317868
0.321694
0.325555
0.329538
0.33365
0.337653
0.341391
0.345053
0.348931
0.353109
0.357564
0.362315
0.367254
0.372038
0.376367
0.380299
0.384093
0.387846
0.391435
0.394733
0.397714
0.400328
0.402476
0.404195
0.405713
0.407231
0.408713
0.409997
0.411066
0.412104
0.413219
0.414249
0.4149
0.415089
0.415004
0.414787
0.41429
0.413287
0.411779
0.409887
0.407577
0.404688
0.401391
0.397778
0.393371
0.109866
0.1047
0.100722
0.0976256
0.0955907
0.0945321
0.0942343
0.0946933
0.0959195
0.0978542
0.100377
0.103347
0.106616
0.110153
0.113873
0.117756
0.121824
0.126027
0.130333
0.134778
0.139406
0.144195
0.149089
0.154089
0.159213
0.164424
0.169646
0.174834
0.179989
0.185114
0.190205
0.195254
0.200286
0.205363
0.210503
0.215735
0.221111
0.22662
0.232255
0.237975
0.243666
0.249258
0.254697
0.259906
0.264959
0.270008
0.275105
0.280319
0.285687
0.291018
0.29609
0.30088
0.305368
0.309471
0.313314
0.317177
0.321161
0.325205
0.329326
0.333506
0.337548
0.34133
0.345055
0.349035
0.353369
0.358002
0.362883
0.367873
0.372655
0.376961
0.380851
0.384593
0.388308
0.39188
0.395166
0.398131
0.40076
0.40299
0.404827
0.406424
0.407949
0.409409
0.410701
0.411822
0.412908
0.414037
0.415048
0.415685
0.415885
0.415819
0.415619
0.415182
0.414345
0.413106
0.411508
0.409464
0.406867
0.403937
0.40075
0.396822
0.116211
0.110097
0.105418
0.101555
0.0988449
0.0974478
0.0969855
0.0972562
0.0983094
0.100055
0.102338
0.105006
0.107931
0.11114
0.114591
0.118289
0.122198
0.126288
0.130561
0.135018
0.139631
0.144339
0.149125
0.15402
0.15901
0.164027
0.169034
0.174052
0.1791
0.184154
0.189195
0.194222
0.199271
0.204389
0.209563
0.214803
0.220162
0.225645
0.231255
0.236957
0.242624
0.248178
0.25357
0.258736
0.263762
0.268803
0.273896
0.279089
0.284433
0.289766
0.294867
0.299705
0.30428
0.308527
0.312549
0.316608
0.320813
0.325082
0.329373
0.333653
0.337776
0.341656
0.345492
0.34959
0.354057
0.35882
0.363777
0.36876
0.373477
0.377703
0.381518
0.385195
0.388862
0.392401
0.395645
0.398561
0.401182
0.403491
0.405467
0.407185
0.408773
0.410282
0.411675
0.412945
0.414154
0.415326
0.416323
0.416951
0.417178
0.417152
0.416979
0.416586
0.415871
0.414831
0.41347
0.411698
0.409452
0.406953
0.404234
0.400817
0.120743
0.113881
0.108628
0.104381
0.101292
0.0995996
0.0990696
0.0993176
0.100239
0.101789
0.103822
0.106162
0.108794
0.111712
0.114938
0.118457
0.122242
0.126307
0.13062
0.135102
0.139684
0.144334
0.149065
0.153872
0.158699
0.163515
0.168357
0.173274
0.178252
0.183243
0.188243
0.193267
0.198337
0.203464
0.208615
0.213807
0.219115
0.224556
0.230127
0.235791
0.241422
0.246943
0.25231
0.257456
0.262466
0.267501
0.272592
0.277766
0.283081
0.288415
0.293558
0.298466
0.303164
0.307612
0.311881
0.316192
0.320647
0.325162
0.329655
0.334076
0.338318
0.342334
0.346308
0.350522
0.355087
0.359921
0.364883
0.369785
0.374372
0.378479
0.38221
0.385827
0.389443
0.392924
0.396095
0.398946
0.401567
0.403984
0.406142
0.408033
0.409743
0.411362
0.41291
0.41437
0.415731
0.416955
0.417936
0.418563
0.418844
0.418899
0.418795
0.418483
0.417906
0.417071
0.415965
0.414504
0.412641
0.410572
0.408298
0.405378
0.123833
0.116374
0.110669
0.106242
0.103021
0.101173
0.100545
0.100765
0.101577
0.102916
0.104662
0.1067
0.109048
0.11171
0.114734
0.118112
0.121862
0.125979
0.130355
0.134868
0.139463
0.144133
0.148858
0.153577
0.158254
0.162937
0.167703
0.172568
0.177483
0.18241
0.187376
0.192396
0.197453
0.202535
0.207614
0.21273
0.217978
0.223374
0.228908
0.234539
0.240142
0.245645
0.251005
0.256152
0.261161
0.2662
0.2713
0.276464
0.281751
0.287085
0.292287
0.297298
0.302148
0.306819
0.311355
0.315922
0.32062
0.325378
0.330084
0.334664
0.339041
0.343207
0.347336
0.351669
0.356307
0.361161
0.366069
0.370843
0.375286
0.379297
0.38299
0.386589
0.390166
0.393578
0.396668
0.399469
0.402129
0.404694
0.407063
0.409143
0.410983
0.41271
0.414398
0.416014
0.417481
0.418721
0.419678
0.420318
0.420677
0.420837
0.420832
0.420646
0.420276
0.419735
0.418973
0.41788
0.416404
0.414739
0.412873
0.410427
0.125767
0.117859
0.111872
0.107345
0.104108
0.10219
0.101434
0.101535
0.102204
0.103317
0.104783
0.106567
0.108644
0.111093
0.113965
0.117286
0.121077
0.125258
0.129685
0.134254
0.138927
0.143661
0.148374
0.153007
0.157599
0.162249
0.167003
0.171827
0.176676
0.181551
0.186496
0.1915
0.196512
0.20152
0.206524
0.211584
0.216801
0.222181
0.227703
0.233322
0.238916
0.24441
0.249774
0.254941
0.25997
0.265021
0.27013
0.275288
0.280551
0.285894
0.291169
0.296293
0.301286
0.306157
0.310932
0.315728
0.320636
0.325606
0.330506
0.335239
0.339754
0.344087
0.348393
0.352867
0.357579
0.362437
0.367276
0.371939
0.376296
0.380296
0.384031
0.387657
0.391208
0.394549
0.397572
0.400364
0.40311
0.405848
0.408416
0.410653
0.41259
0.4144
0.416188
0.417901
0.419407
0.420625
0.421554
0.422222
0.422665
0.422914
0.422992
0.422943
0.422831
0.422659
0.422305
0.4216
0.420505
0.419232
0.417759
0.415779
0.126518
0.118582
0.112423
0.107775
0.104545
0.102578
0.101683
0.101611
0.102108
0.103015
0.10427
0.10584
0.107714
0.110017
0.112816
0.116147
0.119968
0.124162
0.128621
0.133264
0.138018
0.142776
0.147441
0.152028
0.156632
0.161324
0.166083
0.170863
0.175667
0.180528
0.185473
0.190453
0.19541
0.200362
0.205339
0.210407
0.215653
0.221058
0.226587
0.232206
0.237797
0.243286
0.248657
0.253852
0.258908
0.263966
0.269081
0.274241
0.279501
0.284868
0.290218
0.29544
0.300542
0.305566
0.31054
0.315528
0.320602
0.325735
0.330799
0.335682
0.340359
0.344892
0.349412
0.354055
0.358863
0.363745
0.368556
0.373177
0.377538
0.381613
0.385443
0.389105
0.392605
0.395863
0.398842
0.401674
0.404541
0.407447
0.410175
0.412527
0.414544
0.416438
0.41833
0.420127
0.421652
0.422836
0.423745
0.424453
0.424974
0.425289
0.425426
0.425501
0.425641
0.425818
0.425827
0.425466
0.424737
0.423863
0.422786
0.421266
0.126131
0.118507
0.11234
0.107559
0.10425
0.10224
0.101235
0.101024
0.101392
0.102176
0.103307
0.104728
0.106513
0.108755
0.111524
0.11483
0.118597
0.122752
0.127216
0.131885
0.136631
0.141336
0.145967
0.150594
0.155287
0.160037
0.164791
0.169551
0.174365
0.179256
0.184206
0.189153
0.194072
0.199027
0.204059
0.209208
0.214525
0.219968
0.2255
0.231108
0.236693
0.242178
0.247548
0.252762
0.257841
0.262912
0.268053
0.273256
0.278549
0.283955
0.289375
0.294681
0.299871
0.305024
0.310172
0.315329
0.320538
0.325796
0.331002
0.336052
0.340936
0.345718
0.350484
0.355315
0.360238
0.365179
0.370014
0.374657
0.379078
0.383254
0.387166
0.390818
0.394224
0.397383
0.400342
0.403256
0.40627
0.40933
0.412185
0.414638
0.416759
0.418788
0.420832
0.42274
0.424291
0.425448
0.426345
0.427096
0.427687
0.428071
0.428287
0.428499
0.428852
0.42928
0.429536
0.429447
0.429073
0.4286
0.427914
0.426827
0.124704
0.117484
0.11148
0.10661
0.103173
0.101139
0.100116
0.0998748
0.100213
0.10098
0.102081
0.103479
0.105259
0.107474
0.110177
0.113365
0.117013
0.121083
0.125478
0.130058
0.134703
0.139352
0.144027
0.148767
0.153553
0.158333
0.163096
0.167892
0.17276
0.177674
0.182598
0.187509
0.192442
0.197481
0.202636
0.207894
0.213278
0.218746
0.22427
0.22986
0.235435
0.240907
0.246265
0.251495
0.256619
0.261748
0.266973
0.272281
0.277655
0.283117
0.288612
0.294016
0.299318
0.304612
0.309931
0.315244
0.320575
0.325949
0.3313
0.336539
0.341661
0.346714
0.351729
0.356739
0.361771
0.366782
0.371668
0.376352
0.380821
0.385054
0.38899
0.392591
0.39589
0.398973
0.401964
0.405011
0.408198
0.411412
0.414392
0.416972
0.419254
0.421478
0.423706
0.425723
0.427285
0.428397
0.429267
0.430043
0.4307
0.431177
0.431519
0.431896
0.432426
0.433014
0.433438
0.433594
0.433568
0.433482
0.433156
0.432449
0.122327
0.115466
0.109687
0.104847
0.101381
0.0993775
0.0984337
0.0982688
0.0986909
0.0995501
0.100718
0.102185
0.103968
0.106125
0.108705
0.111731
0.115224
0.119141
0.123365
0.127781
0.132331
0.137001
0.141782
0.146622
0.151451
0.156253
0.161064
0.165922
0.17081
0.175679
0.180543
0.185455
0.190479
0.195667
0.200965
0.206315
0.211745
0.217236
0.222765
0.228346
0.233907
0.23936
0.244711
0.249993
0.255231
0.260499
0.265877
0.271342
0.276835
0.282379
0.28797
0.29351
0.298968
0.304429
0.309914
0.315372
0.320821
0.326317
0.331819
0.337242
0.342584
0.347872
0.353093
0.358244
0.363358
0.368422
0.373342
0.378042
0.382518
0.38676
0.390693
0.394261
0.397523
0.400631
0.403749
0.406999
0.410395
0.413786
0.416924
0.419684
0.422183
0.42463
0.427023
0.429098
0.430614
0.431638
0.432453
0.433235
0.433947
0.434517
0.434989
0.435513
0.436176
0.43689
0.437488
0.43791
0.438221
0.438475
0.438443
0.438037
0.11923
0.112591
0.107023
0.102365
0.0990023
0.0970919
0.0962957
0.0962886
0.0968744
0.0978839
0.099176
0.100706
0.102469
0.104546
0.106993
0.109858
0.113164
0.116863
0.120881
0.125173
0.129712
0.134455
0.139313
0.144184
0.149022
0.15386
0.158724
0.163583
0.168391
0.173158
0.177992
0.182988
0.188171
0.193525
0.19895
0.204382
0.209872
0.215422
0.22099
0.22657
0.232117
0.237567
0.242955
0.248361
0.253799
0.259276
0.264842
0.270475
0.276102
0.281754
0.287472
0.293175
0.298811
0.304443
0.310081
0.315661
0.321216
0.32683
0.332467
0.338033
0.343526
0.348975
0.354343
0.359593
0.36476
0.369849
0.374776
0.379469
0.383943
0.38821
0.392192
0.395824
0.399182
0.402453
0.405811
0.409329
0.412966
0.416558
0.419898
0.422894
0.425651
0.428317
0.430828
0.432902
0.434334
0.435265
0.436036
0.436828
0.437578
0.438193
0.438719
0.439301
0.440037
0.440872
0.441671
0.442357
0.442948
0.44345
0.443601
0.443394
0.115697
0.109156
0.103767
0.0993639
0.0961739
0.0944052
0.0937858
0.0939714
0.0947219
0.0958616
0.0972661
0.0988289
0.100577
0.102587
0.104921
0.107628
0.110725
0.114216
0.118101
0.12236
0.126937
0.131717
0.136573
0.141428
0.14628
0.151147
0.155988
0.160739
0.165412
0.170119
0.175025
0.18019
0.185556
0.19106
0.19661
0.20216
0.207768
0.213422
0.219041
0.224616
0.23016
0.235655
0.241153
0.246749
0.252431
0.258128
0.263862
0.269636
0.275391
0.281164
0.287022
0.292884
0.298681
0.304465
0.310239
0.315929
0.321576
0.327284
0.333018
0.338674
0.344259
0.34982
0.355306
0.360649
0.365865
0.370971
0.375901
0.380606
0.385134
0.389514
0.393652
0.397461
0.40102
0.404544
0.408197
0.412004
0.415877
0.419667
0.423221
0.42648
0.429512
0.432385
0.434988
0.437047
0.438426
0.43933
0.440123
0.440959
0.441734
0.442331
0.442809
0.443356
0.444114
0.44505
0.446013
0.446875
0.447624
0.448235
0.448442
0.448328
0.111909
0.105456
0.100217
0.096052
0.0930683
0.091453
0.0909737
0.0912992
0.092157
0.0933828
0.0948513
0.0964477
0.0981944
0.10015
0.102377
0.104924
0.107846
0.111214
0.115055
0.11932
0.1239
0.128651
0.133465
0.138313
0.143179
0.148013
0.152736
0.15734
0.161945
0.166725
0.171811
0.177178
0.182711
0.188362
0.194079
0.199813
0.205584
0.211348
0.217004
0.22257
0.228144
0.233754
0.239425
0.245228
0.251125
0.256997
0.262856
0.268737
0.274604
0.280497
0.286483
0.292479
0.298407
0.304329
0.310241
0.316048
0.321785
0.327567
0.33337
0.339097
0.344776
0.35047
0.356109
0.361581
0.366875
0.372018
0.376978
0.381748
0.386416
0.391009
0.395388
0.399423
0.403194
0.406947
0.410853
0.414902
0.418967
0.422919
0.426662
0.430164
0.433452
0.43652
0.439216
0.441298
0.442696
0.443659
0.444536
0.445437
0.446215
0.446756
0.447154
0.447654
0.448425
0.449415
0.450427
0.451315
0.452075
0.45267
0.45285
0.45275
0.107955
0.101686
0.0966059
0.0926439
0.0898536
0.0883392
0.0879129
0.0882904
0.0892034
0.0904792
0.0919639
0.0935782
0.0953022
0.0971854
0.0992973
0.101708
0.104526
0.107846
0.111669
0.115912
0.120451
0.125158
0.129957
0.134811
0.139651
0.144385
0.148977
0.153524
0.158213
0.163184
0.16848
0.174023
0.179708
0.185537
0.191477
0.197431
0.203352
0.209191
0.214877
0.22047
0.226139
0.231928
0.237798
0.24378
0.249828
0.255824
0.261787
0.267773
0.273747
0.27975
0.285853
0.291968
0.298024
0.304092
0.310162
0.316105
0.321934
0.327784
0.33366
0.339491
0.345328
0.351228
0.357081
0.362723
0.368126
0.373334
0.378358
0.383245
0.388112
0.392959
0.397582
0.4018
0.405709
0.4096
0.413672
0.417893
0.422106
0.426188
0.430086
0.433788
0.437288
0.440523
0.44332
0.445468
0.446941
0.447997
0.448949
0.449866
0.450599
0.45107
0.451427
0.451935
0.452736
0.453715
0.454655
0.455453
0.456134
0.456664
0.456811
0.456704
0.103938
0.0979734
0.093092
0.089288
0.0866184
0.0851423
0.0847051
0.0850802
0.0860085
0.0872741
0.0887205
0.0902849
0.0919338
0.0937146
0.0957058
0.0980159
0.100778
0.104067
0.107858
0.112062
0.116573
0.121278
0.126092
0.130934
0.135697
0.140329
0.144887
0.149531
0.154416
0.159593
0.165048
0.170724
0.176576
0.182625
0.188808
0.194953
0.200975
0.206873
0.212636
0.218349
0.224195
0.230199
0.236262
0.242386
0.248553
0.254667
0.260758
0.266872
0.272962
0.279073
0.285294
0.291544
0.297752
0.303987
0.310217
0.316284
0.322194
0.328111
0.334084
0.340075
0.346141
0.352307
0.358399
0.364211
0.369718
0.375003
0.380118
0.385147
0.390213
0.39528
0.400083
0.404409
0.408385
0.412362
0.41657
0.420951
0.425312
0.429528
0.433571
0.437445
0.441118
0.444493
0.447388
0.449618
0.451174
0.452296
0.453251
0.45409
0.454709
0.455095
0.45544
0.455982
0.456786
0.457689
0.458502
0.459186
0.459792
0.460287
0.460432
0.460323
0.0999587
0.0943685
0.0897136
0.0860169
0.0834018
0.0819579
0.0815069
0.0818419
0.0827131
0.0838816
0.0852204
0.086653
0.0881708
0.0898203
0.091693
0.0939242
0.0966379
0.0998894
0.103655
0.107856
0.112384
0.117114
0.121927
0.126716
0.131404
0.136018
0.140676
0.14551
0.15059
0.155904
0.161457
0.167263
0.173313
0.179595
0.185986
0.192272
0.19838
0.20439
0.210341
0.216285
0.222367
0.228588
0.234825
0.241087
0.247389
0.253659
0.259916
0.266182
0.272393
0.278616
0.28497
0.29138
0.297759
0.304152
0.310499
0.316632
0.322583
0.328562
0.334655
0.340844
0.347171
0.353603
0.359903
0.36584
0.371426
0.376795
0.382027
0.387209
0.392446
0.397669
0.402584
0.406985
0.411045
0.415167
0.419582
0.424183
0.428735
0.433108
0.437303
0.441338
0.445167
0.448665
0.451647
0.453947
0.455564
0.456706
0.457602
0.458305
0.458768
0.45905
0.459351
0.459859
0.460583
0.461364
0.462071
0.46269
0.46327
0.463766
0.463897
0.463747
0.0960178
0.0908033
0.0863848
0.0827944
0.0802347
0.0788356
0.0783745
0.0786212
0.0793491
0.0803568
0.0815254
0.0827746
0.0841194
0.085621
0.0873866
0.0895478
0.0922126
0.0954419
0.0992194
0.10345
0.108002
0.112726
0.11749
0.122217
0.126896
0.131605
0.136437
0.141446
0.146645
0.152036
0.157685
0.163656
0.16992
0.176398
0.18294
0.189354
0.195611
0.201843
0.208091
0.214332
0.220657
0.227069
0.23347
0.239898
0.246381
0.252842
0.259282
0.265699
0.272035
0.278386
0.284895
0.291475
0.298011
0.304514
0.310904
0.31703
0.322983
0.329025
0.335256
0.341649
0.348215
0.354867
0.361319
0.367345
0.373009
0.378494
0.383889
0.389251
0.394646
0.399986
0.404995
0.409513
0.413764
0.418166
0.422905
0.427799
0.432565
0.437085
0.441409
0.44558
0.449542
0.45314
0.456186
0.458525
0.460165
0.461295
0.462117
0.462694
0.46302
0.463189
0.463387
0.463767
0.464344
0.465011
0.465663
0.466263
0.466834
0.467296
0.467338
0.467036
0.0920388
0.0871481
0.0829763
0.0795369
0.0770555
0.0756834
0.0751875
0.0753161
0.0758708
0.076701
0.0776671
0.078715
0.079875
0.0812372
0.0829139
0.0850143
0.087644
0.0908721
0.0946667
0.0989017
0.103425
0.108087
0.112786
0.117501
0.122265
0.127135
0.132134
0.137258
0.142529
0.148009
0.153801
0.159958
0.166405
0.173018
0.17968
0.186268
0.192778
0.199327
0.205904
0.212421
0.218947
0.225525
0.232103
0.238736
0.245437
0.252099
0.258709
0.265274
0.271757
0.278282
0.284978
0.291726
0.29838
0.304937
0.311314
0.3174
0.323354
0.329474
0.335853
0.342432
0.349185
0.355993
0.362558
0.368684
0.374481
0.380153
0.385773
0.391355
0.396926
0.402398
0.407543
0.412269
0.416839
0.421641
0.426771
0.431958
0.436891
0.441496
0.445886
0.450141
0.454185
0.457838
0.460898
0.463228
0.46485
0.465943
0.466697
0.467177
0.467396
0.467455
0.467527
0.467765
0.468223
0.468827
0.469448
0.470014
0.470519
0.470848
0.470702
0.470127
0.0879397
0.0832806
0.0793348
0.0760745
0.0736692
0.0723015
0.0717713
0.0718127
0.0722286
0.0728809
0.0736446
0.0745009
0.0755014
0.0767508
0.078348
0.0803902
0.0829878
0.0861965
0.0899552
0.0941246
0.0985631
0.103151
0.107832
0.112622
0.117537
0.122575
0.127707
0.132924
0.138296
0.143922
0.149886
0.156198
0.162761
0.169473
0.17628
0.183115
0.189946
0.196817
0.203665
0.21038
0.217065
0.223815
0.230604
0.237474
0.244402
0.251256
0.258034
0.264765
0.271448
0.278211
0.285134
0.292043
0.298782
0.305364
0.311729
0.317806