/*--------------------------------*- C++ -*----------------------------------*\
  =========                 |
  \\      /  F ield         | OpenFOAM: The Open Source CFD Toolbox
   \\    /   O peration     | Website:  https://openfoam.org
    \\  /    A nd           | Version:  11
     \\/     M anipulation  |
\*---------------------------------------------------------------------------*/
FoamFile
{
    format      ascii;
    class       surfaceScalarField;
    location    "0.7";
    object      phi;
}
// * * * * * * * * * * * * * * * * * * * * * * * * * * * * * * * * * * * * * //

dimensions      [0 3 -1 0 0 0 0];

internalField   nonuniform List<scalar> 
19980
(
-3.10886e-06
3.10835e-06
-1.45654e-05
1.14568e-05
-3.92829e-05
2.47176e-05
-7.24966e-05
3.32137e-05
-0.000108958
3.64613e-05
-0.000145032
3.60738e-05
-0.000178152
3.31206e-05
-0.000206838
2.8686e-05
-0.000230028
2.31891e-05
-0.000247361
1.73339e-05
-0.000258975
1.16139e-05
-0.000265255
6.27997e-06
-0.000266785
1.52974e-06
-0.000264287
-2.49774e-06
-0.000258762
-5.52576e-06
-0.000251145
-7.61681e-06
-0.00024258
-8.56478e-06
-0.000233796
-8.78403e-06
-0.000225539
-8.2573e-06
-0.000218303
-7.23574e-06
-0.000212437
-5.86621e-06
-0.000208181
-4.25524e-06
-0.000205692
-2.48877e-06
-0.0002048
-8.92748e-07
-0.000205229
4.28799e-07
-0.000206672
1.44329e-06
-0.000208761
2.08911e-06
-0.000211274
2.513e-06
-0.000214104
2.82998e-06
-0.000217095
2.9908e-06
-0.000220057
2.96231e-06
-0.000222875
2.81749e-06
-0.000225475
2.59961e-06
-0.000227721
2.24616e-06
-0.000229489
1.7687e-06
-0.000230741
1.25179e-06
-0.000231428
6.87129e-07
-0.000231452
2.37844e-08
-0.000230748
-7.04568e-07
-0.000229346
-1.4012e-06
-0.000227318
-2.02882e-06
-0.000224699
-2.6185e-06
-0.000221525
-3.17421e-06
-0.000217845
-3.67986e-06
-0.000213703
-4.14159e-06
-0.000209142
-4.56146e-06
-0.000204178
-4.96434e-06
-0.000198796
-5.38192e-06
-0.00019307
-5.72542e-06
-0.000187217
-5.8537e-06
-0.000181448
-5.76902e-06
-0.000175908
-5.53932e-06
-0.000170746
-5.16247e-06
-0.00016606
-4.68593e-06
-0.00016181
-4.24952e-06
-0.000157894
-3.91683e-06
-0.000154213
-3.68077e-06
-0.00015062
-3.59315e-06
-0.000146953
-3.66709e-06
-0.000143178
-3.77484e-06
-0.000139334
-3.84339e-06
-0.000135332
-4.00197e-06
-0.000130949
-4.38292e-06
-0.000126006
-4.94304e-06
-0.000120403
-5.60327e-06
-0.000114009
-6.39395e-06
-0.00010667
-7.33914e-06
-9.83115e-05
-8.35864e-06
-8.90325e-05
-9.27905e-06
-7.90052e-05
-1.00272e-05
-6.8417e-05
-1.05881e-05
-5.74755e-05
-1.09415e-05
-4.63985e-05
-1.10771e-05
-3.53517e-05
-1.10468e-05
-2.44263e-05
-1.09253e-05
-1.37001e-05
-1.07263e-05
-3.28903e-06
-1.04111e-05
6.70054e-06
-9.98956e-06
1.62528e-05
-9.5524e-06
2.53916e-05
-9.13872e-06
3.40718e-05
-8.68019e-06
4.21016e-05
-8.02993e-06
4.91974e-05
-7.09591e-06
5.50984e-05
-5.90085e-06
5.96325e-05
-4.53401e-06
6.27247e-05
-3.0923e-06
6.43726e-05
-1.64796e-06
6.46078e-05
-2.35226e-07
6.34691e-05
1.13871e-06
6.09985e-05
2.4705e-06
5.72758e-05
3.72268e-06
5.24606e-05
4.81524e-06
4.67417e-05
5.7188e-06
4.02538e-05
6.48788e-06
3.3113e-05
7.14085e-06
2.55058e-05
7.60722e-06
1.7728e-05
7.77764e-06
1.02129e-05
7.51509e-06
3.80883e-06
6.40429e-06
3.80879e-06
4.40378e-06
-1.29548e-06
5.39752e-08
1.58066e-05
-2.36862e-05
4.84578e-05
-6.11101e-05
7.06376e-05
-0.000105994
8.13448e-05
-0.00015342
8.34999e-05
-0.000200118
7.98191e-05
-0.000243623
7.21901e-05
-0.000282559
6.21259e-05
-0.000316223
5.09972e-05
-0.00034425
3.96412e-05
-0.000366702
2.8732e-05
-0.000384169
1.89969e-05
-0.000397272
1.06053e-05
-0.000406903
4.10521e-06
-0.000413996
-5.23798e-07
-0.000419398
-3.1635e-06
-0.000424092
-4.08975e-06
-0.000428853
-3.49609e-06
-0.000434179
-1.90988e-06
-0.000440514
4.68137e-07
-0.000448127
3.35786e-06
-0.000456982
6.3663e-06
-0.000467012
9.13707e-06
-0.000478024
1.14411e-05
-0.000489699
1.31185e-05
-0.000501749
1.41386e-05
-0.00051394
1.47042e-05
-0.000526054
1.4944e-05
-0.000537898
1.48352e-05
-0.000549332
1.43968e-05
-0.000560197
1.36822e-05
-0.000570319
1.27211e-05
-0.000579584
1.15111e-05
-0.000587886
1.00707e-05
-0.0005951
8.46609e-06
-0.000601136
6.72283e-06
-0.000605944
4.83159e-06
-0.000609497
2.84871e-06
-0.000611799
9.00537e-07
-0.000612885
-9.42614e-07
-0.000612793
-2.70996e-06
-0.000611549
-4.41853e-06
-0.000609193
-6.03617e-06
-0.000605764
-7.57095e-06
-0.000601263
-9.06245e-06
-0.000595727
-1.05006e-05
-0.000589271
-1.18378e-05
-0.000582004
-1.29923e-05
-0.000574035
-1.38223e-05
-0.000565569
-1.4235e-05
-0.000556817
-1.42911e-05
-0.000547864
-1.41165e-05
-0.000538746
-1.38035e-05
-0.000529536
-1.34595e-05
-0.000520216
-1.32369e-05
-0.000510645
-1.32519e-05
-0.000500721
-1.35167e-05
-0.000490423
-1.39653e-05
-0.000479662
-1.4536e-05
-0.000468267
-1.52383e-05
-0.000456123
-1.61461e-05
-0.000443175
-1.73311e-05
-0.000429306
-1.88118e-05
-0.000414347
-2.05626e-05
-0.000398195
-2.25454e-05
-0.000380825
-2.47092e-05
-0.000362224
-2.69605e-05
-0.000342369
-2.91331e-05
-0.000321355
-3.10412e-05
-0.000299415
-3.25279e-05
-0.000276808
-3.35484e-05
-0.000253745
-3.41403e-05
-0.000230406
-3.4386e-05
-0.000206979
-3.43525e-05
-0.000183643
-3.4062e-05
-0.000160535
-3.35193e-05
-0.000137754
-3.277e-05
-0.000115418
-3.18892e-05
-9.36793e-05
-3.08773e-05
-7.27548e-05
-2.96048e-05
-5.28963e-05
-2.78883e-05
-3.4363e-05
-2.56293e-05
-1.74061e-05
-2.28578e-05
-2.26173e-06
-1.96784e-05
1.08686e-05
-1.62226e-05
2.18429e-05
-1.26223e-05
3.05861e-05
-8.97852e-06
3.70786e-05
-5.35372e-06
4.1338e-05
-1.78891e-06
4.34072e-05
1.65333e-06
4.33515e-05
4.87092e-06
4.12534e-05
7.81682e-06
3.72218e-05
1.05194e-05
3.14569e-05
1.29058e-05
2.4352e-05
1.4712e-05
1.65315e-05
1.55982e-05
9.09865e-06
1.4948e-05
3.28858e-06
1.22142e-05
7.09752e-06
2.13292e-05
-2.26246e-05
3.8345e-05
-1.20883e-06
3.38294e-05
5.29734e-05
1.37019e-05
9.07654e-05
-1.58271e-05
0.000110873
-5.10896e-05
0.000118762
-8.97467e-05
0.000118476
-0.000129979
0.000112422
-0.000170715
0.000102862
-0.000210799
9.10808e-05
-0.000249798
7.86403e-05
-0.000287442
6.63756e-05
-0.000323297
5.48522e-05
-0.000357659
4.49668e-05
-0.000390429
3.68757e-05
-0.000421917
3.09639e-05
-0.000452215
2.71354e-05
-0.000481606
2.53006e-05
-0.000510112
2.50104e-05
-0.000538121
2.60993e-05
-0.000565678
2.80251e-05
-0.000592815
3.04942e-05
-0.000619558
3.31093e-05
-0.000645912
3.54913e-05
-0.00067182
3.73488e-05
-0.000697191
3.849e-05
-0.000721971
3.89186e-05
-0.000746045
3.87777e-05
-0.000769277
3.81767e-05
-0.000791551
3.71089e-05
-0.000812777
3.56225e-05
-0.0008329
3.38057e-05
-0.000851821
3.16417e-05
-0.000869448
2.91386e-05
-0.000885752
2.63739e-05
-0.000900684
2.33983e-05
-0.000914193
2.02314e-05
-0.000926258
1.6897e-05
-0.00093688
1.34704e-05
-0.000946038
1.00588e-05
-0.000953691
6.71024e-06
-0.000959826
3.4247e-06
-0.000964447
2.02559e-07
-0.00096753
-2.9535e-06
-0.000969079
-6.02144e-06
-0.000969148
-8.9932e-06
-0.000967756
-1.18927e-05
-0.000964935
-1.46593e-05
-0.000960798
-1.71292e-05
-0.000955413
-1.92073e-05
-0.000948743
-2.09045e-05
-0.000940797
-2.22373e-05
-0.000931668
-2.32454e-05
-0.000921401
-2.40709e-05
-0.000909978
-2.48824e-05
-0.000897435
-2.57795e-05
-0.000883854
-2.68332e-05
-0.000869258
-2.81125e-05
-0.00085361
-2.96139e-05
-0.000836874
-3.12713e-05
-0.000819034
-3.30782e-05
-0.000800062
-3.51181e-05
-0.000779935
-3.7459e-05
-0.000758659
-4.00878e-05
-0.000736265
-4.29563e-05
-0.000712778
-4.60319e-05
-0.000688214
-4.92731e-05
-0.000662598
-5.25764e-05
-0.000635965
-5.5766e-05
-0.000608363
-5.86437e-05
-0.000579838
-6.10526e-05
-0.000550461
-6.29254e-05
-0.000520326
-6.42756e-05
-0.000489554
-6.51582e-05
-0.000458284
-6.56222e-05
-0.000426657
-6.56893e-05
-0.000394803
-6.53734e-05
-0.000362867
-6.47062e-05
-0.000331038
-6.37175e-05
-0.000299542
-6.23739e-05
-0.000268595
-6.05511e-05
-0.000238394
-5.80903e-05
-0.000209129
-5.48941e-05
-0.000181015
-5.09713e-05
-0.000154281
-4.64122e-05
-0.000129151
-4.13532e-05
-0.000105832
-3.59409e-05
-8.45251e-05
-3.02852e-05
-6.54279e-05
-2.44509e-05
-4.87197e-05
-1.84973e-05
-3.45475e-05
-1.25188e-05
-2.30395e-05
-6.637e-06
-1.42881e-05
-9.34758e-07
-8.27758e-06
4.50884e-06
-4.81221e-06
9.44045e-06
-3.47123e-06
1.3371e-05
-3.5291e-06
1.56562e-05
-3.5151e-06
1.4934e-05
-1.86622e-06
1.05655e-05
5.23131e-06
3.17296e-05
-5.43544e-05
6.2183e-05
-3.16621e-05
6.88706e-05
4.62862e-05
5.83379e-05
0.000101298
3.69823e-05
0.000132229
7.91034e-06
0.000147834
-2.67173e-05
0.000153104
-6.5867e-05
0.000151572
-0.000108385
0.00014538
-0.000153741
0.000136436
-0.000201097
0.000125997
-0.000249809
0.000115087
-0.000299496
0.000104539
-0.000349597
9.50683e-05
-0.000399649
8.69273e-05
-0.000449415
8.073e-05
-0.000498494
7.62147e-05
-0.000546702
7.35079e-05
-0.000593944
7.22525e-05
-0.000639948
7.21031e-05
-0.000684642
7.27194e-05
-0.000727942
7.37944e-05
-0.000769779
7.49456e-05
-0.000810154
7.58661e-05
-0.000849116
7.63112e-05
-0.000886722
7.60954e-05
-0.000923007
7.52039e-05
-0.000957906
7.3677e-05
-0.000991317
7.15877e-05
-0.00102323
6.9022e-05
-0.00105362
6.60163e-05
-0.00108242
6.2606e-05
-0.0011096
5.88186e-05
-0.00113516
5.46927e-05
-0.00115907
5.02896e-05
-0.00118132
4.5645e-05
-0.00120186
4.07776e-05
-0.0012207
3.57297e-05
-0.00123782
3.05905e-05
-0.0012532
2.54401e-05
-0.00126678
2.02881e-05
-0.00127849
1.5141e-05
-0.00128834
1.00456e-05
-0.00129631
5.02196e-06
-0.00130239
5.58338e-08
-0.00130654
-4.8404e-06
-0.00130882
-9.61226e-06
-0.00130929
-1.41871e-05
-0.00130794
-1.84872e-05
-0.00130469
-2.2453e-05
-0.00129956
-2.60342e-05
-0.00129254
-2.92619e-05
-0.00128356
-3.22242e-05
-0.00127262
-3.50094e-05
-0.0012598
-3.76983e-05
-0.00124518
-4.04059e-05
-0.00122876
-4.32451e-05
-0.00121063
-4.62423e-05
-0.00119089
-4.93598e-05
-0.00116956
-5.25975e-05
-0.00114663
-5.60086e-05
-0.00112212
-5.96286e-05
-0.00109613
-6.3452e-05
-0.00106875
-6.74688e-05
-0.00104004
-7.16669e-05
-0.00101007
-7.60016e-05
-0.000978939
-8.0402e-05
-0.00094673
-8.47849e-05
-0.000913471
-8.90249e-05
-0.000879173
-9.29419e-05
-0.000843856
-9.63689e-05
-0.000807545
-9.92366e-05
-0.000770253
-0.000101567
-0.00073202
-0.000103391
-0.000692949
-0.000104693
-0.000653197
-0.000105442
-0.000612927
-0.000105644
-0.000572291
-0.000105342
-0.000531462
-0.000104546
-0.000490658
-0.000103178
-0.00045011
-0.000101099
-0.000410031
-9.81699e-05
-0.000370608
-9.43168e-05
-0.000332034
-8.9545e-05
-0.000294531
-8.39153e-05
-0.000258357
-7.75268e-05
-0.000223798
-7.05004e-05
-0.000191159
-6.29242e-05
-0.000160754
-5.48557e-05
-0.000132871
-4.63805e-05
-0.000107778
-3.76117e-05
-8.57407e-05
-2.86747e-05
-6.69714e-05
-1.97041e-05
-5.15341e-05
-1.09284e-05
-3.92661e-05
-2.82774e-06
-2.9787e-05
3.8919e-06
-2.2183e-05
8.05227e-06
-1.48475e-05
7.59848e-06
-6.11999e-06
1.83804e-06
-8.88787e-07
3.52241e-05
-8.95785e-05
7.09948e-05
-6.74327e-05
8.14984e-05
3.57823e-05
7.38168e-05
0.00010898
5.42875e-05
0.000151758
2.62263e-05
0.000175896
-8.81252e-06
0.000188143
-4.96153e-05
0.000192375
-9.56229e-05
0.000191388
-0.000145976
0.00018679
-0.000199998
0.000180019
-0.000257119
0.000172207
-0.000316652
0.000164072
-0.000377774
0.00015619
-0.000440086
0.000149239
-0.000502623
0.000143267
-0.000565077
0.000138669
-0.000626774
0.000135205
-0.000687391
0.00013287
-0.00074663
0.000131341
-0.000804294
0.000130384
-0.000860133
0.000129633
-0.000914017
0.00012883
-0.000965933
0.000127782
-0.00101589
0.000126272
-0.00106393
0.000124132
-0.00111009
0.000121364
-0.00115441
0.000117996
-0.00119686
0.000114034
-0.00123739
0.000109556
-0.00127601
0.000104631
-0.00131267
9.92725e-05
-0.00134737
9.35217e-05
-0.00138013
8.74444e-05
-0.00141091
8.10766e-05
-0.00143971
7.44391e-05
-0.0014665
6.75737e-05
-0.0014913
6.05296e-05
-0.00151407
5.33609e-05
-0.00153475
4.61138e-05
-0.00155328
3.88228e-05
-0.00156967
3.15252e-05
-0.00158385
2.42297e-05
-0.00159577
1.69451e-05
-0.00160545
9.72722e-06
-0.00161289
2.59991e-06
-0.00161806
-4.44006e-06
-0.00162094
-1.13025e-05
-0.00162156
-1.78673e-05
-0.00161988
-2.41335e-05
-0.0016158
-3.012e-05
-0.00160925
-3.58065e-05
-0.00160027
-4.12092e-05
-0.00158885
-4.64257e-05
-0.001575
-5.15531e-05
-0.00155874
-5.66581e-05
-0.00154019
-6.18018e-05
-0.00151942
-6.70124e-05
-0.0014965
-7.22752e-05
-0.0014715
-7.75974e-05
-0.00144448
-8.30296e-05
-0.00141551
-8.85995e-05
-0.00138468
-9.42811e-05
-0.00135211
-0.000100042
-0.00131791
-0.000105868
-0.00128218
-0.00011173
-0.00124501
-0.000117565
-0.00120651
-0.000123291
-0.00116673
-0.0001288
-0.00112573
-0.000133948
-0.0010835
-0.000138597
-0.00104005
-0.000142685
-0.0009954
-0.000146217
-0.000949602
-0.000149189
-0.00090276
-0.000151536
-0.000855011
-0.00015319
-0.000806508
-0.000154148
-0.000757408
-0.000154442
-0.000707902
-0.000154052
-0.000658219
-0.000152861
-0.0006086
-0.000150718
-0.000559261
-0.000147508
-0.000510401
-0.000143177
-0.000462227
-0.000137719
-0.000414991
-0.000131152
-0.000368994
-0.000123523
-0.000324583
-0.000114912
-0.000282124
-0.000105383
-0.000241984
-9.49959e-05
-0.000204523
-8.38415e-05
-0.000170102
-7.20329e-05
-0.000139076
-5.97002e-05
-0.000111723
-4.70569e-05
-8.8138e-05
-3.45138e-05
-6.82173e-05
-2.27483e-05
-5.1585e-05
-1.27404e-05
-3.73294e-05
-6.20337e-06
-2.38029e-05
-5.92798e-06
-9.35403e-06
-1.26109e-05
-1.02428e-05
3.419e-05
-0.000123769
6.94706e-05
-0.000102713
7.97348e-05
2.55183e-05
7.16438e-05
0.000117071
5.10797e-05
0.000172322
2.1352e-05
0.000205624
-1.58928e-05
0.000225388
-5.9834e-05
0.000236316
-0.000109645
0.000241199
-0.000164812
0.000241956
-0.000224674
0.000239881
-0.000288401
0.000235934
-0.00035535
0.000231022
-0.000424735
0.000225575
-0.000495794
0.000220299
-0.000567795
0.000215268
-0.000639969
0.000210843
-0.000711742
0.000206978
-0.000782553
0.000203681
-0.000851987
0.000200775
-0.000919686
0.000198082
-0.000985454
0.000195402
-0.00104917
0.000192547
-0.00111068
0.000189289
-0.00116991
0.000185508
-0.00122694
0.000181162
-0.00128178
0.000176198
-0.0013344
0.000170615
-0.00138481
0.000164449
-0.00143302
0.000157761
-0.001479
0.000150617
-0.00152275
0.000143024
-0.00156425
0.000135015
-0.00160347
0.000126669
-0.00164043
0.000118031
-0.0016751
0.000109115
-0.00170747
9.99423e-05
-0.0017375
9.05555e-05
-0.00176517
8.10341e-05
-0.00179047
7.14135e-05
-0.00181331
6.16644e-05
-0.00183363
5.18409e-05
-0.00185143
4.20327e-05
-0.00186671
3.22281e-05
-0.0018794
2.24122e-05
-0.00188945
1.26473e-05
-0.00189689
3.00257e-06
-0.00190173
-6.46319e-06
-0.00190389
-1.57047e-05
-0.00190331
-2.47172e-05
-0.00189994
-3.3488e-05
-0.00189376
-4.19856e-05
-0.00188474
-5.0232e-05
-0.00187285
-5.83076e-05
-0.00185813
-6.62751e-05
-0.00184062
-7.41719e-05
-0.00182038
-8.20409e-05
-0.00179749
-8.98987e-05
-0.00177204
-9.77271e-05
-0.0017441
-0.000105541
-0.00171373
-0.000113393
-0.00168104
-0.000121291
-0.00164614
-0.000129181
-0.00160916
-0.000137025
-0.0015702
-0.000144828
-0.00152936
-0.000152569
-0.00148675
-0.000160173
-0.0014425
-0.000167549
-0.00139668
-0.000174616
-0.00134935
-0.000181275
-0.00130053
-0.000187416
-0.00125025
-0.000192968
-0.00119856
-0.000197911
-0.00114553
-0.000202213
-0.00109128
-0.000205785
-0.00103594
-0.000208532
-0.000979663
-0.000210425
-0.000922621
-0.000211484
-0.000865006
-0.000211667
-0.00080704
-0.000210827
-0.000748978
-0.00020878
-0.000691073
-0.000205413
-0.000633555
-0.000200695
-0.000576651
-0.000194623
-0.000520624
-0.000187178
-0.000465814
-0.000178333
-0.00041263
-0.000168097
-0.000361487
-0.000156526
-0.00031279
-0.000143693
-0.000266936
-0.000129696
-0.000224333
-0.000114635
-0.000185401
-9.86331e-05
-0.000150463
-8.19951e-05
-0.00011965
-6.53261e-05
-9.29365e-05
-4.94621e-05
-6.99824e-05
-3.56944e-05
-4.99042e-05
-2.62817e-05
-3.10022e-05
-2.48299e-05
-1.18662e-05
-3.17468e-05
-2.2109e-05
3.02156e-05
-0.000153984
6.125e-05
-0.000133748
6.89861e-05
1.77822e-05
5.86893e-05
0.000127368
3.59974e-05
0.000195014
3.64106e-06
0.00023798
-3.66291e-05
0.000265658
-8.39367e-05
0.000283624
-0.000137671
0.000294933
-0.000197243
0.000301528
-0.000261939
0.000304577
-0.00033115
0.000305145
-0.000404001
0.000303872
-0.000479847
0.000301421
-0.000557615
0.000298067
-0.000636767
0.000294419
-0.000716399
0.000290475
-0.000795945
0.000286524
-0.000874694
0.00028243
-0.000952209
0.00027829
-0.0010281
0.000273974
-0.00110205
0.000269353
-0.00117386
0.000264352
-0.0012434
0.000258828
-0.00131059
0.000252705
-0.00137541
0.00024598
-0.0014378
0.00023859
-0.00149774
0.000230552
-0.00155525
0.000221959
-0.00161033
0.000212837
-0.00166291
0.000203195
-0.00171296
0.000193079
-0.00176052
0.000182573
-0.00180558
0.000171729
-0.00184808
0.000160529
-0.00188796
0.000148994
-0.00192524
0.000137228
-0.00195995
0.000125261
-0.00199198
0.000113072
-0.00202127
0.000100697
-0.00204781
8.8202e-05
-0.0020716
7.56339e-05
-0.00209257
6.30037e-05
-0.00211065
5.03051e-05
-0.00212583
3.75908e-05
-0.00213811
2.49346e-05
-0.00214748
1.23658e-05
-0.00215386
-7.88137e-08
-0.00215722
-1.23449e-05
-0.00215752
-2.44171e-05
-0.00215472
-3.6286e-05
-0.00214879
-4.79196e-05
-0.00213969
-5.93318e-05
-0.00212741
-7.0588e-05
-0.00211196
-8.17247e-05
-0.00209339
-9.27452e-05
-0.00207176
-0.00010367
-0.00204714
-0.000114515
-0.0020196
-0.000125266
-0.00198921
-0.000135932
-0.00195605
-0.000146549
-0.00192024
-0.000157108
-0.00188188
-0.00016754
-0.00184109
-0.000177809
-0.00179798
-0.000187935
-0.00175265
-0.000197902
-0.00170521
-0.000207611
-0.00165581
-0.000216958
-0.00160453
-0.000225893
-0.00155144
-0.000234364
-0.00149658
-0.000242278
-0.00144
-0.000249543
-0.0013818
-0.000256109
-0.00132209
-0.000261926
-0.00126098
-0.000266895
-0.00119861
-0.000270902
-0.00113514
-0.000273895
-0.00107076
-0.000275867
-0.00100567
-0.000276756
-0.000940112
-0.000276388
-0.000874335
-0.000274557
-0.000808603
-0.000271145
-0.000743172
-0.000266127
-0.000678313
-0.000259482
-0.000614338
-0.000251153
-0.000551623
-0.000241049
-0.000490594
-0.000229125
-0.000431692
-0.000215428
-0.000375344
-0.000200041
-0.000321987
-0.000183053
-0.000272083
-0.000164538
-0.000226078
-0.000144639
-0.000184302
-0.000123771
-0.000146967
-0.000102662
-0.000114113
-8.23154e-05
-8.54653e-05
-6.43425e-05
-6.02078e-05
-5.15391e-05
-3.67476e-05
-4.82901e-05
-1.38432e-05
-5.46511e-05
-3.59522e-05
2.44957e-05
-0.000178479
4.88169e-05
-0.000158069
5.24711e-05
1.41279e-05
3.94056e-05
0.000140434
1.40261e-05
0.000220394
-2.09494e-05
0.000272955
-6.42873e-05
0.000308996
-0.000114943
0.000334279
-0.000172295
0.000352285
-0.000235735
0.000364968
-0.0003047
0.000373543
-0.000378394
0.000378839
-0.000456075
0.000381553
-0.000536952
0.000382298
-0.000620239
0.000381354
-0.000705048
0.000379228
-0.000790632
0.000376059
-0.000876301
0.000372193
-0.000961493
0.000367622
-0.00104562
0.000362421
-0.00112825
0.000356598
-0.00120904
0.000350147
-0.00128774
0.000343047
-0.00136418
0.000335267
-0.00143823
0.000326756
-0.00150976
0.000317518
-0.00157876
0.00030759
-0.00164522
0.000297005
-0.00170904
0.000285787
-0.00177017
0.000273967
-0.00182861
0.000261628
-0.00188437
0.000248839
-0.00193739
0.000235593
-0.00198758
0.000221923
-0.00203496
0.000207908
-0.00207955
0.000193586
-0.00212128
0.000178959
-0.00216006
0.000164042
-0.00219589
0.000148896
-0.00222876
0.000133571
-0.00225863
0.000118065
-0.00228541
0.000102413
-0.00230907
8.66687e-05
-0.00232961
7.08413e-05
-0.00234698
5.49688e-05
-0.00236117
3.91164e-05
-0.00237212
2.33177e-05
-0.00237981
7.60876e-06
-0.00238419
-7.96394e-06
-0.00238522
-2.33847e-05
-0.00238287
-3.86351e-05
-0.00237711
-5.36764e-05
-0.00236792
-6.85207e-05
-0.00235529
-8.32257e-05
-0.00233921
-9.78017e-05
-0.00231974
-0.000112218
-0.00229693
-0.000126478
-0.00227084
-0.000140604
-0.00224152
-0.000154582
-0.00220905
-0.000168401
-0.00217353
-0.000182077
-0.00213504
-0.000195593
-0.0020937
-0.00020888
-0.00204961
-0.000221901
-0.00200287
-0.000234673
-0.0019536
-0.000247173
-0.00190192
-0.000259296
-0.00184794
-0.000270933
-0.00179178
-0.00028205
-0.00173352
-0.000292626
-0.00167322
-0.00030258
-0.00161097
-0.000311796
-0.00154689
-0.000320191
-0.00148111
-0.000327704
-0.00141376
-0.00033424
-0.00134499
-0.000339678
-0.00127495
-0.00034393
-0.00120387
-0.000346949
-0.00113197
-0.000348651
-0.00105951
-0.000348856
-0.000986717
-0.000347346
-0.00091388
-0.000343982
-0.000841283
-0.000338724
-0.000769231
-0.000331533
-0.000698076
-0.000322307
-0.000628223
-0.000310901
-0.000560116
-0.000297232
-0.000494209
-0.000281336
-0.000430943
-0.000263306
-0.000370792
-0.000243205
-0.000314249
-0.000221081
-0.000261786
-0.000197102
-0.000213773
-0.000171783
-0.000170495
-0.00014594
-0.000132073
-0.000120737
-9.83218e-05
-9.80938e-05
-6.8538e-05
-8.13228e-05
-4.12397e-05
-7.55884e-05
-1.53548e-05
-8.05359e-05
-5.13071e-05
1.75934e-05
-0.000196073
3.38253e-05
-0.000174301
3.27655e-05
1.51877e-05
1.64947e-05
0.000156704
-1.13567e-05
0.000248245
-4.89839e-05
0.000310583
-9.50306e-05
0.000355042
-0.000148699
0.000387948
-0.000209291
0.000412877
-0.000276199
0.000431877
-0.00034875
0.000446093
-0.000426235
0.000456324
-0.000507999
0.000463316
-0.000593056
0.000467355
-0.000680799
0.000469097
-0.000770239
0.000468668
-0.000860779
0.000466599
-0.000951578
0.000462992
-0.00104207
0.000458113
-0.00113168
0.000452032
-0.00121998
0.000444895
-0.00130661
0.000436784
-0.00139123
0.000427668
-0.00147358
0.000417614
-0.00155355
0.000406725
-0.00163104
0.000395005
-0.00170589
0.000382446
-0.00177801
0.000369121
-0.00184737
0.000355146
-0.00191396
0.000340561
-0.00197769
0.000325357
-0.00203846
0.000309603
-0.00209626
0.0002934
-0.00215112
0.000276783
-0.00220295
0.000259735
-0.00225167
0.0002423
-0.00229726
0.000224555
-0.00233973
0.00020651
-0.00237901
0.000188172
-0.00241503
0.000169592
-0.00244777
0.000150805
-0.00247721
0.000131852
-0.0025033
0.000112759
-0.00252599
9.35316e-05
-0.00254525
7.42314e-05
-0.00256107
5.49371e-05
-0.00257342
3.56631e-05
-0.00258223
1.64249e-05
-0.00258747
-2.72092e-06
-0.00258912
-2.1736e-05
-0.00258716
-4.06006e-05
-0.00258155
-5.92891e-05
-0.00257226
-7.78104e-05
-0.00255928
-9.61988e-05
-0.00254265
-0.000114436
-0.00252239
-0.000132472
-0.00249856
-0.00015031
-0.00247119
-0.000167976
-0.00244033
-0.000185443
-0.00240606
-0.00020267
-0.00236848
-0.000219657
-0.00232767
-0.000236398
-0.00228373
-0.000252826
-0.00223674
-0.000268889
-0.00218682
-0.00028459
-0.00213409
-0.000299905
-0.00207866
-0.000314728
-0.00202064
-0.000328947
-0.00196016
-0.000342536
-0.00189729
-0.00035549
-0.00183214
-0.000367732
-0.00176482
-0.000379122
-0.00169546
-0.000389545
-0.00162423
-0.000398932
-0.00155127
-0.000407203
-0.00147672
-0.000414229
-0.00140076
-0.000419886
-0.00132363
-0.000424083
-0.00124557
-0.00042671
-0.00116684
-0.000427582
-0.00108771
-0.000426478
-0.00100845
-0.000423243
-0.000929366
-0.000417809
-0.000850801
-0.000410098
-0.000773146
-0.000399963
-0.000696818
-0.000387229
-0.000622266
-0.000371784
-0.000549954
-0.000353648
-0.000480354
-0.000332907
-0.000413975
-0.000309584
-0.000351359
-0.000283697
-0.000292988
-0.000255473
-0.000239288
-0.000225484
-0.000190613
-0.000194615
-0.000147177
-0.000164173
-0.000108854
-0.000136417
-7.50855e-05
-0.000115091
-4.45531e-05
-0.000106121
-1.63785e-05
-0.00010871
-6.76855e-05
1.02845e-05
-0.000206357
1.78918e-05
-0.000181908
1.14658e-05
2.16136e-05
-7.88184e-06
0.000176052
-3.82537e-05
0.000278617
-7.81659e-05
0.000350495
-0.000126621
0.000403498
-0.000182923
0.000444249
-0.000246326
0.00047628
-0.000316223
0.000501774
-0.000391945
0.000521816
-0.000472811
0.00053719
-0.000557939
0.000548444
-0.000646639
0.000556055
-0.000738075
0.000560532
-0.000831518
0.000562111
-0.000926176
0.000561257
-0.0010213
0.000558115
-0.00111628
0.000553098
-0.00121064
0.000546391
-0.00130384
0.000538095
-0.00139541
0.000528347
-0.00148508
0.000517341
-0.00157267
0.000505201
-0.00165788
0.000491938
-0.00174048
0.000477606
-0.00182041
0.000462376
-0.00189764
0.000446349
-0.001972
0.000429511
-0.00204335
0.000411911
-0.00211169
0.000393689
-0.002177
0.000374917
-0.00223918
0.000355585
-0.00229814
0.000335736
-0.00235384
0.000315442
-0.0024063
0.000294751
-0.00245543
0.000273685
-0.00250115
0.000252239
-0.00254345
0.000230465
-0.00258229
0.000208437
-0.00261765
0.000186162
-0.00264945
0.000163655
-0.00267766
0.000140963
-0.00270225
0.000118121
-0.0027232
9.51868e-05
-0.00274048
7.22123e-05
-0.00275402
4.92076e-05
-0.0027638
2.6206e-05
-0.0027698
3.27946e-06
-0.002772
-1.95378e-05
-0.00277036
-4.22417e-05
-0.00276484
-6.48058e-05
-0.00275544
-8.7213e-05
-0.00274217
-0.000109474
-0.00272504
-0.000131566
-0.00270407
-0.000153434
-0.00267931
-0.000175069
-0.0026508
-0.000196492
-0.00261858
-0.000217665
-0.00258272
-0.000238522
-0.00254333
-0.000259051
-0.00250047
-0.000279255
-0.00245423
-0.000299075
-0.00240468
-0.000318436
-0.00235195
-0.000337316
-0.00229617
-0.000355693
-0.00223742
-0.000373473
-0.00217582
-0.000390543
-0.0021115
-0.000406863
-0.00204455
-0.000422434
-0.0019751
-0.000437187
-0.00190326
-0.000450959
-0.0018292
-0.000463604
-0.00175309
-0.000475041
-0.00167509
-0.000485203
-0.00159536
-0.000493965
-0.00151408
-0.000501169
-0.00143149
-0.000506668
-0.00134788
-0.000510323
-0.0012635
-0.000511959
-0.00117862
-0.000511361
-0.00109352
-0.000508342
-0.00100854
-0.000502788
-0.000924054
-0.000494582
-0.000840472
-0.000483545
-0.000758226
-0.000469475
-0.000677771
-0.000452238
-0.000599584
-0.000431835
-0.000524186
-0.000408305
-0.000452123
-0.000381647
-0.000383957
-0.000351864
-0.000320195
-0.000319234
-0.000261316
-0.000284363
-0.000207735
-0.000248196
-0.00015973
-0.000212179
-0.000117279
-0.000178868
-7.99866e-05
-0.000152384
-4.67549e-05
-0.000139352
-1.69171e-05
-0.000138548
-8.46025e-05
3.11591e-06
-0.000209473
1.97375e-06
-0.000180766
-9.76305e-06
3.33505e-05
-3.2311e-05
0.0001986
-6.50918e-05
0.000311398
-0.00010709
0.000392493
-0.00015777
0.000454178
-0.000216347
0.000502826
-0.000282265
0.000542198
-0.000354798
0.000574306
-0.000433292
0.00060031
-0.000517041
0.000620939
-0.000605158
0.000636562
-0.000697078
0.000647974
-0.000791793
0.000655247
-0.000888637
0.000658956
-0.000986789
0.000659409
-0.00108572
0.000657051
-0.0011847
0.000652074
-0.00128307
0.000644761
-0.00138042
0.000635438
-0.00147639
0.000624323
-0.0015706
0.000611547
-0.00166264
0.000597243
-0.00175232
0.000581617
-0.00183954
0.000564825
-0.00192409
0.000546926
-0.00200574
0.000528002
-0.00208442
0.000508191
-0.0021601
0.000487588
-0.00223266
0.000466248
-0.00230196
0.000444225
-0.00236796
0.000421583
-0.00243062
0.000398399
-0.00248989
0.000374706
-0.00254567
0.000350529
-0.0025979
0.000325916
-0.00264656
0.000300896
-0.00269161
0.000275514
-0.00273299
0.000249821
-0.00277065
0.000223823
-0.00280455
0.000197557
-0.00283467
0.000171079
-0.00286097
0.000144421
-0.00288341
0.000117628
-0.00290195
9.0752e-05
-0.00291656
6.38154e-05
-0.00292721
3.6857e-05
-0.00293387
9.94697e-06
-0.00293653
-1.68809e-05
-0.00293515
-4.36231e-05
-0.00292971
-7.02471e-05
-0.0029202
-9.67177e-05
-0.00290665
-0.000123033
-0.00288904
-0.000149167
-0.00286742
-0.000175055
-0.00284182
-0.000200671
-0.00281228
-0.000226034
-0.00277884
-0.000251106
-0.00274156
-0.000275797
-0.00270054
-0.000300075
-0.00265585
-0.00032395
-0.00260754
-0.000347378
-0.00255572
-0.00037026
-0.00250049
-0.000392543
-0.00244198
-0.000414204
-0.00238028
-0.000435169
-0.0023155
-0.000455325
-0.00224776
-0.000474609
-0.00217718
-0.000493013
-0.00210389
-0.00051047
-0.00202804
-0.000526809
-0.00194979
-0.000541855
-0.00186932
-0.000555516
-0.00178679
-0.000567734
-0.00170237
-0.000578377
-0.00161629
-0.000587253
-0.00152878
-0.000594174
-0.00144013
-0.000598976
-0.00135061
-0.000601481
-0.00126049
-0.000601479
-0.00117008
-0.000598758
-0.00107972
-0.000593146
-0.000989825
-0.000584476
-0.000900824
-0.000572545
-0.000813168
-0.000557132
-0.000727312
-0.000538094
-0.000643767
-0.00051538
-0.000563074
-0.000488998
-0.000485826
-0.000458895
-0.000412586
-0.000425103
-0.000343887
-0.000387933
-0.000280239
-0.000348011
-0.000222142
-0.000306292
-0.000169946
-0.000264375
-0.000123776
-0.000225038
-8.33952e-05
-0.000192765
-4.79645e-05
-0.000174783
-1.70443e-05
-0.000169468
-0.000101647
-3.55453e-06
-0.000205919
-1.30947e-05
-0.000171226
-2.994e-05
5.0196e-05
-5.57195e-05
0.000224379
-9.07197e-05
0.000346398
-0.000134852
0.000436625
-0.0001875
0.000506826
-0.00024824
0.000563567
-0.000316474
0.000610432
-0.000391396
0.000649229
-0.000472366
0.00068128
-0.000558695
0.000707267
-0.000649685
0.000727552
-0.000744303
0.000742593
-0.000841905
0.000752848
-0.000941824
0.000758876
-0.00104325
0.000760839
-0.00114542
0.000759213
-0.00124774
0.000754395
-0.00134976
0.000746786
-0.00145092
0.000736593
-0.00155067
0.000724072
-0.00164869
0.000709575
-0.00174477
0.000693315
-0.00183856
0.000675409
-0.00192978
0.000656049
-0.00201828
0.000635427
-0.00210394
0.000613659
-0.00218659
0.000590844
-0.00226609
0.000567086
-0.00234233
0.00054249
-0.00241524
0.000517135
-0.00248474
0.000491076
-0.00255072
0.000464384
-0.00261313
0.000437109
-0.00267189
0.000409289
-0.00272695
0.000380978
-0.00277825
0.000352204
-0.00282576
0.000323015
-0.0028694
0.000293465
-0.00290914
0.000263568
-0.00294495
0.000233361
-0.00297677
0.000202904
-0.00300458
0.000172231
-0.00302834
0.000141389
-0.00304802
0.000110428
-0.00306358
7.93743e-05
-0.00307499
4.82715e-05
-0.00308224
1.71922e-05
-0.00308529
-1.38254e-05
-0.00308414
-4.47796e-05
-0.00307875
-7.56352e-05
-0.00306913
-0.000106337
-0.0030553
-0.000136868
-0.00303726
-0.000167205
-0.00301503
-0.000197282
-0.00298865
-0.000227051
-0.00295816
-0.000256524
-0.0029236
-0.000285663
-0.00288503
-0.000314367
-0.00284253
-0.000342578
-0.00279617
-0.000370312
-0.00274601
-0.000397538
-0.00269213
-0.000424139
-0.00263465
-0.000450022
-0.00257369
-0.000475162
-0.00250935
-0.000499511
-0.00244171
-0.000522961
-0.0023709
-0.000545421
-0.00229706
-0.000566852
-0.00222035
-0.000587184
-0.0021409
-0.000606253
-0.00205888
-0.000623875
-0.00197447
-0.000639934
-0.00188784
-0.000654361
-0.00179919
-0.000667024
-0.00170874
-0.000677705
-0.00161674
-0.00068617
-0.00152349
-0.000692229
-0.00142927
-0.000695705
-0.00133436
-0.000696391
-0.00123907
-0.000694041
-0.0011438
-0.000688417
-0.00104897
-0.000679313
-0.000955011
-0.000666499
-0.000862396
-0.000649747
-0.000771591