/*--------------------------------*- C++ -*----------------------------------*\
  =========                 |
  \\      /  F ield         | OpenFOAM: The Open Source CFD Toolbox
   \\    /   O peration     | Website:  https://openfoam.org
    \\  /    A nd           | Version:  11
     \\/     M anipulation  |
\*---------------------------------------------------------------------------*/
FoamFile
{
    format      ascii;
    class       surfaceScalarField;
    location    "2.4";
    object      phi;
}
// * * * * * * * * * * * * * * * * * * * * * * * * * * * * * * * * * * * * * //

dimensions      [0 3 -1 0 0 0 0];

internalField   nonuniform List<scalar> 
19980
(
6.97411e-07
-6.96818e-07
2.18666e-06
-1.48942e-06
3.79725e-06
-1.61048e-06
4.98605e-06
-1.18886e-06
5.46433e-06
-4.78243e-07
5.08282e-06
3.81643e-07
3.7834e-06
1.29943e-06
1.56462e-06
2.21866e-06
-1.54307e-06
3.10775e-06
-5.48913e-06
3.94599e-06
-1.02155e-05
4.72644e-06
-1.56587e-05
5.44326e-06
-2.17522e-05
6.09347e-06
-2.84229e-05
6.67073e-06
-3.56005e-05
7.17762e-06
-4.32179e-05
7.61749e-06
-5.12112e-05
7.99331e-06
-5.95206e-05
8.30948e-06
-6.80911e-05
8.57054e-06
-7.68693e-05
8.77822e-06
-8.58079e-05
8.93866e-06
-9.48597e-05
9.05169e-06
-0.000103979
9.11913e-06
-0.000113122
9.14367e-06
-0.000122246
9.12329e-06
-0.000131304
9.05845e-06
-0.000140259
8.95415e-06
-0.000149072
8.81365e-06
-0.00015771
8.63737e-06
-0.000166139
8.42916e-06
-0.000174331
8.19201e-06
-0.000182258
7.92719e-06
-0.000189895
7.63728e-06
-0.00019722
7.32452e-06
-0.00020421
6.99083e-06
-0.000210848
6.63725e-06
-0.000217114
6.26602e-06
-0.000222994
5.88049e-06
-0.000228476
5.48182e-06
-0.000233547
5.07047e-06
-0.000238193
4.64683e-06
-0.000242404
4.21082e-06
-0.000246167
3.76291e-06
-0.000249471
3.3037e-06
-0.000252304
2.83392e-06
-0.00025466
2.35538e-06
-0.00025653
1.8699e-06
-0.000257907
1.37771e-06
-0.000258786
8.78774e-07
-0.000259161
3.74589e-07
-0.000259027
-1.33422e-07
-0.000258383
-6.44707e-07
-0.000257225
-1.15754e-06
-0.000255556
-1.66922e-06
-0.000253378
-2.17802e-06
-0.000250695
-2.68259e-06
-0.000247514
-3.18131e-06
-0.000243841
-3.67335e-06
-0.000239683
-4.15755e-06
-0.000235053
-4.63057e-06
-0.000229963
-5.08907e-06
-0.000224432
-5.53188e-06
-0.000218474
-5.95779e-06
-0.00021211
-6.36428e-06
-0.00020536
-6.7493e-06
-0.000198249
-7.11158e-06
-0.0001908
-7.44916e-06
-0.00018304
-7.76008e-06
-0.000174996
-8.0433e-06
-0.000166699
-8.29726e-06
-0.00015818
-8.51877e-06
-0.000149475
-8.70512e-06
-0.000140619
-8.85591e-06
-0.000131648
-8.97138e-06
-0.000122598
-9.04993e-06
-0.00011351
-9.08859e-06
-0.000104424
-9.08516e-06
-9.53856e-05
-9.03874e-06
-8.64373e-05
-8.94832e-06
-7.76247e-05
-8.81266e-06
-6.89934e-05
-8.63122e-06
-6.05896e-05
-8.4038e-06
-5.24609e-05
-8.12868e-06
-4.46584e-05
-7.80257e-06
-3.72357e-05
-7.42273e-06
-3.02477e-05
-6.98794e-06
-2.37501e-05
-6.49761e-06
-1.77996e-05
-5.95053e-06
-1.24542e-05
-5.34531e-06
-7.77166e-06
-4.68256e-06
-3.80589e-06
-3.96575e-06
-6.05598e-07
-3.20028e-06
1.78857e-06
-2.39416e-06
3.34959e-06
-1.56104e-06
4.07365e-06
-7.24087e-07
3.99702e-06
7.65989e-08
3.22312e-06
7.73924e-07
1.96674e-06
1.25659e-06
6.46352e-07
1.32075e-06
6.46718e-07
1.22766e-06
-1.92446e-06
3.26371e-06
-3.52532e-06
5.06355e-06
-3.41039e-06
5.77225e-06
-1.89747e-06
4.79045e-06
5.03469e-07
1.79525e-06
3.3768e-06
-3.37619e-06
6.47086e-06
-1.07654e-05
9.608e-06
-2.03437e-05
1.26861e-05
-3.20262e-05
1.56286e-05
-4.56963e-05
1.83964e-05
-6.1214e-05
2.09609e-05
-7.84269e-05
2.33063e-05
-9.71771e-05
2.54208e-05
-0.000117302
2.73027e-05
-0.000138639
2.89541e-05
-0.000161028
3.03823e-05
-0.000184316
3.15976e-05
-0.000208352
3.26062e-05
-0.000232994
3.34209e-05
-0.000258104
3.40485e-05
-0.000283548
3.4495e-05
-0.000309195
3.47667e-05
-0.000334922
3.48706e-05
-0.000360608
3.48094e-05
-0.000386139
3.45901e-05
-0.000411406
3.42213e-05
-0.000436304
3.37118e-05
-0.000460737
3.30696e-05
-0.000484612
3.23041e-05
-0.000507844
3.14239e-05
-0.000530352
3.04358e-05
-0.000552064
2.93486e-05
-0.000572909
2.81695e-05
-0.000592823
2.69049e-05
-0.000611747
2.55615e-05
-0.000629628
2.41468e-05
-0.000646415
2.26681e-05
-0.000662064
2.11304e-05
-0.000676531
1.95375e-05
-0.000689777
1.78933e-05
-0.000701767
1.62006e-05
-0.000712466
1.44619e-05
-0.000721844
1.26813e-05
-0.000729873
1.08636e-05
-0.000736532
9.01402e-06
-0.000741798
7.13641e-06
-0.000745655
5.23433e-06
-0.000748088
3.3116e-06
-0.000749086
1.37223e-06
-0.00074864
-5.79215e-07
-0.000746747
-2.53752e-06
-0.000743408
-4.49688e-06
-0.000738626
-6.45101e-06
-0.00073241
-8.39364e-06
-0.000724774
-1.03189e-05
-0.000715734
-1.22214e-05
-0.000705312
-1.40954e-05
-0.000693535
-1.59346e-05
-0.000680434
-1.77313e-05
-0.000666046
-1.94777e-05
-0.000650411
-2.11665e-05
-0.000633577
-2.27915e-05
-0.000615596
-2.43458e-05
-0.000596524
-2.58218e-05
-0.000576423
-2.72127e-05
-0.00055536
-2.85123e-05
-0.000533406
-2.97141e-05
-0.000510638
-3.08109e-05
-0.00048714
-3.17952e-05
-0.000463
-3.26588e-05
-0.000438311
-3.33947e-05
-0.00041317
-3.39969e-05
-0.000387681
-3.44599e-05
-0.000361953
-3.47777e-05
-0.000336098
-3.49436e-05
-0.000310233
-3.49505e-05
-0.00028448
-3.47916e-05
-0.000258967
-3.44614e-05
-0.000233824
-3.39558e-05
-0.000209184
-3.32708e-05
-0.000185186
-3.24018e-05
-0.000161972
-3.1343e-05
-0.000139686
-3.00883e-05
-0.000118476
-2.86331e-05
-9.84896e-05
-2.69741e-05
-7.98775e-05
-2.51097e-05
-6.2788e-05
-2.304e-05
-4.73653e-05
-2.07681e-05
-3.37459e-05
-1.8302e-05
-2.20542e-05
-1.56574e-05
-1.23953e-05
-1.28592e-05
-4.84391e-06
-9.9456e-06
5.70898e-07
-6.97575e-06
3.8867e-06
-4.03973e-06
5.23802e-06
-1.27467e-06
4.90083e-06
1.11102e-06
3.34779e-06
2.8092e-06
1.32244e-06
3.34548e-06
1.96947e-06
9.02265e-07
-2.82664e-06
2.11607e-06
-4.73911e-06
2.51514e-06
-3.80934e-06
1.10904e-06
-4.91477e-07
-2.78235e-06
4.39496e-06
-9.58143e-06
1.0176e-05
-1.95064e-05
1.63959e-05
-3.26388e-05
2.27405e-05
-4.89499e-05
2.89972e-05
-6.83506e-05
3.50295e-05
-9.06917e-05
4.07375e-05
-0.000115793
4.60626e-05
-0.000143451
5.09638e-05
-0.000173444
5.54142e-05
-0.000205546
5.94042e-05
-0.000239526
6.29346e-05
-0.000275149
6.60054e-05
-0.000312184
6.86325e-05
-0.000350404
7.08258e-05
-0.000389584
7.26011e-05
-0.000429508
7.39725e-05
-0.000469967
7.4954e-05
-0.000510758
7.55573e-05
-0.000551684
7.57967e-05
-0.000592559
7.56843e-05
-0.000633203
7.5235e-05
-0.000673448
7.44655e-05
-0.000713128
7.33921e-05
-0.00075209
7.20323e-05
-0.000790189
7.04028e-05
-0.000827286
6.85206e-05
-0.000863252
6.64018e-05
-0.000897965
6.40618e-05
-0.000931312
6.15166e-05
-0.000963187
5.87799e-05
-0.000993492
5.5866e-05
-0.00102213
5.27898e-05
-0.00104903
4.95642e-05
-0.0010741
4.62011e-05
-0.00109728
4.27114e-05
-0.00111849
3.91044e-05
-0.00113767
3.53889e-05
-0.00115479
3.1574e-05
-0.00116977
2.76694e-05
-0.0011826
2.36847e-05
-0.00119321
1.96306e-05
-0.00120159
1.55171e-05
-0.00120771
1.13529e-05
-0.00121155
7.1472e-06
-0.00121309
2.91051e-06
-0.00121232
-1.34672e-06
-0.00120924
-5.61411e-06
-0.00120386
-9.87993e-06
-0.00119618
-1.41313e-05
-0.00118622
-1.83557e-05
-0.00117399
-2.25408e-05
-0.00115954
-2.66748e-05
-0.00114289
-3.07446e-05
-0.00112409
-3.47361e-05
-0.00110319
-3.86349e-05
-0.00108024
-4.24268e-05
-0.00105531
-4.60972e-05
-0.00102847
-4.96307e-05
-0.000999801
-5.30127e-05
-0.000969394
-5.62289e-05
-0.000937342
-5.92642e-05
-0.000903751
-6.2103e-05
-0.000868735
-6.47306e-05
-0.000832414
-6.71323e-05
-0.000794916
-6.92922e-05
-0.000756382
-7.11933e-05
-0.000716957
-7.28195e-05
-0.000676797
-7.4157e-05
-0.000636065
-7.5192e-05
-0.000594933
-7.59102e-05
-0.00055358
-7.62962e-05
-0.000512195
-7.63354e-05
-0.000470973
-7.60142e-05
-0.000430114
-7.532e-05
-0.000389829
-7.42412e-05
-0.000350332
-7.27673e-05
-0.000311845
-7.08886e-05
-0.000274593
-6.8595e-05
-0.000238804
-6.58774e-05
-0.000204708
-6.27296e-05
-0.000172533
-5.91485e-05
-0.000142507
-5.51354e-05
-0.000114851
-5.06962e-05
-8.97748e-05
-4.58445e-05
-6.74722e-05
-4.06044e-05
-4.81137e-05
-3.50159e-05
-3.18343e-05
-2.91387e-05
-1.87196e-05
-2.30603e-05
-8.78676e-06
-1.69085e-05
-1.95889e-06
-1.08676e-05
1.96923e-06
-5.20261e-06
3.37349e-06
-2.92777e-07
2.84991e-06
3.33309e-06
1.27583e-06
4.91936e-06
3.24536e-06
3.07402e-07
-3.13409e-06
9.36018e-08
-4.5252e-06
-1.65807e-06
-2.05774e-06
-5.95754e-06
3.80802e-06
-1.35084e-05
1.19457e-05
-2.47575e-05
2.14251e-05
-3.99437e-05
3.15822e-05
-5.91629e-05
4.19594e-05
-8.23961e-05
5.22305e-05
-0.000109538
6.21711e-05
-0.00014042
7.16201e-05
-0.000174833
8.04746e-05
-0.000212527
8.86583e-05
-0.000253238
9.61254e-05
-0.000296686
0.000102852
-0.000342575
0.000108824
-0.000390616
0.000114046
-0.000440509
0.000118525
-0.000491961
0.000122278
-0.000544681
0.000125321
-0.000598386
0.000127677
-0.000652797
0.000129365
-0.000707647
0.000130407
-0.000762679
0.000130828
-0.000817644
0.00013065
-0.000872307
0.000129897
-0.000926438
0.000128597
-0.000979822
0.000126775
-0.00103225
0.000124461
-0.00108353
0.000121682
-0.00113347
0.000118465
-0.00118191
0.000114836
-0.00122867
0.000110821
-0.0012736
0.000106446
-0.00131655
0.000101735
-0.0013574
9.67119e-05
-0.00139601
9.14005e-05
-0.00143227
8.58233e-05
-0.00146607
8.00002e-05
-0.00149731
7.39511e-05
-0.0015259
6.76951e-05
-0.00155176
6.12492e-05
-0.00157481
5.46301e-05
-0.001595
4.7856e-05
-0.00161226
4.0945e-05
-0.00162654
3.39148e-05
-0.00163781
2.6782e-05
-0.00164602
1.95644e-05
-0.00165115
1.22802e-05
-0.00165319
4.94654e-06
-0.00165212
-2.4193e-06
-0.00164793
-9.79744e-06
-0.00164065
-1.71675e-05
-0.00163027
-2.45097e-05
-0.00161682
-3.18035e-05
-0.00160033
-3.90273e-05
-0.00158085
-4.616e-05
-0.00155841
-5.31798e-05
-0.00153309
-6.00638e-05
-0.00150493
-6.67877e-05
-0.00147403
-7.3327e-05
-0.00144047
-7.96578e-05
-0.00140435
-8.57555e-05
-0.00136576
-9.15951e-05
-0.00132484
-9.71503e-05
-0.00128171
-0.000102395
-0.00123651
-0.000107304
-0.00118939
-0.000111852
-0.00114051
-0.000116011
-0.00109005
-0.000119754
-0.00103819
-0.000123054
-0.000985123
-0.000125884
-0.000931062
-0.000128218
-0.000876224
-0.000130031
-0.000820838
-0.000131296
-0.000765145
-0.000131989
-0.000709394
-0.000132086
-0.000653848
-0.000131561
-0.000598774
-0.000130394
-0.000544451
-0.000128564
-0.000491164
-0.000126054
-0.000439206
-0.000122847
-0.000388873
-0.000118928
-0.000340465
-0.000114286
-0.000294279
-0.000108915
-0.000250613
-0.000102815
-0.000209756
-9.59923e-05
-0.000171988
-8.84643e-05
-0.000137571
-8.02618e-05
-0.000106741
-7.14338e-05
-7.97029e-05
-6.20543e-05
-5.66117e-05
-5.22297e-05
-3.75615e-05
-4.21104e-05
-2.25629e-05
-3.19073e-05
-1.15171e-05
-2.19136e-05
-4.18543e-06
-1.25343e-05
-1.5324e-07
-4.32492e-06
1.21283e-06
1.96736e-06
8.16446e-07
5.3157e-06
4.06178e-06
-3.96497e-07
-2.73765e-06
-2.34939e-06
-2.57231e-06
-6.73116e-06
2.3241e-06
-1.44528e-05
1.15296e-05
-2.61767e-05
2.36695e-05
-4.23282e-05
3.75767e-05
-6.31457e-05
5.23996e-05
-8.87164e-05
6.75302e-05
-0.000119014
8.25282e-05
-0.000153919
9.70765e-05
-0.000193248
0.000110949
-0.000236757
0.000123983
-0.000284168
0.000136069
-0.000335175
0.000147132
-0.000389448
0.000157125
-0.000446649
0.000166024
-0.000506429
0.000173826
-0.000568436
0.000180532
-0.00063232
0.000186162
-0.000697732
0.000190734
-0.00076433
0.000194275
-0.00083178
0.000196815
-0.000899757
0.000198384
-0.000967945
0.000199016
-0.00103604
0.000198748
-0.00110376
0.000197616
-0.00117082
0.000195657
-0.00123696
0.000192911
-0.00130191
0.000189417
-0.00136545
0.000185217
-0.00142733
0.00018035
-0.00148735
0.000174855
-0.0015453
0.00016877
-0.00160099
0.000162132
-0.00165423
0.000154978
-0.00170486
0.000147344
-0.00175273
0.000139265
-0.00179768
0.000130772
-0.00183958
0.0001219
-0.0018783
0.000112679
-0.00191375
0.000103137
-0.0019458
9.33028e-05
-0.00197438
8.32051e-05
-0.00199939
7.2871e-05
-0.00202077
6.23273e-05
-0.00203846
5.16027e-05
-0.0020524
4.07251e-05
-0.00206256
2.97205e-05
-0.0020689
1.86162e-05
-0.00207139
7.44068e-06
-0.00207003
-3.77812e-06
-0.00206482
-1.50119e-05
-0.00205575
-2.6231e-05
-0.00204286
-3.7404e-05
-0.00202616
-4.84991e-05
-0.0020057
-5.94854e-05
-0.00198153
-7.0332e-05
-0.00195371
-8.10049e-05
-0.0019223
-9.14683e-05
-0.0018874
-0.000101687
-0.0018491
-0.000111628
-0.00180751
-0.000121252
-0.00176274
-0.000130522
-0.00171494
-0.000139401
-0.00166424
-0.000147849
-0.0016108
-0.000155829
-0.00155481
-0.0001633
-0.00149644
-0.000170223
-0.00143589
-0.000176557
-0.00137338
-0.000182262
-0.00130914
-0.000187296
-0.00124341
-0.000191618
-0.00117644
-0.000195189
-0.0011085
-0.000197971
-0.00103987
-0.000199923
-0.000970851
-0.000201008
-0.000901748
-0.000201188
-0.000832878
-0.00020043
-0.000764571
-0.000198701
-0.000697164
-0.000195971
-0.000631004
-0.000192213
-0.000566446
-0.000187405
-0.000503846
-0.000181527
-0.000443564
-0.000174568
-0.000385956
-0.000166523
-0.000331375
-0.000157396
-0.000280164
-0.000147204
-0.000232648
-0.00013598
-0.000189132
-0.000123778
-0.000149888
-0.000110678
-0.000115147
-9.67953e-05
-8.50839e-05
-8.22924e-05
-5.9804e-05
-6.73903e-05
-3.93209e-05
-5.23902e-05
-2.35352e-05
-3.76992e-05
-1.22079e-05
-2.38616e-05
-4.93129e-06
-1.16017e-05
-1.09612e-06
-1.86756e-06
1.46553e-07
4.07302e-06
4.20837e-06
-1.13581e-06
-1.60172e-06
-5.02259e-06
1.31449e-06
-1.23308e-05
9.63245e-06
-2.38251e-05
2.30238e-05
-4.00829e-05
3.99273e-05
-6.14694e-05
5.8963e-05
-8.81886e-05
7.91188e-05
-0.000120306
9.9648e-05
-0.000157775
0.000119997
-0.000200459
0.00013976
-0.000248147
0.000158637
-0.000300574
0.00017641
-0.000357429
0.000192925
-0.00041837
0.000208073
-0.00048303
0.000221785
-0.000551029
0.000234023
-0.000621967
0.000244765
-0.000695452
0.000254017
-0.000771077
0.000261788
-0.000848449
0.000268106
-0.000927173
0.000272999
-0.00100686
0.000276506
-0.00108715
0.000278668
-0.00116766
0.000279528
-0.00124805
0.000279137
-0.00132797
0.000277542
-0.00140711
0.000274796
-0.00148516
0.000270953
-0.0015618
0.000266064
-0.00163677
0.000260186
-0.00170979
0.000253371
-0.00178061
0.000245674
-0.00184899
0.000237146
-0.00191469
0.00022784
-0.00197752
0.000217804
-0.00203726
0.000207089
-0.00209374
0.000195743
-0.00214678
0.000183812
-0.00219622
0.000171342
-0.00224192
0.000158375
-0.00228374
0.000144955
-0.00232156
0.000131122
-0.00235527
0.000116916
-0.00238478
0.000102378
-0.00240999
8.75464e-05
-0.00243085
7.24609e-05
-0.00244729
5.71597e-05
-0.00245925
4.1683e-05
-0.0024667
2.60708e-05
-0.00246962
1.03611e-05
-0.002468
-5.40758e-06
-0.00246181
-2.1193e-05
-0.00245109
-3.69522e-05
-0.00243585
-5.26436e-05
-0.00241613
-6.82249e-05
-0.00239196
-8.36512e-05
-0.00236342
-9.88769e-05
-0.00233057
-0.000113856
-0.00229349
-0.00012854
-0.0022523
-0.000142882
-0.0022071
-0.000156831
-0.00215801
-0.000170336
-0.00210519
-0.000183345
-0.00204878
-0.000195806
-0.00198897
-0.000207665
-0.00192593
-0.000218867
-0.00185988
-0.000229357
-0.00179102
-0.00023908
-0.0017196
-0.000247979
-0.00164586
-0.000255997
-0.00157008
-0.000263077
-0.00149254
-0.000269163
-0.00141352
-0.0002742
-0.00133336
-0.000278132
-0.00125238
-0.000280906
-0.00117092
-0.000282468
-0.00108934
-0.000282769
-0.00100801
-0.000281762
-0.000927308
-0.000279402
-0.00084763
-0.000275649
-0.000769376
-0.000270468
-0.000692951
-0.00026383
-0.000618765
-0.000255713
-0.00054723
-0.000246103
-0.000478752
-0.000235001
-0.00041373
-0.000222417
-0.000352551
-0.000208383
-0.000295582
-0.000192949
-0.000243162
-0.000176198
-0.000195595
-0.000158245
-0.000153137
-0.000139253
-0.000115985
-0.000119445
-8.42597e-05
-9.91152e-05
-5.79925e-05
-7.86574e-05
-3.71017e-05
-5.85898e-05
-2.13746e-05
-3.95887e-05
-1.04452e-05
-2.25312e-05
-3.77404e-06
-8.5386e-06
-6.23793e-07
9.22819e-07
3.58462e-06
-1.88155e-06
2.79765e-07
-7.78676e-06
7.21972e-06
-1.81891e-05
2.00348e-05
-3.36733e-05
3.85081e-05
-5.46887e-05
6.09426e-05
-8.15235e-05
8.57979e-05
-0.000114325
0.000111921
-0.000153118
0.000138441
-0.000197826
0.000164705
-0.000248282
0.000190216
-0.000304251
0.000214607
-0.00036544
0.000237599
-0.000431507
0.000258992
-0.000502079
0.000278645
-0.000576754
0.000296459
-0.000655111
0.000312379
-0.000736716
0.000326371
-0.000821131
0.000338431
-0.000907909
0.000348566
-0.000996611
0.000356807
-0.0010868
0.000363186
-0.00117804
0.000367749
-0.00126992
0.000370547
-0.00136203
0.000371635
-0.00145397
0.000371076
-0.00154535
0.000368932
-0.00163583
0.000365269
-0.00172503
0.000360158
-0.00181263
0.000353665
-0.00189831
0.00034586
-0.00198175
0.000336814
-0.00206267
0.000326597
-0.0021408
0.000315274
-0.00221588
0.000302914
-0.00228766
0.000289585
-0.00235592
0.000275349
-0.00242044
0.000260269
-0.00248104
0.000244407
-0.00253752
0.000227825
-0.00258972
0.000210579
-0.00263749
0.000192726
-0.00268069
0.000174322
-0.0027192
0.000155422
-0.0027529
0.00013608
-0.0027817
0.000116345
-0.00280552
9.62745e-05
-0.00282428
7.59204e-05
-0.00283793
5.53343e-05
-0.00284642
3.4568e-05
-0.00284974
1.36749e-05
-0.00284785
-7.29101e-06
-0.00284077
-2.82755e-05
-0.0028285
-4.92236e-05
-0.00281107
-7.0079e-05
-0.00278851
-9.07839e-05
-0.00276088
-0.00011128
-0.00272825
-0.000131508
-0.0026907
-0.000151406
-0.00264832
-0.000170911
-0.00260125
-0.000189959
-0.00254959
-0.000208485
-0.00249351
-0.000226421
-0.00243315
-0.0002437
-0.00236871
-0.00026025
-0.00230037
-0.000276002
-0.00222836
-0.000290883
-0.00215289
-0.000304822
-0.00207423
-0.000317743
-0.00199264
-0.000329573
-0.0019084
-0.000340236
-0.00182181
-0.000349659
-0.00173321
-0.000357767
-0.00164292
-0.000364487
-0.00155131
-0.000369747
-0.00145874
-0.000373477
-0.0013656
-0.000375607
-0.00127229
-0.000376074
-0.00117924
-0.000374816
-0.00108686
-0.000371777
-0.000995607
-0.000366906
-0.000905914
-0.00036016
-0.00081824
-0.000351504
-0.00073304
-0.000340913
-0.000650769
-0.000328374
-0.000571877
-0.000313892
-0.000496806
-0.000297489
-0.000425979
-0.00027921
-0.0003598
-0.000259129
-0.00029864
-0.000237358
-0.000242831
-0.000214053
-0.000192658
-0.000189426
-0.000148343
-0.000163761
-0.000110031
-0.000137427
-7.77818e-05
-0.000110907
-5.15488e-05
-8.48228e-05
-3.11668e-05
-5.99707e-05
-1.63382e-05
-3.73598e-05
-6.62335e-06
-1.82535e-05
-1.42995e-06
-4.27051e-06
2.15464e-06
-2.61588e-06
2.89553e-06
-1.05644e-05
1.51683e-05
-2.41266e-05
3.3597e-05
-4.37039e-05
5.80852e-05
-6.9599e-05
8.68378e-05
-0.000102001
0.0001182
-0.000140985
0.000150905
-0.000186523
0.000183978
-0.000238492
0.000216675
-0.000296696
0.00024842
-0.000360864
0.000278775
-0.000430672
0.000307407
-0.000505752
0.000334072
-0.000585694
0.000358587
-0.000670068
0.000380833
-0.000758414
0.000400725
-0.000850267
0.000418224
-0.000945147
0.00043331
-0.00104257
0.000445994
-0.00114207
0.000456299
-0.00124315
0.000464267
-0.00134535
0.000469949
-0.00144821
0.000473406
-0.00155128
0.000474706
-0.00165413
0.000473923
-0.00175633
0.000471135
-0.00185748
0.000466424
-0.0019572
0.000459874
-0.00205511
0.000451571
-0.00215085
0.000441602
-0.00224409
0.000430052
-0.0023345
0.000417008
-0.00242178
0.000402557
-0.00250565
0.000386782
-0.00258583
0.000369767
-0.00266207
0.000351592
-0.00273414
0.000332339
-0.00280182
0.000312086
-0.00286491
0.000290907
-0.0029232
0.000268879
-0.00297655
0.000246075
-0.0030248
0.000222565
-0.00306779
0.000198419
-0.00310542
0.000173707
-0.00313757
0.000148499
-0.00316416
0.00012286
-0.0031851
9.68591e-05
-0.00320033
7.05637e-05
-0.0032098
4.4042e-05
-0.00321349
1.73609e-05
-0.00321137
-9.41155e-06
-0.00320344
-3.62047e-05
-0.00318971
-6.29475e-05
-0.00317022
-8.95688e-05
-0.00314501
-0.000115996
-0.00311414
-0.000142155
-0.00307768
-0.000167969
-0.00303572
-0.000193359
-0.00298839
-0.000218246
-0.0029358
-0.00024255
-0.0028781
-0.000266186
-0.00281545
-0.000289071
-0.00274803
-0.000311115
-0.00267605
-0.000332232
-0.00259972
-0.000352332
-0.00251928
-0.000371324
-0.00243498
-0.000389115
-0.00234712
-0.000405611
-0.00225597
-0.000420719
-0.00216186
-0.000434345
-0.00206513
-0.000446393
-0.00196612
-0.000456772
-0.00186522
-0.000465388
-0.00176282
-0.00047215
-0.00165932
-0.000476972
-0.00155516
-0.000479767
-0.00145078
-0.000480455
-0.00134664
-0.000478962
-0.0012432
-0.000475217
-0.00114094
-0.000469159
-0.00104037
-0.000460737
-0.000941962
-0.00044991
-0.000846224
-0.000436651
-0.000753649
-0.00042095
-0.000664724
-0.000402817
-0.000579928
-0.000382285
-0.00049972
-0.000359418
-0.000424535
-0.000334314
-0.000354778
-0.000307116
-0.000290809
-0.000278021
-0.000232943
-0.000247292
-0.000181432
-0.000215272
-0.000136456
-0.000182403
-9.81114e-05
-0.000149251
-6.6402e-05
-0.000116532
-4.12263e-05
-8.51464e-05
-2.23735e-05
-5.62125e-05
-9.52083e-06
-3.11062e-05
-2.23659e-06
-1.15547e-05
-8.19801e-08
-3.3319e-06
6.2275e-06
-1.33007e-05
2.51371e-05
-3.00285e-05
5.03247e-05
-5.37185e-05
8.17752e-05
-8.45317e-05
0.000117651
-0.000122545
0.000156213
-0.000167746
0.000196105
-0.000220044
0.000236276
-0.000279266
0.000275897
-0.000345169
0.000314323
-0.000417448
0.000351053
-0.000495745
0.000385704
-0.000579657
0.000417984
-0.000668747
0.000447677
-0.000762548
0.000474634
-0.000860572
0.000498749
-0.000962317
0.000519969
-0.00106727
0.000538264
-0.00117492
0.000553641
-0.00128474
0.000566123
-0.00139623
0.000575756
-0.00150888
0.000582597
-0.00162219
0.000586717
-0.00173568
0.000588198
-0.00184888
0.000587124
-0.00196134
0.00058359
-0.00207261
0.000577694
-0.00218227
0.000569537
-0.00228992
0.000559221
-0.00239517
0.000546851
-0.00249765
0.000532534
-0.00259702
0.000516373
-0.00269293
0.000498472
-0.00278509
0.000478934
-0.00287318
0.000457862
-0.00295695
0.000435356
-0.00303612
0.000411511
-0.00311046
0.000386427
-0.00317975
0.000360198
-0.00324379
0.000332916
-0.00330238
0.000304669
-0.00335536
0.000275547
-0.00340258
0.00024564
-0.00344391
0.000215031
-0.00347922
0.000183806
-0.00350841
0.000152049
-0.00353139
0.000119847
-0.00354811
8.72817e-05
-0.00355851
5.44365e-05
-0.00356254
2.13966e-05
-0.0035602
-1.17527e-05
-0.00355148
-4.49247e-05
-0.00353639
-7.80325e-05
-0.00351498
-0.000110988
-0.00348727
-0.000143701
-0.00345335
-0.000176078
-0.00341329
-0.000208026
-0.0033672
-0.000239449
-0.0033152
-0.000270248
-0.00325742
-0.000300324
-0.00319404
-0.000329574
-0.00312521
-0.000357894
-0.00305115
-0.000385175
-0.00297208
-0.00041131
-0.00288822
-0.000436189
-0.00279984
-0.000459699
-0.00270723
-0.000481727
-0.00261068
-0.000502158
-0.00251053
-0.000520876
-0.0024071
-0.000537767
-0.00230078
-0.000552715
-0.00219195
-0.000565605
-0.00208101
-0.000576326
-0.00196839
-0.000584767
-0.00185454
-0.00059082
-0.00173993
-0.000594384
-0.00162502
-0.000595362
-0.00151032
-0.000593662
-0.00139633
-0.000589204
-0.00128358
-0.000581913
-0.00117258
-0.000571731
-0.00106388
-0.000558612
-0.000958004
-0.000542528
-0.000855483
-0.000523471
-0.000756842
-0.000501458
-0.000662593
-0.000476534
-0.000573228
-0.000448783
-0.000489214
-0.000418327
-0.000410988
-0.000385342
-0.000338943
-0.000350066
-0.000273425
-0.00031281
-0.000214723
-0.000273974
-0.000163057
-0.000234069
-0.000118572
-0.000193736
-8.13321e-05
-0.000153773
-5.13115e-05
-0.000115167
-2.83976e-05
-7.91264e-05
-1.23922e-05
-4.71116e-05
-3.02646e-06
-2.09204e-05
-3.10839e-06
-4.02587e-06
1.02533e-05
-1.59731e-05
3.70843e-05
-3.58176e-05
7.01693e-05
-6.35899e-05
0.000109547
-9.92996e-05
0.000153361
-0.000142905
0.000199819
-0.000194309
0.000247509
-0.000253341
0.000295308
-0.000319772
0.000342328
-0.00039331
0.000387861
-0.000473607
0.00043135
-0.000560267
0.000472365
-0.000652853
0.00051057
-0.000750895
0.000545719
-0.00085389
0.00057763
-0.000961326
0.000606184
-0.00107266
0.000631304
-0.00118736
0.000652959
-0.00130486
0.000671146
-0.00142463
0.000685891
-0.00154611
0.00069724
-0.00166878
0.000705261
-0.00179209
0.000710032
-0.00191554
0.000711645
-0.00203862
0.000710203
-0.00216084
0.000705814
-0.00228174
0.000698591
-0.00240086
0.000688654
-0.00251776
0.000676125
-0.00263204
0.000661128
-0.00274329
0.000643784
-0.00285114
0.000624221
-0.00295523
0.000602563
-0.00305522
0.000578931
-0.00315081
0.000553446
-0.00324168
0.00052623
-0.00332757
0.0004974
-0.00340821
0.000467071
-0.00348337
0.000435357
-0.00355283
0.000402369
-0.00361638
0.000368218
-0.00367384
0.00033301
-0.00372505
0.00029685
-0.00376986
0.000259843
-0.00380815
0.000222093
-0.0038398
0.000183702
-0.00386472
0.000144773
-0.00388285
0.000105406
-0.00389412
6.57039e-05
-0.00389849
2.57689e-05
-0.00389595
-1.42958e-05
-0.00388648
-5.43863e-05
-0.00387012
-9.43971e-05
-0.00384689
-0.000134221
-0.00381684
-0.00017375
-0.00378004
-0.000212871
-0.0037366
-0.000251473
-0.00368661
-0.000289439
-0.00363021
-0.000326651
-0.00356754
-0.000362989
-0.00349879
-0.000398329
-0.00342413
-0.000432546
-0.0033438
-0.00046551
-0.00325802
-0.000497093
-0.00316704
-0.000527161
-0.00307116
-0.00055558
-0.00297068
-0.000582213
-0.00286591
-0.000606923
-0.00275722
-0.000629572
-0.00264496
-0.000650022
-0.00252954
-0.000668136
-0.00241137
-0.000683777
-0.00229089
-0.00069681
-0.00216855
-0.000707106
-0.00204483
-0.000714536
-0.00192023
-0.000718982
-0.00179527
-0.000720327
-0.00167046
-0.000718466
-0.00154637
-0.000713303
-0.00142352
-0.000704755
-0.0013025
-0.000692754
-0.00118386
-0.00067725
-0.00106818
-0.000658214
-0.000956009
-0.000635639
-0.000847915
-0.000609551
-0.00074444
-0.000580009
-0.000646109
-0.000547114
-0.000553422
-0.000511014
-0.000466846
-0.000471918
-0.000386811
-0.000430101
-0.0003137
-0.000385921
-0.000247841
-0.000339833
-0.000189502
-0.000292408
-0.000138884
-0.000244353
-9.61188e-05
-0.000196538
-6.12651e-05
-0.000150021
-3.43136e-05
-0.000106078
-1.51924e-05
-6.62326e-05
-3.78936e-06
-3.23234e-05
-6.89769e-06
-4.69328e-06
1.49467e-05
-1.85629e-05
5.09539e-05
-4.14567e-05
9.30631e-05
-7.32406e-05
0.000141331
-0.00011378
0.0001939
-0.000162923
0.000248962
-0.00022047
0.000305056
-0.000286179
0.000361017
-0.000359754
0.000415902
-0.000440847
0.000468954
-0.000529064
0.000519567
-0.000623967
0.000567268
-0.000725082
0.000611685
-0.000831903
0.00065254
-0.000943898
0.000689624
-0.00106051
0.000722801
-0.00118119
0.000751979
-0.00130535
0.000777116
-0.00143241
0.000798206
-0.00156179
0.000815275
-0.00169292
0.000828374
-0.00182524
0.000837574
-0.00195817
0.000842967
-0.00209118
0.000844656
-0.00222373
0.000842756
-0.00235531
0.000837392
-0.00248542
0.000828698
-0.00261357
0.000816809
-0.00273931
0.000801865
-0.0028622
0.00078401
-0.0029818
0.000763391
-0.00309773
0.000740152
-0.00320961
0.000714435
-0.00331706
0.000686387
-0.00341977
0.00065615
-0.0035174
0.000623864
-0.00360967
0.000589667
-0.00369629
0.000553696
-0.00377702
0.000516086
-0.00385162
0.000476968
-0.00391987
0.00043647
-0.00398158
0.000394721
-0.00403658
0.000351845
-0.0040847
0.000307967
-0.00412582
0.000263209
-0.00415981
0.000217693
-0.00418658
0.000171541
-0.00420604
0.000124871
-0.00421815
7.78065e-05
-0.00422284
3.04677e-05
-0.00422012
-1.70228e-05
-0.00420996
-6.45417e-05
-0.00419239
-0.000111964
-0.00416745
-0.000159164
-0.00413519
-0.000206012
-0.00409569
-0.000252376
-0.00404903
-0.000298123
-0.00399536
-0.000343117
-0.00393479
-0.000387217
-0.0038675
-0.000430283
-0.00379366
-0.000472167
-0.00371348
-0.000512722
-0.00362719
-0.000551797
-0.00353505
-0.000589238
-0.00343732
-0.000624889
-0.00333431
-0.000658592
-0.00322634
-0.000690185
-0.00311375
-0.000719508
-0.00299692
-0.000746399
-0.00287625
-0.000770696
-0.00275215
-0.000792238
-0.00262506
-0.000810864
-0.00249545
-0.000826419
-0.00236381
-0.00083875
-0.00223064
-0.000847709
-0.00209646
-0.000853155
-0.00196183
-0.000854958
-0.0018273
-0.000852993
-0.00169345
-0.000847153
-0.00156087
-0.000837342
-0.00143014
-0.000823485
-0.00130186
-0.000805526
-0.00117664
-0.000783434
-0.00105507
-0.000757207
-0.000937746
-0.000726878
-0.000825237
-0.000692519
-0.000718102
-0.000654248
-0.000616877
-0.00061224
-0.000522063
-0.000566732
-0.000434127
-0.000518037
-0.000353493
-0.000466556
-0.000280534
-0.000412792
-0.000215571
-0.000357372
-0.000158865
-0.000301059
-0.000110623
-0.000244781
-7.09905e-05
-0.000189653
-4.00633e-05
-0.000137005
-1.78947e-05
-8.84012e-05
-4.51749e-06
-4.57006e-05
-1.14152e-05
-5.33445e-06
2.02811e-05
-2.10635e-05
6.66828e-05
-4.69217e-05
0.000118921
-8.26249e-05
0.000177034
-0.000127908
0.000239183
-0.000182499
0.000303553
-0.000246111
0.000368667
-0.000318415
0.000433322
-0.000399048
0.000496536
-0.000487606
0.000557511
-0.000583642
0.000615604
-0.000686674
0.0006703
-0.000796188
0.000721199
-0.000911638
0.000767989
-0.00103246
0.000810448
-0.00115807
0.000848409
-0.00128787
0.000881778
-0.00142125
0.000910501
-0.00155762
0.000934567
-0.00169634
0.000954003
-0.00183683
0.000968865
-0.00197849
0.000979231
-0.00212073
0.000985203
-0.00226297
0.000986895
-0.00240465
0.000984441
-0.00254524
0.00097798
-0.0026842
0.000967661
-0.00282104
0.000953642
-0.00295526
0.000936084
-0.00308639
0.000915149
-0.00321401
0.000891003
-0.00333767
0.000863815
-0.00345699
0.000833752
-0.00357158
0.000800977
-0.00368108
0.000765656
-0.00378517
0.000727951
-0.00388353
0.000688024
-0.00397586
0.000646032
-0.00406191
0.00060213
-0.00414141
0.000556472
-0.00421415
0.000509208
-0.00427991
0.000460485
-0.00433852
0.000410452
-0.0043898
0.000359251
-0.00443362
0.000307026
-0.00446984
0.000253919
-0.00449837
0.00020007
-0.00451912
0.000145621
-0.00453203
9.07132e-05
-0.00453705
3.54876e-05
-0.00453416
-1.99132e-05
-0.00452336
-7.53458e-05
-0.00450466
-0.000130665
-0.0044781
-0.000185722
-0.00444374
-0.000240368
-0.00440167
-0.000294449
-0.00435198
-0.000347812
-0.0042948
-0.000400296
-0.00423028
-0.000451739
-0.00415858
-0.000501977
-0.00407991
-0.000550841
-0.00399447
-0.000598158
-0.00390252
-0.000643753
-0.00380431
-0.000687448
-0.00370014
-0.000729062
-0.00359032
-0.000768411
-0.00347519
-0.00080531
-0.00335513
-0.000839572
-0.00323052
-0.000871009
-0.00310178
-0.000899436
-0.00296935
-0.000924665
-0.0028337
-0.000946513
-0.00269532
-0.000964799
-0.00255472
-0.000979349
-0.00241244
-0.000989993
-0.00226903
-0.00099657
-0.00212505
-0.000998929
-0.00198111
-0.000996932
-0.00183781
-0.000990455
-0.00169576
-0.000979393
-0.00155559
-0.000963659
-0.00141792
-0.000943195
-0.00128339
-0.000917966
-0.00115262
-0.000887974
-0.00102624
-0.000853259
-0.000904852
-0.000813904
-0.000789053
-0.000770047
-0.000679409
-0.000721884
-0.00057646
-0.000669681