/*--------------------------------*- C++ -*----------------------------------*\
  =========                 |
  \\      /  F ield         | OpenFOAM: The Open Source CFD Toolbox
   \\    /   O peration     | Website:  https://openfoam.org
    \\  /    A nd           | Version:  11
     \\/     M anipulation  |
\*---------------------------------------------------------------------------*/
FoamFile
{
    format      ascii;
    class       volVectorField;
    location    "2.4";
    object      U;
}
// * * * * * * * * * * * * * * * * * * * * * * * * * * * * * * * * * * * * * //

dimensions      [0 1 -1 0 0 0 0];

internalField   nonuniform List<vector> 
10100
(
(3.26002e-06 -3.41887e-06 0)
(1.39392e-05 -7.69845e-06 0)
(3.0375e-05 -9.07511e-06 0)
(4.50999e-05 -7.87381e-06 0)
(5.39788e-05 -5.42348e-06 0)
(5.47077e-05 -2.2839e-06 0)
(4.64071e-05 1.03282e-06 0)
(2.87905e-05 4.39659e-06 0)
(2.10366e-06 7.57921e-06 0)
(-3.32669e-05 1.05564e-05 0)
(-7.67812e-05 1.32857e-05 0)
(-0.000127774 1.58005e-05 0)
(-0.00018563 1.80158e-05 0)
(-0.000249611 1.99422e-05 0)
(-0.000318963 2.1591e-05 0)
(-0.000393111 2.2972e-05 0)
(-0.000471313 2.41335e-05 0)
(-0.000552946 2.50779e-05 0)
(-0.000637495 2.5795e-05 0)
(-0.000724345 2.63423e-05 0)
(-0.000813036 2.67957e-05 0)
(-0.000903118 2.71101e-05 0)
(-0.000994089 2.7306e-05 0)
(-0.00108551 2.73748e-05 0)
(-0.00117695 2.72664e-05 0)
(-0.00126795 2.69906e-05 0)
(-0.00135809 2.66169e-05 0)
(-0.00144703 2.61574e-05 0)
(-0.00153438 2.55899e-05 0)
(-0.00161978 2.49225e-05 0)
(-0.00170295 2.41632e-05 0)
(-0.00178361 2.33241e-05 0)
(-0.0018615 2.24123e-05 0)
(-0.00193636 2.14485e-05 0)
(-0.00200798 2.0446e-05 0)
(-0.00207616 1.93847e-05 0)
(-0.00214072 1.82758e-05 0)
(-0.00220149 1.71439e-05 0)
(-0.00225833 1.59872e-05 0)
(-0.00231113 1.48045e-05 0)
(-0.00235975 1.35919e-05 0)
(-0.00240407 1.23466e-05 0)
(-0.00244396 1.10704e-05 0)
(-0.00247931 9.75777e-06 0)
(-0.00251002 8.40678e-06 0)
(-0.00253599 7.02405e-06 0)
(-0.00255713 5.61766e-06 0)
(-0.00257339 4.18996e-06 0)
(-0.00258469 2.73556e-06 0)
(-0.00259097 1.25574e-06 0)
(-0.00259218 -2.40283e-07 0)
(-0.00258829 -1.75035e-06 0)
(-0.00257927 -3.27435e-06 0)
(-0.00256514 -4.80662e-06 0)
(-0.00254591 -6.34086e-06 0)
(-0.00252159 -7.8644e-06 0)
(-0.00249224 -9.36026e-06 0)
(-0.00245795 -1.08279e-05 0)
(-0.00241876 -1.22763e-05 0)
(-0.0023748 -1.36967e-05 0)
(-0.00232617 -1.50716e-05 0)
(-0.00227303 -1.6398e-05 0)
(-0.00221553 -1.76747e-05 0)
(-0.00215387 -1.88863e-05 0)
(-0.00208825 -2.00182e-05 0)
(-0.00201889 -2.10688e-05 0)
(-0.00194603 -2.20377e-05 0)
(-0.00186992 -2.29209e-05 0)
(-0.00179083 -2.37177e-05 0)
(-0.00170905 -2.4427e-05 0)
(-0.00162489 -2.50375e-05 0)
(-0.00153869 -2.55349e-05 0)
(-0.0014508 -2.59168e-05 0)
(-0.00136156 -2.61909e-05 0)
(-0.00127136 -2.63607e-05 0)
(-0.00118058 -2.64207e-05 0)
(-0.00108962 -2.63633e-05 0)
(-0.000998892 -2.61822e-05 0)
(-0.000908845 -2.58715e-05 0)
(-0.000819929 -2.54308e-05 0)
(-0.000732599 -2.4871e-05 0)
(-0.000647309 -2.42014e-05 0)
(-0.000564527 -2.34129e-05 0)
(-0.000484748 -2.24818e-05 0)
(-0.000408496 -2.13903e-05 0)
(-0.000336313 -2.01337e-05 0)
(-0.000268755 -1.87089e-05 0)
(-0.000206387 -1.71004e-05 0)
(-0.000149782 -1.52863e-05 0)
(-9.95178e-05 -1.32589e-05 0)
(-5.61546e-05 -1.1028e-05 0)
(-2.02239e-05 -8.60563e-06 0)
(7.80754e-06 -6.00755e-06 0)
(2.75909e-05 -3.26546e-06 0)
(3.89522e-05 -4.41489e-07 0)
(4.20155e-05 2.32553e-06 0)
(3.73858e-05 4.77018e-06 0)
(2.65301e-05 6.41597e-06 0)
(1.28843e-05 6.35758e-06 0)
(3.06375e-06 3.06926e-06 0)
(5.38164e-06 -1.32983e-05 0)
(2.22648e-05 -2.58673e-05 0)
(4.31926e-05 -2.71117e-05 0)
(5.75496e-05 -1.91636e-05 0)
(5.7325e-05 -5.78687e-06 0)
(3.79965e-05 1.04418e-05 0)
(-2.61946e-06 2.78668e-05 0)
(-6.53609e-05 4.54016e-05 0)
(-0.000150355 6.24917e-05 0)
(-0.000256878 7.86589e-05 0)
(-0.000383933 9.38066e-05 0)
(-0.000530267 0.000107721 0)
(-0.000694299 0.000120384 0)
(-0.000874454 0.000131711 0)
(-0.00106924 0.000141687 0)
(-0.00127691 0.000150379 0)
(-0.00149591 0.000157861 0)
(-0.0017247 0.000164145 0)
(-0.00196167 0.000169357 0)
(-0.00220541 0.000173515 0)
(-0.00245451 0.000176695 0)
(-0.00270759 0.000178961 0)
(-0.00296336 0.000180337 0)
(-0.00322055 0.000180835 0)
(-0.0034779 0.000180454 0)
(-0.00373425 0.000179226 0)
(-0.0039885 0.000177203 0)
(-0.00423957 0.000174455 0)
(-0.00448646 0.000171024 0)
(-0.00472823 0.000166965 0)
(-0.00496397 0.000162315 0)
(-0.00519286 0.000157106 0)
(-0.00541414 0.000151402 0)
(-0.00562708 0.000145234 0)
(-0.00583102 0.000138643 0)
(-0.00602535 0.000131665 0)
(-0.0062095 0.000124331 0)
(-0.00638297 0.000116694 0)
(-0.00654526 0.000108781 0)
(-0.00669594 0.000100601 0)
(-0.00683461 9.21701e-05 0)
(-0.00696088 8.3493e-05 0)
(-0.00707439 7.45816e-05 0)
(-0.00717484 6.54517e-05 0)
(-0.00726194 5.61218e-05 0)
(-0.00733543 4.66235e-05 0)
(-0.00739511 3.69807e-05 0)
(-0.00744077 2.72021e-05 0)
(-0.00747225 1.73003e-05 0)
(-0.00748943 7.29934e-06 0)
(-0.0074922 -2.77341e-06 0)
(-0.00748049 -1.28936e-05 0)
(-0.00745433 -2.30344e-05 0)
(-0.00741373 -3.31582e-05 0)
(-0.00735872 -4.32257e-05 0)
(-0.00728941 -5.32077e-05 0)
(-0.00720598 -6.30779e-05 0)
(-0.00710859 -7.2805e-05 0)
(-0.00699752 -8.23535e-05 0)
(-0.00687306 -9.16817e-05 0)
(-0.00673553 -0.000100744 0)
(-0.0065853 -0.000109501 0)
(-0.00642283 -0.000117918 0)
(-0.00624863 -0.000125961 0)
(-0.00606322 -0.000133593 0)
(-0.00586718 -0.000140775 0)
(-0.00566119 -0.000147466 0)
(-0.00544593 -0.000153637 0)
(-0.00522212 -0.000159263 0)
(-0.00499058 -0.000164307 0)
(-0.00475218 -0.000168717 0)
(-0.00450781 -0.000172449 0)
(-0.00425839 -0.000175479 0)
(-0.00400496 -0.000177796 0)
(-0.00374861 -0.000179372 0)
(-0.00349043 -0.000180163 0)
(-0.00323155 -0.00018013 0)
(-0.00297314 -0.000179241 0)
(-0.00271649 -0.000177471 0)
(-0.00246288 -0.0001748 0)
(-0.00221364 -0.000171214 0)
(-0.00197011 -0.000166697 0)
(-0.00173369 -0.000161219 0)
(-0.00150583 -0.000154732 0)
(-0.00128799 -0.000147195 0)
(-0.00108164 -0.000138578 0)
(-0.000888289 -0.000128863 0)
(-0.000709433 -0.000118037 0)
(-0.000546542 -0.000106095 0)
(-0.000401016 -9.30565e-05 0)
(-0.000274173 -7.89891e-05 0)
(-0.000167197 -6.4007e-05 0)
(-8.10347e-05 -4.82898e-05 0)
(-1.62395e-05 -3.21367e-05 0)
(2.71937e-05 -1.60286e-05 0)
(5.00529e-05 -7.39027e-07 0)
(5.42115e-05 1.24804e-05 0)
(4.32037e-05 2.1654e-05 0)
(2.35596e-05 2.35218e-05 0)
(6.38354e-06 1.28838e-05 0)
(3.75579e-06 -2.45901e-05 0)
(1.60149e-05 -4.39096e-05 0)
(2.63795e-05 -4.0294e-05 0)
(2.34134e-05 -1.81045e-05 0)
(-1.66949e-06 1.63012e-05 0)
(-5.43516e-05 5.72614e-05 0)
(-0.000137628 0.00010153 0)
(-0.000252872 0.000146505 0)
(-0.000400238 0.000190758 0)
(-0.000579087 0.000233237 0)
(-0.000788194 0.00027326 0)
(-0.0010259 0.000310484 0)
(-0.0012902 0.000344632 0)
(-0.00157902 0.000375483 0)
(-0.00189002 0.000403055 0)
(-0.00222099 0.000427357 0)
(-0.00256959 0.000448393 0)
(-0.00293344 0.000466392 0)
(-0.00331027 0.000481349 0)
(-0.00369785 0.000493447 0)
(-0.00409389 0.00050276 0)
(-0.00449629 0.000509397 0)
(-0.00490304 0.000513445 0)
(-0.00531211 0.000515034 0)
(-0.00572157 0.000514213 0)
(-0.0061296 0.000511062 0)
(-0.00653445 0.000505715 0)
(-0.00693446 0.000498294 0)
(-0.00732805 0.000488912 0)
(-0.00771371 0.000477703 0)
(-0.00809003 0.000464801 0)
(-0.00845566 0.000450297 0)
(-0.00880934 0.000434304 0)
(-0.00914991 0.000416945 0)
(-0.00947626 0.000398303 0)
(-0.00978739 0.000378479 0)
(-0.0100824 0.000357583 0)
(-0.0103603 0.000335706 0)
(-0.0106203 0.000312928 0)
(-0.0108617 0.000289314 0)
(-0.0110838 0.000264921 0)
(-0.0112859 0.000239805 0)
(-0.0114675 0.000214015 0)
(-0.0116281 0.000187611 0)
(-0.0117673 0.000160667 0)
(-0.0118845 0.00013325 0)
(-0.0119796 0.000105423 0)
(-0.0120522 7.72405e-05 0)
(-0.012102 4.87591e-05 0)
(-0.0121289 2.00495e-05 0)
(-0.0121327 -8.81961e-06 0)
(-0.0121135 -3.77751e-05 0)
(-0.0120712 -6.67284e-05 0)
(-0.0120059 -9.55943e-05 0)
(-0.0119176 -0.000124292 0)
(-0.0118066 -0.000152728 0)
(-0.0116732 -0.000180814 0)
(-0.0115175 -0.000208478 0)
(-0.0113402 -0.000235631 0)
(-0.0111415 -0.000262155 0)
(-0.0109221 -0.000287931 0)
(-0.0106825 -0.000312866 0)
(-0.0104235 -0.000336869 0)
(-0.0101458 -0.000359836 0)
(-0.00985018 -0.000381664 0)
(-0.00953763 -0.000402249 0)
(-0.00920913 -0.000421492 0)
(-0.00886582 -0.000439292 0)
(-0.00850883 -0.000455549 0)
(-0.0081394 -0.000470154 0)
(-0.0077589 -0.000482988 0)
(-0.00736873 -0.000493946 0)
(-0.00697041 -0.000502935 0)
(-0.00656551 -0.000509868 0)
(-0.00615575 -0.000514649 0)
(-0.00574288 -0.000517173 0)
(-0.00532873 -0.000517341 0)
(-0.0049152 -0.000515058 0)
(-0.00450427 -0.000510238 0)
(-0.00409803 -0.000502811 0)
(-0.00369859 -0.000492713 0)
(-0.00330812 -0.000479882 0)
(-0.00292886 -0.000464236 0)
(-0.00256309 -0.000445694 0)
(-0.00221309 -0.000424189 0)
(-0.00188117 -0.000399687 0)
(-0.00156962 -0.000372181 0)
(-0.00128069 -0.000341694 0)
(-0.00101654 -0.000308289 0)
(-0.000779189 -0.000272108 0)
(-0.000570494 -0.0002334 0)
(-0.000392027 -0.000192553 0)
(-0.000244944 -0.000150156 0)
(-0.000129797 -0.000107091 0)
(-4.63387e-05 -6.46716e-05 0)
(6.7562e-06 -2.4847e-05 0)
(3.2226e-05 9.50271e-06 0)
(3.47013e-05 3.42448e-05 0)
(2.19808e-05 4.32378e-05 0)
(6.55806e-06 2.66426e-05 0)
(1.44631e-06 -3.12718e-05 0)
(4.72364e-06 -5.01594e-05 0)
(-2.7437e-06 -3.52755e-05 0)
(-3.08702e-05 8.70618e-06 0)
(-8.86062e-05 7.18659e-05 0)
(-0.000181838 0.000146312 0)
(-0.000313591 0.00022619 0)
(-0.000485559 0.000307912 0)
(-0.000697977 0.000388606 0)
(-0.00095022 0.000466595 0)
(-0.0012408 0.000540539 0)
(-0.00156784 0.000609664 0)
(-0.00192903 0.000673398 0)
(-0.00232171 0.000731442 0)
(-0.0027432 0.000783576 0)
(-0.00319062 0.00082977 0)
(-0.00366097 0.000870056 0)
(-0.00415137 0.000904572 0)
(-0.00465884 0.000933443 0)
(-0.00518042 0.000956854 0)
(-0.00571326 0.000974965 0)
(-0.00625451 0.000987903 0)
(-0.00680145 0.000995876 0)
(-0.00735148 0.000999072 0)
(-0.00790208 0.000997668 0)
(-0.0084508 0.000991866 0)
(-0.00899532 0.000981851 0)
(-0.00953342 0.000967825 0)
(-0.010063 0.000950026 0)
(-0.010582 0.000928672 0)
(-0.0110886 0.000903978 0)
(-0.0115809 0.00087616 0)
(-0.0120572 0.00084541 0)
(-0.012516 0.00081193 0)
(-0.0129558 0.000775906 0)
(-0.0133751 0.000737518 0)
(-0.0137727 0.000696962 0)
(-0.0141474 0.000654406 0)
(-0.0144979 0.000610001 0)
(-0.0148234 0.000563901 0)
(-0.0151227 0.000516237 0)
(-0.0153952 0.000467134 0)
(-0.0156399 0.000416722 0)
(-0.0158563 0.000365122 0)
(-0.0160436 0.000312469 0)
(-0.0162015 0.000258907 0)
(-0.0163293 0.000204565 0)
(-0.0164268 0.000149562 0)
(-0.0164936 9.40284e-05 0)
(-0.0165294 3.81047e-05 0)
(-0.0165343 -1.80717e-05 0)
(-0.016508 -7.43651e-05 0)
(-0.0164506 -0.000130629 0)
(-0.0163623 -0.00018669 0)
(-0.016243 -0.000242374 0)
(-0.0160933 -0.000297531 0)
(-0.0159133 -0.000352013 0)
(-0.0157036 -0.000405648 0)
(-0.0154646 -0.000458246 0)
(-0.015197 -0.000509624 0)
(-0.0149016 -0.000559596 0)
(-0.014579 -0.000607967 0)
(-0.0142303 -0.000654543 0)
(-0.0138565 -0.000699135 0)
(-0.0134587 -0.00074155 0)
(-0.0130381 -0.000781587 0)
(-0.0125961 -0.000819051 0)
(-0.0121341 -0.000853746 0)
(-0.0116537 -0.000885468 0)
(-0.0111565 -0.000914003 0)
(-0.0106444 -0.00093914 0)
(-0.0101193 -0.000960675 0)
(-0.00958315 -0.000978413 0)
(-0.00903807 -0.000992158 0)
(-0.00848636 -0.00100172 0)
(-0.00793037 -0.0010069 0)
(-0.00737253 -0.00100751 0)
(-0.00681538 -0.00100336 0)
(-0.00626158 -0.000994291 0)
(-0.00571391 -0.000980157 0)
(-0.00517516 -0.00096082 0)
(-0.00464821 -0.00093614 0)
(-0.004136 -0.000905989 0)
(-0.00364154 -0.000870261 0)
(-0.00316783 -0.000828891 0)
(-0.00271785 -0.000781858 0)
(-0.00229454 -0.000729195 0)
(-0.00190075 -0.000671005 0)
(-0.0015392 -0.000607499 0)
(-0.00121241 -0.000539024 0)
(-0.000922618 -0.000466129 0)
(-0.000671657 -0.000389619 0)
(-0.000460835 -0.000310655 0)
(-0.000290713 -0.000230903 0)
(-0.000160897 -0.000152723 0)
(-6.97905e-05 -7.9451e-05 0)
(-1.42569e-05 -1.57659e-05 0)
(1.07733e-05 3.19187e-05 0)
(1.32146e-05 5.46141e-05 0)
(5.01371e-06 3.77754e-05 0)
(-1.06277e-06 -3.1003e-05 0)
(-8.75411e-06 -3.99521e-05 0)
(-3.80642e-05 -5.54018e-06 0)
(-9.68031e-05 6.77957e-05 0)
(-0.000192565 0.000167295 0)
(-0.000331149 0.000282394 0)
(-0.000515632 0.000405599 0)
(-0.000747497 0.000531375 0)
(-0.00102706 0.000656068 0)
(-0.00135345 0.000776879 0)
(-0.00172518 0.000891925 0)
(-0.00214001 0.000999864 0)
(-0.00259532 0.0010998 0)
(-0.00308821 0.00119111 0)
(-0.00361542 0.00127349 0)
(-0.00417364 0.00134675 0)
(-0.00475943 0.00141089 0)
(-0.00536922 0.00146591 0)
(-0.00599954 0.00151211 0)
(-0.00664689 0.00154958 0)
(-0.00730779 0.00157861 0)
(-0.00797886 0.00159945 0)
(-0.00865678 0.00161232 0)
(-0.00933836 0.00161752 0)
(-0.0100205 0.00161535 0)
(-0.0107003 0.00160612 0)
(-0.0113749 0.00159015 0)
(-0.0120415 0.00156775 0)
(-0.0126976 0.00153927 0)
(-0.0133406 0.00150504 0)
(-0.0139683 0.00146537 0)
(-0.0145783 0.0014206 0)
(-0.0151687 0.00137107 0)
(-0.0157373 0.00131705 0)
(-0.0162824 0.00125885 0)
(-0.0168022 0.00119678 0)
(-0.017295 0.0011311 0)
(-0.0177595 0.00106211 0)
(-0.018194 0.000990049 0)
(-0.0185975 0.000915165 0)
(-0.0189686 0.000837712 0)
(-0.0193063 0.000757894 0)
(-0.0196096 0.000675927 0)
(-0.0198778 0.000592047 0)
(-0.0201099 0.000506475 0)
(-0.0203054 0.000419424 0)
(-0.0204637 0.000331108 0)
(-0.0205843 0.000241754 0)
(-0.0206668 0.000151596 0)
(-0.020711 6.08451e-05 0)
(-0.0207167 -3.02849e-05 0)
(-0.0206838 -0.000121554 0)
(-0.0206124 -0.000212711 0)
(-0.0205026 -0.000303509 0)
(-0.0203545 -0.000393695 0)
(-0.0201686 -0.000483008 0)
(-0.0199454 -0.000571187 0)
(-0.0196852 -0.000657962 0)
(-0.0193889 -0.000743044 0)
(-0.0190571 -0.000826147 0)
(-0.0186909 -0.000906981 0)
(-0.0182911 -0.000985245 0)
(-0.017859 -0.00106063 0)
(-0.0173958 -0.00113282 0)
(-0.0169029 -0.00120151 0)
(-0.0163818 -0.00126637 0)
(-0.0158342 -0.00132709 0)
(-0.0152619 -0.00138335 0)
(-0.0146668 -0.00143482 0)
(-0.014051 -0.00148116 0)
(-0.0134166 -0.00152203 0)
(-0.0127662 -0.0015571 0)
(-0.012102 -0.00158604 0)
(-0.0114267 -0.00160855 0)
(-0.0107432 -0.0016243 0)
(-0.0100542 -0.00163298 0)
(-0.00936282 -0.00163428 0)
(-0.00867214 -0.00162792 0)
(-0.00798542 -0.00161364 0)
(-0.00730601 -0.00159119 0)
(-0.00663733 -0.00156034 0)
(-0.00598286 -0.00152089 0)
(-0.00534616 -0.00147267 0)
(-0.00473084 -0.00141556 0)
(-0.00414051 -0.0013495 0)
(-0.00357871 -0.00127452 0)
(-0.00304892 -0.00119073 0)
(-0.0025545 -0.00109836 0)
(-0.00209862 -0.000997818 0)
(-0.00168418 -0.000889741 0)
(-0.00131375 -0.000775062 0)
(-0.00098938 -0.00065511 0)
(-0.000712534 -0.000531727 0)
(-0.000483831 -0.00040746 0)
(-0.00030289 -0.000285804 0)
(-0.000168102 -0.00017152 0)
(-7.63296e-05 -7.10472e-05 0)
(-2.25469e-05 7.06879e-06 0)
(4.81859e-07 5.12463e-05 0)
(2.67539e-06 4.29478e-05 0)
(-3.42687e-06 -2.34072e-05 0)
(-2.31454e-05 -1.10975e-05 0)
(-7.70633e-05 5.2358e-05 0)
(-0.000169589 0.000163129 0)
(-0.000307158 0.000306448 0)
(-0.000494653 0.000469441 0)
(-0.000734872 0.000642673 0)
(-0.00102909 0.000819432 0)
(-0.00137722 0.000994664 0)
(-0.00177847 0.00116478 0)
(-0.00223092 0.00132716 0)
(-0.0027322 0.00147991 0)
(-0.00327946 0.00162167 0)
(-0.00386929 0.00175158 0)
(-0.00449821 0.00186907 0)
(-0.00516248 0.0019738 0)
(-0.00585817 0.00206571 0)
(-0.00658127 0.00214478 0)
(-0.0073278 0.00221115 0)
(-0.00809379 0.0022651 0)
(-0.00887523 0.00230689 0)
(-0.00966826 0.00233687 0)
(-0.0104691 0.0023554 0)
(-0.0112739 0.00236286 0)
(-0.0120793 0.00235966 0)
(-0.0128817 0.00234622 0)
(-0.0136778 0.00232301 0)
(-0.0144645 0.0022905 0)
(-0.0152386 0.00224912 0)
(-0.0159974 0.00219937 0)
(-0.016738 0.00214168 0)
(-0.0174578 0.00207654 0)
(-0.0181544 0.00200439 0)
(-0.0188253 0.00192565 0)
(-0.0194685 0.00184076 0)
(-0.0200818 0.00175017 0)
(-0.0206634 0.00165424 0)
(-0.0212114 0.00155338 0)
(-0.0217242 0.00144801 0)
(-0.0222002 0.00133845 0)
(-0.0226381 0.00122507 0)
(-0.0230366 0.00110821 0)
(-0.0233945 0.000988213 0)
(-0.0237108 0.000865407 0)
(-0.0239846 0.000740114 0)
(-0.0242152 0.000612673 0)
(-0.0244018 0.000483414 0)
(-0.0245439 0.000352659 0)
(-0.024641 0.000220739 0)
(-0.024693 8.7986e-05 0)
(-0.0246994 -4.52713e-05 0)
(-0.0246604 -0.000178687 0)
(-0.0245758 -0.000311902 0)
(-0.024446 -0.000444558 0)
(-0.024271 -0.00057629 0)
(-0.0240514 -0.000706723 0)
(-0.0237877 -0.000835478 0)
(-0.0234805 -0.00096216 0)
(-0.0231307 -0.00108636 0)
(-0.0227391 -0.00120765 0)
(-0.0223068 -0.00132562 0)
(-0.021835 -0.00143984 0)
(-0.0213251 -0.00154987 0)
(-0.0207786 -0.00165527 0)
(-0.0201971 -0.00175556 0)
(-0.0195823 -0.00185028 0)
(-0.0189363 -0.00193898 0)
(-0.0182612 -0.00202119 0)
(-0.0175592 -0.00209642 0)
(-0.0168327 -0.00216418 0)
(-0.0160845 -0.00222398 0)
(-0.0153171 -0.00227537 0)
(-0.0145336 -0.00231785 0)
(-0.0137369 -0.00235097 0)
(-0.0129303 -0.00237426 0)
(-0.0121173 -0.00238728 0)
(-0.0113011 -0.00238958 0)
(-0.0104856 -0.00238078 0)
(-0.00967451 -0.00236048 0)
(-0.00887166 -0.00232835 0)
(-0.00808102 -0.00228406 0)
(-0.0073066 -0.00222734 0)
(-0.0065525 -0.002158 0)
(-0.00582285 -0.00207591 0)
(-0.00512179 -0.00198104 0)
(-0.00445333 -0.00187348 0)
(-0.0038214 -0.00175344 0)
(-0.00322977 -0.00162135 0)
(-0.00268201 -0.00147785 0)
(-0.00218137 -0.00132393 0)
(-0.00173068 -0.00116098 0)
(-0.00133224 -0.000990891 0)
(-0.00098767 -0.000816258 0)
(-0.000697771 -0.000640549 0)
(-0.000462326 -0.000468406 0)
(-0.000279942 -0.000305964 0)
(-0.000147773 -0.000161282 0)
(-6.11998e-05 -4.47792e-05 0)
(-1.42624e-05 2.97585e-05 0)
(3.21851e-08 4.07382e-05 0)
(-5.67054e-06 -8.32029e-06 0)
(-3.77956e-05 3.77054e-05 0)
(-0.000117522 0.000140636 0)
(-0.000246123 0.000297653 0)
(-0.000427563 0.000492362 0)
(-0.000666299 0.000710095 0)
(-0.000964301 0.000939916 0)
(-0.00132233 0.00117374 0)
(-0.0017402 0.00140543 0)
(-0.0022165 0.00163053 0)
(-0.0027493 0.00184568 0)
(-0.0033359 0.00204835 0)
(-0.00397306 0.00223684 0)
(-0.00465723 0.00240988 0)
(-0.00538447 0.00256658 0)
(-0.00615068 0.00270658 0)
(-0.00695159 0.00282953 0)
(-0.00778281 0.00293552 0)
(-0.00863987 0.00302454 0)
(-0.00951836 0.00309693 0)
(-0.0104139 0.00315299 0)
(-0.0113221 0.00319314 0)
(-0.0122387 0.00321786 0)
(-0.0131597 0.00322762 0)
(-0.0140809 0.00322301 0)
(-0.0149984 0.00320454 0)
(-0.0159086 0.00317282 0)
(-0.0168079 0.00312847 0)
(-0.0176927 0.00307208 0)
(-0.0185599 0.00300427 0)
(-0.0194062 0.00292567 0)
(-0.0202287 0.00283687 0)
(-0.0210247 0.00273848 0)
(-0.0217913 0.00263109 0)
(-0.0225262 0.00251526 0)
(-0.0232269 0.00239157 0)
(-0.0238914 0.00226059 0)
(-0.0245174 0.00212282 0)
(-0.0251033 0.00197879 0)
(-0.0256471 0.00182902 0)
(-0.0261473 0.00167401 0)
(-0.0266025 0.00151421 0)
(-0.0270113 0.00135009 0)
(-0.0273726 0.00118214 0)
(-0.0276854 0.0010108 0)
(-0.0279486 0.000836521 0)
(-0.0281616 0.000659772 0)
(-0.0283238 0.000481005 0)
(-0.0284346 0.000300671 0)
(-0.0284937 0.000119227 0)
(-0.0285009 -6.28725e-05 0)
(-0.0284561 -0.000245155 0)
(-0.0283593 -0.000427131 0)
(-0.0282107 -0.000608305 0)
(-0.0280106 -0.000788181 0)
(-0.0277595 -0.000966261 0)
(-0.027458 -0.00114203 0)
(-0.0271069 -0.00131494 0)
(-0.026707 -0.00148444 0)
(-0.0262594 -0.00164996 0)
(-0.0257654 -0.00181095 0)
(-0.0252264 -0.00196683 0)
(-0.0246437 -0.00211699 0)
(-0.0240193 -0.00226081 0)
(-0.0233549 -0.00239769 0)
(-0.0226525 -0.002527 0)
(-0.0219145 -0.00264811 0)
(-0.0211433 -0.00276036 0)
(-0.0203413 -0.00286311 0)
(-0.0195114 -0.00295571 0)
(-0.0186565 -0.0030375 0)
(-0.0177798 -0.00310783 0)
(-0.0168845 -0.00316607 0)
(-0.015974 -0.00321159 0)
(-0.0150521 -0.00324377 0)
(-0.0141226 -0.003262 0)
(-0.0131894 -0.00326571 0)
(-0.0122565 -0.00325438 0)
(-0.0113283 -0.00322748 0)
(-0.010409 -0.00318458 0)
(-0.00950319 -0.00312525 0)
(-0.0086152 -0.00304919 0)
(-0.00774966 -0.00295617 0)
(-0.00691116 -0.00284606 0)
(-0.00610426 -0.00271888 0)
(-0.00533338 -0.00257479 0)
(-0.00460286 -0.00241416 0)
(-0.00391686 -0.0022376 0)
(-0.00327926 -0.00204609 0)
(-0.00269365 -0.00184097 0)
(-0.00216311 -0.00162412 0)
(-0.00169021 -0.00139806 0)
(-0.00127682 -0.00116613 0)
(-0.000923998 -0.000932708 0)
(-0.000631835 -0.000703536 0)
(-0.00039934 -0.000486008 0)
(-0.000224193 -0.000289607 0)
(-0.000102454 -0.000126328 0)
(-2.98166e-05 -1.17095e-05 0)
(-2.6602e-06 3.05526e-05 0)
(-7.7198e-06 1.41673e-05 0)
(-5.23329e-05 0.000107009 0)
(-0.000158426 0.000260355 0)
(-0.000323768 0.000472797 0)
(-0.000550494 0.000726755 0)
(-0.000841603 0.00100605 0)
(-0.00119847 0.0012987 0)
(-0.00162133 0.00159524 0)
(-0.00210926 0.00188881 0)
(-0.00266073 0.00217392 0)
(-0.00327334 0.00244655 0)
(-0.00394408 0.00270368 0)
(-0.00466949 0.00294306 0)
(-0.00544567 0.00316306 0)
(-0.00626833 0.00336259 0)
(-0.00713308 0.00354097 0)
(-0.00803527 0.00369782 0)
(-0.00897012 0.00383304 0)
(-0.00993287 0.00394674 0)
(-0.0109187 0.00403916 0)
(-0.0119227 0.00411067 0)
(-0.0129403 0.00416176 0)
(-0.0139667 0.004193 0)
(-0.0149974 0.004205 0)
(-0.0160281 0.00419844 0)
(-0.0170544 0.00417403 0)
(-0.0180722 0.0041325 0)
(-0.0190775 0.00407462 0)
(-0.0200665 0.00400115 0)
(-0.0210356 0.00391285 0)
(-0.0219814 0.00381055 0)
(-0.0229004 0.00369501 0)
(-0.0237896 0.00356694 0)
(-0.024646 0.00342715 0)
(-0.0254669 0.00327639 0)
(-0.0262496 0.00311535 0)
(-0.0269918 0.00294474 0)
(-0.0276911 0.00276529 0)
(-0.0283454 0.00257766 0)
(-0.0289527 0.00238251 0)
(-0.0295113 0.00218049 0)
(-0.0300197 0.00197222 0)
(-0.0304762 0.00175832 0)
(-0.0308796 0.00153941 0)
(-0.0312288 0.00131609 0)
(-0.0315227 0.00108895 0)
(-0.0317605 0.000858604 0)
(-0.0319414 0.000625649 0)
(-0.032065 0.000390681 0)
(-0.0321309 0.000154282 0)
(-0.0321388 -8.29444e-05 0)
(-0.0320885 -0.000320363 0)
(-0.0319802 -0.000557342 0)
(-0.031814 -0.000793259 0)
(-0.0315904 -0.00102748 0)
(-0.0313098 -0.00125932 0)
(-0.0309729 -0.00148811 0)
(-0.0305806 -0.00171315 0)
(-0.0301338 -0.00193375 0)
(-0.0296338 -0.00214917 0)
(-0.029082 -0.00235869 0)
(-0.0284798 -0.00256154 0)
(-0.027829 -0.00275695 0)
(-0.0271315 -0.00294412 0)
(-0.0263894 -0.00312227 0)
(-0.0256049 -0.00329059 0)
(-0.0247806 -0.00344825 0)
(-0.0239191 -0.00359443 0)
(-0.0230232 -0.00372827 0)
(-0.0220961 -0.00384893 0)
(-0.021141 -0.00395558 0)
(-0.0201615 -0.0040474 0)
(-0.019161 -0.00412356 0)
(-0.0181435 -0.00418324 0)
(-0.0171129 -0.00422564 0)
(-0.0160735 -0.00425002 0)
(-0.0150297 -0.00425565 0)
(-0.0139859 -0.00424185 0)
(-0.0129468 -0.00420798 0)
(-0.0119172 -0.00415348 0)
(-0.0109018 -0.00407787 0)
(-0.00990563 -0.00398078 0)
(-0.00893365 -0.00386195 0)
(-0.00799085 -0.00372129 0)
(-0.00708217 -0.00355884 0)
(-0.00621242 -0.00337488 0)
(-0.00538628 -0.00316995 0)
(-0.00460825 -0.00294491 0)
(-0.00388256 -0.00270103 0)
(-0.00321309 -0.00244007 0)
(-0.00260322 -0.0021644 0)
(-0.00205579 -0.00187717 0)
(-0.001573 -0.00158244 0)
(-0.00115627 -0.00128549 0)
(-0.000806116 -0.000993027 0)
(-0.000522104 -0.000713572 0)
(-0.000302604 -0.000457817 0)
(-0.000144556 -0.000239022 0)
(-4.54886e-05 -7.40285e-05 0)
(-5.29301e-06 1.22292e-05 0)
(-9.67153e-06 4.39574e-05 0)
(-6.65336e-05 0.000196634 0)
(-0.000198854 0.000411847 0)
(-0.000401179 0.00068916 0)
(-0.000673363 0.00101023 0)
(-0.00101737 0.00135816 0)
(-0.00143358 0.00171956 0)
(-0.00192141 0.00208446 0)
(-0.00247956 0.00244482 0)
(-0.00310589 0.00279457 0)
(-0.00379763 0.00312901 0)
(-0.00455145 0.00344452 0)
(-0.00536355 0.00373842 0)
(-0.0062297 0.00400872 0)
(-0.00714533 0.0042541 0)
(-0.00810569 0.00447354 0)
(-0.00910581 0.00466666 0)
(-0.0101406 0.00483313 0)
(-0.0112049 0.0049731 0)
(-0.0122935 0.00508679 0)
(-0.0134014 0.00517465 0)
(-0.0145233 0.00523719 0)
(-0.0156543 0.00527509 0)
(-0.0167895 0.00528909 0)
(-0.0179241 0.00527997 0)
(-0.0190535 0.00524864 0)
(-0.0201732 0.00519595 0)
(-0.0212789 0.00512283 0)
(-0.0223665 0.00503024 0)
(-0.0234319 0.00491914 0)
(-0.0244715 0.00479044 0)
(-0.0254816 0.00464513 0)
(-0.0264588 0.00448417 0)
(-0.0273998 0.00430845 0)
(-0.0283018 0.00411891 0)
(-0.0291618 0.00391647 0)
(-0.0299771 0.003702 0)
(-0.0307452 0.00347637 0)
(-0.0314639 0.00324045 0)
(-0.0321311 0.00299505 0)
(-0.0327446 0.00274098 0)
(-0.0333029 0.00247904 0)
(-0.0338043 0.00221004 0)
(-0.0342473 0.00193472 0)
(-0.0346308 0.00165385 0)
(-0.0349535 0.0013682 0)
(-0.0352146 0.00107855 0)
(-0.0354132 0.000785612 0)
(-0.0355489 0.000490147 0)
(-0.0356211 0.000192918 0)
(-0.0356296 -0.000105302 0)
(-0.0355743 -0.000403736 0)
(-0.0354552 -0.000701605 0)
(-0.0352726 -0.000998115 0)
(-0.0350268 -0.00129245 0)
(-0.0347185 -0.00158378 0)
(-0.0343484 -0.00187126 0)
(-0.0339174 -0.00215401 0)
(-0.0334266 -0.00243115 0)
(-0.0328773 -0.00270178 0)
(-0.0322711 -0.00296499 0)
(-0.0316096 -0.00321983 0)
(-0.0308946 -0.00346532 0)
(-0.0301284 -0.00370048 0)
(-0.0293131 -0.00392432 0)
(-0.0284512 -0.00413584 0)
(-0.0275456 -0.004334 0)
(-0.026599 -0.00451776 0)
(-0.0256147 -0.00468607 0)
(-0.0245958 -0.00483789 0)
(-0.0235462 -0.0049722 0)
(-0.0224694 -0.00508795 0)
(-0.0213696 -0.00518411 0)
(-0.0202507 -0.00525969 0)
(-0.0191172 -0.00531371 0)
(-0.0179737 -0.00534525 0)
(-0.0168249 -0.00535341 0)
(-0.0156756 -0.00533736 0)
(-0.0145308 -0.00529633 0)
(-0.0133958 -0.00522967 0)
(-0.0122758 -0.00513681 0)
(-0.0111759 -0.00501734 0)
(-0.0101017 -0.00487099 0)
(-0.00905839 -0.00469765 0)
(-0.00805131 -0.00449745 0)
(-0.00708563 -0.00427079 0)
(-0.00616635 -0.00401839 0)
(-0.00529831 -0.00374136 0)
(-0.00448606 -0.0034413 0)
(-0.00373378 -0.00312038 0)
(-0.00304518 -0.00278148 0)
(-0.00242345 -0.00242833 0)
(-0.00187114 -0.0020657 0)
(-0.00139011 -0.00169964 0)
(-0.000981449 -0.00133777 0)
(-0.000645361 -0.000989542 0)
(-0.000381035 -0.000666655 0)
(-0.000186414 -0.00038335 0)
(-6.08998e-05 -0.000157349 0)
(-7.83756e-06 -1.41337e-05 0)
(-1.15344e-05 8.08006e-05 0)
(-8.03432e-05 0.000306332 0)
(-0.000238388 0.000594863 0)
(-0.000477254 0.000946549 0)
(-0.000794696 0.00134298 0)
(-0.00119139 0.00176628 0)
(-0.00166676 0.0022027 0)
(-0.00221945 0.0026412 0)
(-0.00284745 0.0030732 0)
(-0.0035481 0.00349196 0)
(-0.00431821 0.00389213 0)
(-0.00515404 0.00426961 0)
(-0.00605141 0.00462128 0)
(-0.00700574 0.00494484 0)
(-0.00801221 0.00523859 0)
(-0.00906568 0.00550145 0)
(-0.0101609 0.00573273 0)
(-0.0112924 0.00593215 0)
(-0.0124548 0.0060997 0)
(-0.0136425 0.00623565 0)
(-0.0148501 0.00634046 0)
(-0.0160722 0.00641474 0)
(-0.0173034 0.00645925 0)
(-0.0185385 0.00647487 0)
(-0.0197723 0.00646249 0)
(-0.021 0.00642314 0)
(-0.0222168 0.00635792 0)
(-0.023418 0.00626788 0)
(-0.0245991 0.00615414 0)
(-0.0257561 0.00601788 0)
(-0.0268847 0.00586022 0)
(-0.0279811 0.00568229 0)
(-0.0290416 0.00548525 0)
(-0.0300629 0.00527023 0)
(-0.0310416 0.00503831 0)
(-0.0319746 0.00479061 0)
(-0.032859 0.00452821 0)
(-0.0336923 0.00425217 0)
(-0.0344719 0.0039635 0)
(-0.0351955 0.00366324 0)
(-0.035861 0.00335238 0)
(-0.0364665 0.0030319 0)
(-0.0370102 0.00270274 0)
(-0.0374907 0.00236587 0)
(-0.0379065 0.00202223 0)
(-0.0382564 0.00167276 0)
(-0.0385395 0.00131838 0)
(-0.0387549 0.000960004 0)
(-0.038902 0.000598567 0)
(-0.0389803 0.000234996 0)
(-0.0389894 -0.000129769 0)
(-0.0389294 -0.000494774 0)
(-0.0388002 -0.000859056 0)
(-0.0386021 -0.00122165 0)
(-0.0383356 -0.00158157 0)
(-0.0380011 -0.00193779 0)
(-0.0375997 -0.00228927 0)
(-0.0371322 -0.00263497 0)
(-0.0365998 -0.0029738 0)
(-0.0360041 -0.00330468 0)
(-0.0353466 -0.00362648 0)
(-0.0346291 -0.00393803 0)
(-0.0338536 -0.00423817 0)
(-0.0330224 -0.00452571 0)
(-0.0321379 -0.00479945 0)
(-0.0312029 -0.00505814 0)
(-0.0302203 -0.00530055 0)
(-0.0291932 -0.0055254 0)
(-0.028125 -0.00573144 0)
(-0.0270193 -0.00591742 0)
(-0.0258799 -0.00608207 0)
(-0.0247109 -0.00622414 0)
(-0.0235165 -0.00634239 0)
(-0.0223012 -0.00643563 0)
(-0.0210697 -0.00650269 0)
(-0.0198269 -0.00654245 0)
(-0.0185778 -0.00655386 0)
(-0.0173276 -0.00653593 0)
(-0.0160817 -0.00648777 0)
(-0.0148456 -0.00640861 0)
(-0.0136249 -0.00629781 0)
(-0.0124252 -0.0061549 0)
(-0.0112521 -0.00597959 0)
(-0.0101114 -0.00577181 0)
(-0.00900878 -0.00553176 0)
(-0.00794962 -0.00525997 0)
(-0.0069393 -0.00495734 0)
(-0.00598298 -0.00462526 0)
(-0.00508552 -0.00426563 0)
(-0.00425146 -0.00388104 0)
(-0.00348486 -0.00347482 0)
(-0.00278926 -0.00305129 0)
(-0.00216767 -0.00261585 0)
(-0.00162246 -0.00217526 0)
(-0.00115531 -0.0017379 0)
(-0.000767216 -0.00131402 0)
(-0.000458232 -0.000916109 0)
(-0.000227358 -0.000559133 0)
(-7.58251e-05 -0.000261341 0)
(-1.02648e-05 -4.82903e-05 0)
(-1.33041e-05 0.000124435 0)
(-9.36215e-05 0.000435575 0)
(-0.000276816 0.000808724 0)
(-0.000551469 0.00124456 0)
(-0.000913455 0.00172439 0)
(-0.00136226 0.00223022 0)
(-0.00189622 0.00274761 0)
(-0.00251322 0.00326507 0)
(-0.00321045 0.00377343 0)
(-0.00398472 0.00426532 0)
(-0.00483231 0.00473493 0)
(-0.00574905 0.00517773 0)
(-0.00673037 0.00559014 0)
(-0.00777135 0.00596957 0)
(-0.00886678 0.006314 0)
(-0.0100112 0.00662224 0)
(-0.0111991 0.00689335 0)
(-0.0124247 0.00712705 0)
(-0.0136823 0.00732324 0)
(-0.0149659 0.00748217 0)
(-0.0162699 0.00760434 0)
(-0.0175886 0.00769048 0)
(-0.0189162 0.00774138 0)
(-0.0202472 0.00775804 0)
(-0.0215764 0.00774158 0)
(-0.0228983 0.00769312 0)
(-0.0242079 0.00761389 0)
(-0.0255004 0.00750521 0)
(-0.026771 0.00736835 0)
(-0.0280152 0.00720465 0)
(-0.0292287 0.00701546 0)
(-0.0304074 0.00680213 0)
(-0.0315473 0.00656599 0)
(-0.0326448 0.00630837 0)
(-0.0336964 0.00603061 0)
(-0.0346989 0.00573399 0)
(-0.0356491 0.00541977 0)
(-0.0365442 0.00508925 0)
(-0.0373816 0.00474364 0)
(-0.0381588 0.00438415 0)
(-0.0388735 0.00401198 0)
(-0.0395238 0.00362829 0)
(-0.0401078 0.00323424 0)
(-0.0406237 0.00283097 0)
(-0.0410703 0.0024196 0)
(-0.0414461 0.00200127 0)
(-0.0417501 0.00157707 0)
(-0.0419814 0.00114812 0)
(-0.0421394 0.000715506 0)
(-0.0422235 0.000280369 0)
(-0.0422334 -0.000156166 0)
(-0.0421689 -0.000592967 0)
(-0.0420302 -0.00102889 0)
(-0.0418176 -0.00146278 0)
(-0.0415314 -0.00189344 0)
(-0.0411723 -0.00231965 0)
(-0.0407413 -0.00274019 0)
(-0.0402393 -0.0031538 0)
(-0.0396677 -0.00355921 0)
(-0.039028 -0.00395509 0)
(-0.0383219 -0.0043401 0)
(-0.0375512 -0.00471288 0)
(-0.0367183 -0.00507203 0)
(-0.0358255 -0.00541615 0)
(-0.0348754 -0.00574378 0)
(-0.0338709 -0.00605347 0)