/*--------------------------------*- C++ -*----------------------------------*\
  =========                 |
  \\      /  F ield         | OpenFOAM: The Open Source CFD Toolbox
   \\    /   O peration     | Website:  https://openfoam.org
    \\  /    A nd           | Version:  11
     \\/     M anipulation  |
\*---------------------------------------------------------------------------*/
FoamFile
{
    format      ascii;
    class       surfaceScalarField;
    location    "6.5";
    object      phi;
}
// * * * * * * * * * * * * * * * * * * * * * * * * * * * * * * * * * * * * * //

dimensions      [0 3 -1 0 0 0 0];

internalField   nonuniform List<scalar> 
19980
(
6.93378e-07
-6.9414e-07
2.34852e-06
-1.65511e-06
4.13378e-06
-1.78548e-06
5.509e-06
-1.37517e-06
6.16664e-06
-6.57584e-07
5.93789e-06
2.28785e-07
4.73904e-06
1.19885e-06
2.53979e-06
2.19926e-06
-6.56941e-07
3.19677e-06
-4.82598e-06
4.16905e-06
-9.92706e-06
5.10111e-06
-1.59104e-05
5.98338e-06
-2.27197e-05
6.80927e-06
-3.02938e-05
7.57416e-06
-3.85691e-05
8.27526e-06
-4.74803e-05
8.91114e-06
-5.69613e-05
9.48107e-06
-6.69467e-05
9.98528e-06
-7.73706e-05
1.04239e-05
-8.81684e-05
1.07978e-05
-9.92762e-05
1.11078e-05
-0.000110631
1.13552e-05
-0.000122173
1.15415e-05
-0.000133841
1.16684e-05
-0.000145579
1.17374e-05
-0.000157329
1.17502e-05
-0.000169038
1.17087e-05
-0.000180652
1.16145e-05
-0.000192122
1.14696e-05
-0.000203398
1.12762e-05
-0.000214434
1.10363e-05
-0.000225186
1.07521e-05
-0.000235611
1.04254e-05
-0.00024567
1.00588e-05
-0.000255325
9.65421e-06
-0.000264538
9.21351e-06
-0.000273277
8.73883e-06
-0.000281509
8.23236e-06
-0.000289206
7.69614e-06
-0.000296338
7.13213e-06
-0.00030288
6.54248e-06
-0.00030881
5.92941e-06
-0.000314105
5.29518e-06
-0.000318747
4.64199e-06
-0.000322719
3.97194e-06
-0.000326006
3.28734e-06
-0.000328596
2.59052e-06
-0.00033048
1.88354e-06
-0.000331649
1.1686e-06
-0.000332097
4.4817e-07
-0.000331822
-2.75307e-07
-0.000330822
-9.99411e-07
-0.000329101
-1.7216e-06
-0.000326661
-2.43938e-06
-0.000323511
-3.15039e-06
-0.000319659
-3.85221e-06
-0.000315116
-4.54227e-06
-0.000309898
-5.21818e-06
-0.000304021
-5.87759e-06
-0.000297503
-6.51777e-06
-0.000290367
-7.13581e-06
-0.000282638
-7.72901e-06
-0.000274343
-8.29476e-06
-0.000265513
-8.83029e-06
-0.00025618
-9.33296e-06
-0.00024638
-9.80028e-06
-0.00023615
-1.02296e-05
-0.000225532
-1.06182e-05
-0.000214569
-1.09635e-05
-0.000203306
-1.12629e-05
-0.000191791
-1.15142e-05
-0.000180076
-1.17151e-05
-0.000168213
-1.18631e-05
-0.000156257
-1.19562e-05
-0.000144265
-1.19922e-05
-0.000132296
-1.19691e-05
-0.000120411
-1.18851e-05
-0.000108673
-1.17382e-05
-9.71456e-05
-1.15269e-05
-8.58951e-05
-1.12504e-05
-7.49872e-05
-1.09078e-05
-6.44887e-05
-1.04985e-05
-5.44665e-05
-1.00222e-05
-4.49877e-05
-9.4788e-06
-3.61189e-05
-8.86876e-06
-2.7926e-05
-8.19296e-06
-2.04728e-05
-7.45315e-06
-1.38207e-05
-6.65211e-06
-8.02687e-06
-5.79384e-06
-3.14305e-06
-4.88386e-06
7.86828e-07
-3.9299e-06
3.72985e-06
-2.94302e-06
5.66908e-06
-1.93925e-06
6.61141e-06
-9.42344e-07
6.59992e-06
1.14753e-08
5.73341e-06
8.66502e-07
4.198e-06
1.53539e-06
2.31999e-06
1.87799e-06
6.57379e-07
1.66256e-06
6.57349e-07
1.67987e-06
-2.37377e-06
4.57465e-06
-4.54994e-06
7.29769e-06
-4.50837e-06
8.88408e-06
-2.96168e-06
8.67315e-06
-4.46456e-07
6.23952e-06
2.66224e-06
1.33726e-06
6.10128e-06
-6.15292e-06
9.68941e-06
-1.62585e-05
1.33025e-05
-2.89437e-05
1.68543e-05
-4.41269e-05
2.02843e-05
-6.16935e-05
2.355e-05
-8.15062e-05
2.6622e-05
-0.000103411
2.94794e-05
-0.000127244
3.21081e-05
-0.000152833
3.44998e-05
-0.000180001
3.66491e-05
-0.000208569
3.85538e-05
-0.000238359
4.02137e-05
-0.000269191
4.16303e-05
-0.00030089
4.28063e-05
-0.00033328
4.37456e-05
-0.000366191
4.44529e-05
-0.000399457
4.49337e-05
-0.000432913
4.51937e-05
-0.000466402
4.52392e-05
-0.00049977
4.50768e-05
-0.000532869
4.47133e-05
-0.000565556
4.41561e-05
-0.000597692
4.34127e-05
-0.000629146
4.24907e-05
-0.000659792
4.13978e-05
-0.000689509
4.0142e-05
-0.000718181
3.87314e-05
-0.000745701
3.7174e-05
-0.000771965
3.54775e-05
-0.000796876
3.365e-05
-0.000820343
3.16995e-05
-0.000842281
2.9634e-05
-0.000862611
2.74617e-05
-0.000881259
2.51907e-05
-0.000898159
2.28295e-05
-0.00091325
2.03864e-05
-0.000926478
1.78698e-05
-0.000937795
1.52883e-05
-0.000947158
1.26507e-05
-0.000954533
9.9655e-06
-0.000959891
7.24153e-06
-0.00096321
4.4875e-06
-0.000964474
1.71241e-06
-0.000963675
-1.07443e-06
-0.000960811
-3.86359e-06
-0.000955887
-6.64553e-06
-0.000948916
-9.4107e-06
-0.000939916
-1.21495e-05
-0.000928916
-1.48524e-05
-0.000915948
-1.75099e-05
-0.000901054
-2.01123e-05
-0.000884282
-2.26495e-05
-0.000865689
-2.51115e-05
-0.000845337
-2.74878e-05
-0.000823298
-2.97679e-05
-0.000799651
-3.19416e-05
-0.000774483
-3.39987e-05
-0.000747887
-3.59291e-05
-0.000719964
-3.77226e-05
-0.000690825
-3.93694e-05
-0.000660584
-4.08593e-05
-0.000629365
-4.21824e-05
-0.000597298
-4.33295e-05
-0.000564521
-4.42915e-05
-0.000531176
-4.50596e-05
-0.000497414
-4.56252e-05
-0.00046339
-4.59804e-05
-0.000429265
-4.61174e-05
-0.000395205
-4.60289e-05
-0.000361382
-4.57083e-05
-0.00032797
-4.51499e-05
-0.000295148
-4.43487e-05
-0.000263098
-4.3301e-05
-0.000232001
-4.20041e-05
-0.000202043
-4.04566e-05
-0.000173407
-3.86585e-05
-0.000146275
-3.66111e-05
-0.000120826
-3.43177e-05
-9.72347e-05
-3.1784e-05
-7.56686e-05
-2.90192e-05
-5.62846e-05
-2.60362e-05
-3.92254e-05
-2.28531e-05
-2.46144e-05
-1.94949e-05
-1.25489e-05
-1.59954e-05
-3.09066e-06
-1.24013e-05
3.74731e-06
-8.77723e-06
8.01918e-06
-5.21422e-06
9.87235e-06
-1.84173e-06
9.58403e-06
1.15479e-06
7.60988e-06
3.50956e-06
4.64265e-06
4.8452e-06
1.66171e-06
4.64344e-06
2.3191e-06
1.86091e-06
-4.23491e-06
4.65461e-06
-7.34365e-06
6.68403e-06
-6.53772e-06
6.78313e-06
-3.06095e-06
4.11306e-06
2.22369e-06
-1.89725e-06
8.67277e-06
-1.16042e-05
1.58082e-05
-2.51975e-05
2.32827e-05
-4.27401e-05
3.08452e-05
-6.41998e-05
3.8314e-05
-8.94726e-05
4.55571e-05
-0.000118402
5.24793e-05
-0.000150792
5.90118e-05
-0.000186418
6.51052e-05
-0.000225035
7.07256e-05
-0.000266385
7.58494e-05
-0.000310198
8.04623e-05
-0.0003562
8.45563e-05
-0.000404115
8.8128e-05
-0.000453663
9.11787e-05
-0.000504569
9.37126e-05
-0.00055656
9.57365e-05
-0.000609367
9.72597e-05
-0.000662726
9.82925e-05
-0.000716379
9.88469e-05
-0.000770075
9.89357e-05
-0.000823571
9.85729e-05
-0.000876631
9.77731e-05
-0.000929026
9.65515e-05
-0.000980538
9.49243e-05
-0.00103095
9.29076e-05
-0.00108007
9.0518e-05
-0.00112771
8.77725e-05
-0.00117366
8.46883e-05
-0.00121777
8.12826e-05
-0.00125987
7.75727e-05
-0.00129979
7.35759e-05
-0.0013374
6.931e-05
-0.00137256
6.47924e-05
-0.00140514
6.00411e-05
-0.00143502
5.5074e-05
-0.0014621
4.99093e-05
-0.00148628
4.45654e-05
-0.00150747
3.90607e-05
-0.0015256
3.34141e-05
-0.00154059
2.76443e-05
-0.0015524
2.17706e-05
-0.00156097
1.58122e-05
-0.00156627
9.7884e-06
-0.00156828
3.71918e-06
-0.00156698
-2.37536e-06
-0.00156236
-8.4748e-06
-0.00155445
-1.45584e-05
-0.00154326
-2.06052e-05
-0.00152881
-2.65942e-05
-0.00151116
-3.25042e-05
-0.00149036
-3.83138e-05
-0.00146647
-4.40016e-05
-0.00143957
-4.95458e-05
-0.00140976
-5.4924e-05
-0.00137713
-6.01139e-05
-0.00134181
-6.50931e-05
-0.00130391
-6.9839e-05
-0.00126358
-7.43294e-05
-0.00122097
-7.85423e-05
-0.00117623
-8.24558e-05
-0.00112955
-8.6048e-05
-0.00108112
-8.92974e-05
-0.00103112
-9.21832e-05
-0.00097976
-9.46849e-05
-0.000927269
-9.6783e-05
-0.00087387
-9.84585e-05
-0.000819802
-9.96934e-05
-0.000765312
-0.00010047
-0.000710656
-0.000100774
-0.000656096
-0.000100588
-0.000601904
-9.99008e-05
-0.000548354
-9.86997e-05
-0.000495727
-9.69754e-05
-0.000444308
-9.47206e-05
-0.000394381
-9.19308e-05
-0.000346234
-8.8604e-05
-0.00030015
-8.47418e-05
-0.000256412
-8.03494e-05
-0.000215293
-7.54366e-05
-0.000177058
-7.00189e-05
-0.000141958
-6.41192e-05
-0.000110225
-5.77692e-05
-8.20661e-05
-5.10121e-05
-5.76553e-05
-4.39058e-05
-3.71231e-05
-3.65277e-05
-2.05426e-05
-2.89816e-05
-7.9123e-06
-2.14075e-05
8.68215e-07
-1.39948e-05
6.02803e-06
-7.00164e-06
7.96324e-06
-7.80394e-07
7.28336e-06
4.18952e-06
4.86092e-06
7.26757e-06
1.88113e-06
7.6232e-06
4.20024e-06
1.48063e-06
-5.71534e-06
3.20136e-06
-9.06468e-06
3.37316e-06
-6.70951e-06
7.52061e-07
-4.39686e-07
-5.57081e-06
8.54639e-06
-1.62332e-05
1.93352e-05
-3.16489e-05
3.12239e-05
-5.20489e-05
4.36826e-05
-7.75186e-05
5.63149e-05
-0.000108029
6.88245e-05
-0.000143463
8.09905e-05
-0.000183632
9.26486e-05
-0.000228297
0.000103677
-0.00027718
0.000113988
-0.000329971
0.000123516
-0.000386339
0.000132217
-0.000445939
0.000140062
-0.000508415
0.000147032
-0.000573406
0.000153119
-0.000640548
0.000158321
-0.000709479
0.000162643
-0.000779837
0.000166094
-0.000851266
0.000168688
-0.000923415
0.000170442
-0.000995942
0.000171373
-0.00106851
0.000171505
-0.0011408
0.000170859
-0.00121248
0.00016946
-0.00128327
0.000167334
-0.00135285
0.000164507
-0.00142095
0.000161007
-0.00148729
0.000156863
-0.00155162
0.000152102
-0.00161369
0.000146755
-0.00167326
0.000140851
-0.00173011
0.00013442
-0.00178402
0.000127491
-0.00183481
0.000120096
-0.00188228
0.000112265
-0.00192627
0.000104029
-0.00196661
9.54181e-05
-0.00200317
8.64652e-05
-0.0020358
7.72016e-05
-0.0020644
6.76594e-05
-0.00208886
5.78713e-05
-0.00210909
4.787e-05
-0.002125
3.76886e-05
-0.00213655
2.73606e-05
-0.00214368
1.69202e-05
-0.00214637
6.4016e-06
-0.00214458
-4.16018e-06
-0.00213833
-1.47297e-05
-0.00212761
-2.52712e-05
-0.00211247
-3.57484e-05
-0.00209294
-4.61247e-05
-0.00206908
-5.63632e-05
-0.00204097
-6.64268e-05
-0.00200869
-7.62778e-05
-0.00197236
-8.58782e-05
-0.00193209
-9.51899e-05
-0.00188803
-0.000104174
-0.00184033
-0.000112792
-0.00178917
-0.000121006
-0.00173472
-0.000128777
-0.00167719
-0.000136066
-0.00161681
-0.000142837
-0.00155381
-0.000149052
-0.00148843
-0.000154673
-0.00142095
-0.000159667
-0.00135164
-0.000163996
-0.00128079
-0.000167629
-0.00120872
-0.000170533
-0.00113573
-0.000172677
-0.00106217
-0.000174033
-0.000988371
-0.000174574
-0.000914684
-0.000174275
-0.00084147
-0.000173116
-0.000769093
-0.000171076
-0.000697927
-0.000168142
-0.000628345
-0.000164302
-0.000560725
-0.000159551
-0.000495442
-0.000153887
-0.00043287
-0.000147315
-0.000373372
-0.000139847
-0.000317305
-0.000131504
-0.000265008
-0.000122316
-0.000216801
-0.000112326
-0.000172976
-0.000101594
-0.00013379
-9.01979e-05
-9.94558e-05
-7.82404e-05
-7.01262e-05
-6.58572e-05
-4.58818e-05
-5.3226e-05
-2.67091e-05
-4.05801e-05
-1.24773e-05
-2.82267e-05
-2.90826e-06
-1.65706e-05
2.45775e-06
-6.1463e-06
4.30304e-06
2.34418e-06
3.57711e-06
7.99344e-06
1.55396e-06
9.64632e-06
5.75415e-06
7.83781e-07
-6.49909e-06
7.56939e-07
-9.03768e-06
-1.7722e-06
-4.18031e-06
-8.0236e-06
5.81161e-06
-1.89017e-05
1.94245e-05
-3.50523e-05
3.54858e-05
-5.69021e-05
5.30738e-05
-8.4695e-05
7.14754e-05
-0.000118522
9.01417e-05
-0.00015835
0.000108653
-0.000204047
0.000126688
-0.000255401
0.000144002
-0.000312135
0.000160412
-0.000373926
0.000175779
-0.000440412
0.000190002
-0.000511203
0.000203009
-0.000585888
0.000214748
-0.000664043
0.000225188
-0.000745235
0.00023431
-0.000829023
0.00024211
-0.00091497
0.00024859
-0.00100264
0.000253761
-0.00109159
0.000257641
-0.0011814
0.000260252
-0.00127165
0.000261622
-0.00136192
0.00026178
-0.00145182
0.000260761
-0.00154096
0.0002586
-0.00162897
0.000255335
-0.00171546
0.000251006
-0.00180011
0.000245654
-0.00188257
0.000239321
-0.00196252
0.00023205
-0.00203965
0.000223885
-0.00211367
0.000214872
-0.0021843
0.000205054
-0.00225129
0.000194479
-0.00231438
0.000183192
-0.00237336
0.00017124
-0.002428
0.00015867
-0.00247811
0.000145529
-0.00252351
0.000131866
-0.00256404
0.00011773
-0.00259955
0.000103169
-0.00262991
8.82324e-05
-0.00265501
7.29715e-05
-0.00267476
5.74365e-05
-0.00268908
4.16787e-05
-0.00269791
2.575e-05
-0.00270121
9.70308e-06
-0.00269896
-6.40864e-06
-0.00269116
-2.25311e-05
-0.00267782
-3.86097e-05
-0.00265898
-5.45892e-05
-0.00263469
-7.04137e-05
-0.00260503
-8.60266e-05
-0.00257008
-0.000101371
-0.00252997
-0.00011639
-0.00248482
-0.000131026
-0.00243479
-0.000145219
-0.00238006
-0.000158912
-0.0023208
-0.000172047
-0.00225725
-0.000184563
-0.00218962
-0.000196405
-0.00211817
-0.000207512
-0.00204318
-0.00021783
-0.00196493
-0.0002273
-0.00188373
-0.000235869
-0.00179992
-0.000243481
-0.00171383
-0.000250086
-0.00162583
-0.000255632
-0.00153629
-0.000260071
-0.00144561
-0.000263359
-0.00135419
-0.000265452
-0.00126245
-0.000266311
-0.00117083
-0.000265901
-0.00107975
-0.00026419
-0.000989675
-0.000261153
-0.000901048
-0.000256768
-0.000814328
-0.000251022
-0.000729972
-0.000243907
-0.000648433
-0.000235426
-0.00057016
-0.000225588
-0.000495592
-0.000214415
-0.000425152
-0.000201943
-0.000359246
-0.000188222
-0.000298249
-0.000173324
-0.000242503
-0.00015734
-0.000192308
-0.000140393
-0.000147907
-0.000122642
-0.000109474
-0.000104291
-7.70975e-05
-8.56022e-05
-5.07632e-05
-6.69145e-05
-3.03279e-05
-4.8662e-05
-1.54954e-05
-3.14032e-05
-5.78573e-06
-1.5856e-05
-5.01496e-07
-2.94017e-06
1.31092e-06
6.18098e-06
9.12818e-07
1.00444e-05
6.66694e-06
-8.66804e-08
-6.41245e-06
-2.2931e-06
-6.83151e-06
-8.10589e-06
1.6326e-06
-1.86412e-05
1.6347e-05
-3.4741e-05
3.55241e-05
-5.7014e-05
5.77589e-05
-8.58657e-05
8.19254e-05
-0.000121525
0.000107135
-0.000164071
0.000132688
-0.000213456
0.000158038
-0.000269529
0.00018276
-0.000332051
0.000206524
-0.000400714
0.000229074
-0.000475154
0.000250219
-0.000554964
0.000269812
-0.000639703
0.000287748
-0.000728905
0.00030395
-0.000822085
0.000318368
-0.000918747
0.000330972
-0.00101839
0.000341749
-0.00112049
0.000350699
-0.00122457
0.000357833
-0.0013301
0.000363174
-0.0014366
0.000366748
-0.00154357
0.000368592
-0.00165053
0.000368745
-0.00175702
0.000367253
-0.00186259
0.000364164
-0.00196678
0.000359529
-0.00206918
0.000353404
-0.00216937
0.000345844
-0.00226696
0.000336908
-0.00236156
0.000326655
-0.00245282
0.000315147
-0.0025404
0.000302447
-0.00262396
0.000288616
-0.0027032
0.00027372
-0.00277783
0.000257823
-0.00284758
0.000240991
-0.0029122
0.00022329
-0.00297146
0.000204787
-0.00302514
0.000185549
-0.00307306
0.000165645
-0.00311504
0.000145144
-0.00315092
0.000124117
-0.00318058
0.000102633
-0.00320391
8.0764e-05
-0.00322081
5.85829e-05
-0.00323123
3.61626e-05
-0.0032351
1.35774e-05
-0.00323241
-9.09766e-06
-0.00322316
-3.17866e-05
-0.00320735
-5.44123e-05
-0.00318505
-7.68969e-05
-0.0031563
-9.91619e-05
-0.0031212
-0.000121128
-0.00307985
-0.000142715
-0.0030324
-0.000163842
-0.002979
-0.000184428
-0.00291983
-0.000204391
-0.00285509
-0.000223649
-0.00278501
-0.000242121
-0.00270985
-0.000259724
-0.00262988
-0.000276377
-0.00254539
-0.000292
-0.00245671
-0.000306512
-0.00236418
-0.000319835
-0.00226815
-0.000331893
-0.00216902
-0.000342611
-0.00206719
-0.000351916
-0.00196308
-0.000359739
-0.00185714
-0.000366012
-0.00174983
-0.000370675
-0.00164161
-0.000373669
-0.00153298
-0.000374939
-0.00142444
-0.000374439
-0.00131651
-0.000372127
-0.00120969
-0.000367969
-0.00110452
-0.000361938
-0.00100153
-0.000354017
-0.000901233
-0.000344201
-0.000804166
-0.000332493
-0.00071084
-0.000318913
-0.000621758
-0.000303497
-0.000537404
-0.000286297
-0.000458237
-0.00026739
-0.000384683
-0.000246877
-0.00031713
-0.000224893
-0.000255911
-0.000201612
-0.0002013
-0.000177253
-0.000153493
-0.000152097
-0.000112595
-0.0001265
-7.86e-05
-0.000100909
-5.13728e-05
-7.58892e-05
-3.06254e-05
-5.21506e-05
-1.5893e-05
-3.05884e-05
-6.50757e-06
-1.23257e-05
-1.5681e-06
1.2415e-06
9.58711e-08
8.38037e-06
6.76283e-06
-1.04518e-06
-5.36727e-06
-5.69146e-06
-2.18523e-06
-1.51683e-05
1.11093e-05
-3.04362e-05
3.16149e-05
-5.22337e-05
5.73217e-05
-8.10967e-05
8.66218e-05
-0.00011738
0.000118209
-0.000161276
0.00015103
-0.000212833
0.000184245
-0.000271978
0.000217184
-0.000338532
0.000249314
-0.000412227
0.000280219
-0.000492722
0.00030957
-0.000579617
0.000337114
-0.000672463
0.000362658
-0.000770772
0.000386057
-0.000874029
0.000407207
-0.000981697
0.000426036
-0.00109322
0.000442498
-0.00120805
0.000456571
-0.0013256
0.00046825
-0.00144531
0.000477546
-0.00156662
0.000484482
-0.00168896
0.000489094
-0.00181179
0.000491423
-0.00193457
0.00049152
-0.00205676
0.000489443
-0.00217785
0.000485254
-0.00229734
0.000479018
-0.00241474
0.000470807
-0.00252959
0.000460694
-0.00264144
0.000448756
-0.00274986
0.00043507
-0.00285443
0.000419718
-0.00295476
0.000402781
-0.00305049
0.000384343
-0.00314126
0.000364488
-0.00322673
0.000343303
-0.00330662
0.000320874
-0.00338062
0.00029729
-0.00344847
0.000272639
-0.00350993
0.000247012
-0.00356479
0.000220499
-0.00361284
0.000193193
-0.0036539
0.000165187
-0.00368785
0.000136574
-0.00371453
0.000107451
-0.00373386
7.79137e-05
-0.00374576
4.80596e-05
-0.00375017
1.79876e-05
-0.00374707
-1.22023e-05
-0.00373645
-4.24086e-05
-0.00371833
-7.25292e-05
-0.00369276
-0.00010246
-0.00365983
-0.000132098
-0.00361962
-0.000161335
-0.00357227
-0.000190066
-0.00351793
-0.000218185
-0.00345677
-0.000245581
-0.00338902
-0.000272149
-0.00331489
-0.000297778
-0.00323465
-0.00032236
-0.00314859
-0.000345787
-0.00305701
-0.000367951
-0.00296027
-0.000388747
-0.00285871
-0.000408068
-0.00275273
-0.000425811
-0.00264275
-0.000441876
-0.0025292
-0.000456163
-0.00241254
-0.000468578
-0.00229325
-0.00047903
-0.00217183
-0.000487433
-0.0020488
-0.000493704
-0.0019247
-0.000497769
-0.00180008
-0.000499558
-0.00167551
-0.000499011
-0.00155156
-0.000496075
-0.00142882
-0.000490708
-0.00130788
-0.000482877
-0.00118933
-0.000472565
-0.00107377
-0.000459764
-0.000961775
-0.000444488
-0.000853924
-0.000426765
-0.000750776
-0.000406645
-0.000652868
-0.000384205
-0.000560709
-0.000359549
-0.000474771
-0.000332815
-0.000395481
-0.000304184
-0.000323208
-0.000273884
-0.000258257
-0.000242204
-0.00020085
-0.000209505
-0.000151115
-0.000176235
-0.000109069
-0.000142955
-7.46016e-05
-0.000110356
-4.74563e-05
-7.92959e-05
-2.72121e-05
-5.08326e-05
-1.32646e-05
-2.62731e-05
-4.80784e-06
-7.21533e-06
-8.13662e-07
4.38615e-06
5.94921e-06
-2.04068e-06
-3.32643e-06
-9.26805e-06
5.04208e-06
-2.26401e-05
2.44814e-05
-4.29333e-05
5.19082e-05
-7.07523e-05
8.51406e-05
-0.000106536
0.000122405
-0.000150564
0.000162237
-0.000202973
0.000203439
-0.000263766
0.000245039
-0.000332833
0.00028625
-0.000409957
0.000326438
-0.000494837
0.000365099
-0.000587096
0.000401829
-0.000686298
0.000436315
-0.000791952
0.000468312
-0.000903529
0.000497635
-0.00102047
0.000524147
-0.00114219
0.000547752
-0.00126808
0.000568388
-0.00139753
0.000586021
-0.00152991
0.000600638
-0.00166462
0.000612251
-0.00180102
0.000620882
-0.0019385
0.000626573
-0.00207645
0.000629374
-0.00221428
0.000629346
-0.00235139
0.000626559
-0.00248723
0.000621089
-0.00262123
0.000613018
-0.00275285
0.000602436
-0.00288159
0.000589433
-0.00300694
0.000574105
-0.00312842
0.000556551
-0.00324558
0.000536873
-0.00335797
0.000515174
-0.00346519
0.000491561
-0.00356684
0.00046614
-0.00366256
0.000439023
-0.003752
0.000410318
-0.00383485
0.000380138
-0.00391081
0.000348598
-0.00397961
0.000315811
-0.00404101
0.000281895
-0.00409478
0.000246967
-0.00414074
0.000211145
-0.00417872
0.000174551
-0.00420857
0.000137306
-0.00423019
9.9533e-05
-0.00424349
6.13576e-05
-0.00424841
2.29058e-05
-0.00424491
-1.56946e-05
-0.00423301
-5.43142e-05
-0.00421272
-9.28221e-05
-0.00418409
-0.000131086
-0.00414721
-0.000168973
-0.0041022
-0.000206347
-0.00404919
-0.000243074
-0.00398836
-0.000279015
-0.00391991
-0.000314035
-0.00384407
-0.000347994
-0.00376109
-0.000380754
-0.00367127
-0.000412179
-0.00357493
-0.000442129
-0.00347241
-0.000470468
-0.0033641
-0.000497062
-0.00325039
-0.000521777
-0.00313172
-0.000544482
-0.00300854
-0.00056505
-0.00288135
-0.000583355
-0.00275065
-0.00059928
-0.00261697
-0.000612708
-0.00248087
-0.000623531
-0.00234293
-0.000631648
-0.00220373
-0.000636965
-0.00206389
-0.000639396
-0.00192404
-0.000638866
-0.0017848
-0.000635311
-0.00164683
-0.000628681
-0.00151077
-0.000618938
-0.00137727
-0.000606062
-0.00124699
-0.000590049
-0.00112055
-0.000570919
-0.000998605
-0.000548714
-0.000881749
-0.000523501
-0.000770572
-0.000495382
-0.000665629
-0.000464492
-0.000567434
-0.00043101
-0.000476452
-0.000395165
-0.000393092
-0.000357245
-0.000317689
-0.000317607
-0.000250499
-0.000276695
-0.000191681
-0.000235053
-0.000141289
-0.000193348
-9.92519e-05
-0.000152394
-6.53637e-05
-0.000113184
-3.927e-05
-7.69263e-05
-2.04565e-05
-4.50866e-05
-8.24014e-06
-1.94318e-05
-1.76489e-06
-2.0891e-06
4.18432e-06
-3.04193e-06
-2.8458e-07
-1.29137e-05
1.49139e-05
-3.03053e-05
4.18731e-05
-5.57969e-05
7.73999e-05
-8.98436e-05
0.000119187
-0.000132766
0.000165328
-0.000184756
0.000214226
-0.000245875
0.000264558
-0.000316069
0.000315233
-0.000395177
0.000365357
-0.000482939
0.000414201
-0.000579014
0.000461174
-0.000682987
0.000505802
-0.000794378
0.000547707
-0.000912661
0.000586595
-0.00103726
0.000622238
-0.00116758
0.000654466
-0.00130299
0.000683157
-0.00144283
0.000708229
-0.00158644
0.000729636
-0.00173316
0.000747358
-0.00188231
0.000761402
-0.00203323
0.000771794
-0.00218523
0.000778578
-0.00233767
0.000781813
-0.0024899
0.000781572
-0.00264127
0.000777935
-0.00279118
0.000770996
-0.00293901
0.000760852
-0.00308419
0.000747611
-0.00322614
0.000731384
-0.00336432
0.000712289
-0.00349822
0.000690444
-0.00362732
0.000665975
-0.00375116
0.00063901
-0.00386927
0.000609678
-0.00398125
0.000578112
-0.00408667
0.000544447
-0.00418517
0.00050882
-0.0042764
0.000471369
-0.00436004
0.000432234
-0.00443579
0.000391558
-0.00450338
0.000349486
-0.00456257
0.000306161
-0.00461316
0.000261733
-0.00465496
0.000216349
-0.00468781
0.000170162
-0.0047116
0.000123323
-0.00472623
7.59878e-05
-0.00473164
2.83123e-05
-0.00472779
-1.9545e-05
-0.00471468
-6.74239e-05
-0.00469234
-0.000115163
-0.00466083
-0.000162597
-0.00462024
-0.000209563
-0.00457069
-0.000255893
-0.00451235
-0.000301419
-0.00444539
-0.000345973
-0.00437004
-0.000389384
-0.00428655
-0.000431482
-0.00419521
-0.000472097
-0.00409633
-0.000511059
-0.00399026
-0.000548198
-0.00387739
-0.000583346
-0.00375811
-0.000616337
-0.00363288
-0.000647008
-0.00350217
-0.000675197
-0.00336647
-0.000700747
-0.00322632
-0.000723508
-0.00308226
-0.000743332
-0.00293489
-0.000760079
-0.00278481
-0.000773618
-0.00263263
-0.000783824
-0.00247901
-0.000790584
-0.00232461
-0.000793796
-0.00217011
-0.000793369
-0.00201619
-0.000789227
-0.00186356
-0.000781312
-0.00171292
-0.00076958
-0.00156497
-0.000754011
-0.00142041
-0.000734604
-0.00127995
-0.000711388
-0.00114424
-0.000684417
-0.00101396
-0.000653781
-0.000889739
-0.000619605
-0.00077217
-0.000582061
-0.000661812
-0.000541368
-0.00055917
-0.000497807
-0.000464689
-0.000451725
-0.000378745
-0.000403551
-0.000301632
-0.000353809
-0.000233549
-0.000303135
-0.000174597
-0.0002523
-0.000124758
-0.000202233
-8.38926e-05
-0.000154049
-5.17309e-05
-0.000109088
-2.7866e-05
-6.89517e-05
-1.17551e-05
-3.55427e-05
-2.72714e-06
-1.11171e-05
1.45716e-06
-4.03159e-06
3.74707e-06
-1.65587e-05
2.7441e-05
-3.80191e-05
6.33335e-05
-6.87961e-05
0.000108177
-0.000109185
0.000159576
-0.00015938
0.000215523
-0.000219467
0.000274313
-0.000289425
0.000334517
-0.000369131
0.000394939
-0.000458363
0.000454589
-0.00055681
0.000512648
-0.000664083
0.000568448
-0.000779725
0.000621443
-0.000903214
0.000671196
-0.00103398
0.000717362
-0.00117141
0.000759671
-0.00131487
0.000797918
-0.00146366
0.000831955
-0.00161712
0.000861681
-0.00177451
0.000887033
-0.00193514
0.000907987
-0.00209828
0.000924543
-0.00226322
0.000936729
-0.00242923
0.000944593
-0.00259562
0.000948203
-0.00276169
0.000947641
-0.00292676
0.000943002
-0.00309016
0.000934394
-0.00325124
0.000921934
-0.00340938
0.000905748
-0.00356396
0.000885967
-0.0037144
0.00086273
-0.00386014
0.000836183
-0.00400064
0.000806473
-0.00413538
0.000773753
-0.00426388
0.000738179
-0.00438568
0.00069991
-0.00450034
0.00065911
-0.00460746
0.000615941
-0.00470666
0.000570572
-0.0047976
0.000523172
-0.00487996
0.000473912
-0.00495344
0.000422966
-0.00501779
0.000370511
-0.00507278
0.000316724
-0.00511821
0.000261785
-0.00515393
0.000205877
-0.00517979
0.000149185
-0.0051957
9.18941e-05
-0.00520158
3.4195e-05
-0.0051974
-2.37215e-05
-0.00518316
-8.16621e-05
-0.0051589
-0.000139431
-0.00512466
-0.000196832
-0.00508056
-0.000253664
-0.00502673
-0.000309726
-0.00496333
-0.000364817
-0.00489057
-0.000418732
-0.00480869
-0.000471267
-0.00471795
-0.000522217
-0.00461867
-0.000571376
-0.00451119
-0.000618541
-0.00439588
-0.000663507
-0.00427316
-0.000706072
-0.00414346
-0.000746037
-0.00400726
-0.000783205
-0.00386507
-0.000817384
-0.00371743
-0.000848387
-0.00356491
-0.00087603
-0.0034081
-0.00090014
-0.00324763
-0.000920549
-0.00308415
-0.000937101
-0.00291832
-0.000949648
-0.00275085
-0.000958056
-0.00258244
-0.000962203
-0.00241383
-0.000961986
-0.00224574
-0.000957314
-0.00207893
-0.00094812
-0.00191415
-0.000934358
-0.00175216
-0.000916003
-0.0015937
-0.000893063
-0.00143952
-0.000865571
-0.00129034
-0.0008336
-0.00114686
-0.000797259
-0.00100976
-0.000756702
-0.000879689
-0.000712134
-0.000757238
-0.00066382
-0.000642955
-0.00061209
-0.000537329
-0.000557351
-0.000440776
-0.000500103
-0.000353636
-0.000440949
-0.000276159
-0.000380612
-0.000208499
-0.00031996
-0.000150706
-0.000260026
-0.000102718
-0.000202037
-6.43607e-05
-0.000147445
-3.53467e-05
-9.79658e-05
-1.52822e-05
-5.56072e-05
-3.68223e-06
-2.27171e-05
-2.22506e-06
-5.00023e-06
8.74733e-06
-2.01612e-05
4.2602e-05
-4.56889e-05
8.88612e-05
-8.17743e-05
0.000144262
-0.000128553
0.000206354
-0.000186084
0.000273054
-0.000254343
0.000342572
-0.000333216
0.000413389
-0.000422499
0.000484222
-0.000521903
0.000553993
-0.00063106
0.000621805
-0.000749527
0.000686915
-0.000876797
0.000748713
-0.00101231
0.000806705
-0.00115544
0.000860496
-0.00130554
0.000909775
-0.00146193
0.000954304
-0.00162388
0.000993907
-0.00179067
0.00102846
-0.00196153
0.0010579
-0.00213572
0.00108217
-0.00231247
0.00110129
-0.00249102
0.00111528
-0.00267061
0.00112419
-0.00285049
0.00112809
-0.00302993
0.00112708
-0.00320821
0.00112127
-0.0033846
0.00111079
-0.00355843
0.00109576
-0.00372902
0.00107634
-0.00389573
0.00105268
-0.00405793
0.00102493
-0.00421503
0.000993276
-0.00436644
0.000957885
-0.00451162
0.000918936
-0.00465006
0.000876613
-0.00478125
0.000831105
-0.00490474
0.000782602
-0.0050201
0.000731298
-0.00512692
0.000677392
-0.00522483
0.000621084
-0.0053135
0.000562576
-0.0053926
0.000502074
-0.00546188
0.000439787
-0.00552108
0.000375925
-0.00557
0.000310701
-0.00560845
0.000244331
-0.0056363
0.000177035
-0.00565344
0.000109033
-0.00565979
4.05493e-05
-0.00565533
-2.81901e-05
-0.00564003
-9.69561e-05
-0.00561395
-0.000165517
-0.00557714
-0.00023364
-0.00552971
-0.000301089
-0.00547181
-0.000367625
-0.00540362
-0.00043301
-0.00532535
-0.000497003
-0.00523725
-0.000559363
-0.00513962
-0.000619847
-0.00503279
-0.000678213
-0.00491711
-0.000734219
-0.00479299
-0.000787626
-0.00466086
-0.000838196
-0.00452121
-0.000885694
-0.00437453
-0.000929887
-0.00422136
-0.000970551
-0.00406228
-0.00100746
-0.0038979
-0.00104041
-0.00372884
-0.00106919
-0.00355578
-0.00109361
-0.00337941
-0.00111348
-0.00320043
-0.00112862
-0.00301959
-0.0011389
-0.00283764
-0.00114415
-0.00265536
-0.00114427
-0.00247352
-0.00113915
-0.00229293
-0.00112871
-0.00211438
-0.00111291
-0.00193868
-0.00109171
-0.00176661
-0.00106513
-0.00159897
-0.00103321
-0.00143652
-0.000996047
-0.00128002
-0.000953761
-0.00113018
-0.000906539
-0.000987697
-0.00085462
-0.000853204
-0.000798313
-0.000727295
-0.000737998
-0.000610504
-0.000674143
-0.000503294
-0.000607313
-0.000406057
-0.000538186
-0.0003191
-0.000467569
-0.000242641
-0.00039642
-0.000176803
-0.000325864
-0.000121613
-0.000257227
-7.70005e-05
-0.000192058
-4.28031e-05
-0.000132163
-1.87776e-05
-7.96326e-05
-4.61978e-06
-3.68749e-05
-6.84478e-06
-5.94301e-06
1.46904e-05
-2.36964e-05
6.03555e-05
-5.32563e-05
0.000118421
-9.46308e-05
0.000185637
-0.000147797
0.00025952
-0.000212679
0.000337936
-0.000289135
0.000419029
-0.000376953
0.000501207
-0.000475842
0.000583111
-0.00058544
0.000663591
-0.000705312
0.000741678
-0.00083496
0.000816562
-0.000973821
0.000887575
-0.00112128
0.000954168
-0.00127669
0.0010159
-0.00143933
0.00107242
-0.00160849
0.00112346
-0.0017834
0.00116882
-0.00196329
0.00120835
-0.00214736
0.00124197
-0.00233482
0.00126963
-0.00252486
0.00129133
-0.00271668
0.0013071
-0.00290949
0.00131699
-0.00310248
0.00132109
-0.0032949
0.0013195
-0.00348597
0.00131234
-0.00367494
0.00129976
-0.00386108
0.00128191
-0.0040437
0.00125896
-0.00422211
0.00123108
-0.00439564
0.00119846
-0.00456367
0.0011613
-0.00472558
0.0011198
-0.0048808
0.00107416
-0.00502878
0.00102459
-0.005169
0.000971324
-0.00530097
0.000914572
-0.00542423
0.000854561
-0.00553836
0.000791523
-0.00564297
0.000725689
-0.00573769
0.000657296
-0.0058222
0.000586583
-0.0058962
0.000513793
-0.00595945
0.00043917
-0.00601171
0.000362964
-0.0060528
0.000285425
-0.00608258
0.000206809
-0.00610092
0.000127373
-0.00610774
4.73769e-05
-0.00610302
-3.29145e-05
-0.00608674
-0.000113235
-0.00605894
-0.000193316
-0.0060197
-0.000272885
-0.00596912
-0.000351668
-0.00590735
-0.000429389
-0.00583459
-0.000505768
-0.00575107
-0.000580527
-0.00565705
-0.000653384
-0.00555284
-0.000724059
-0.00543878
-0.00079227
-0.00531526
-0.000857736
-0.00518271
-0.00092018
-0.00504158
-0.000979325
-0.00489237
-0.0010349
-0.00473563
-0.00108663
-0.00457191
-0.00113427
-0.00440183
-0.00117755
-0.00422602
-0.00121622
-0.00404516
-0.00125006
-0.00385994
-0.00127883
-0.0036711
-0.00130232
-0.00347939
-0.00132034
-0.00328558
-0.0013327
-0.00309048
-0.00133926
-0.00289489
-0.00133985
-0.00269966
-0.00133439
-0.0025056
-0.00132277
-0.00231358
-0.00130493
-0.00212442
-0.00128086
-0.00193898
-0.00125057
-0.00175808
-0.00121411
-0.00158254
-0.00117159
-0.00141314
-0.00112315
-0.00125067
-0.00106902
-0.00109584
-0.00100945
-0.000949339
-0.00094481
-0.000811815
-0.000875522
-0.000683845
-0.000802113
-0.000565948
-0.00072521
-0.00045857
-0.000645563
-0.000362082
-0.000564057
-0.000276773
-0.000481728
-0.000202848
-0.00039979
-0.000140426
-0.000319649
-8.95471e-05