/*--------------------------------*- C++ -*----------------------------------*\
  =========                 |
  \\      /  F ield         | OpenFOAM: The Open Source CFD Toolbox
   \\    /   O peration     | Website:  https://openfoam.org
    \\  /    A nd           | Version:  11
     \\/     M anipulation  |
\*---------------------------------------------------------------------------*/
FoamFile
{
    format      ascii;
    class       volVectorField;
    location    "6.5";
    object      U;
}
// * * * * * * * * * * * * * * * * * * * * * * * * * * * * * * * * * * * * * //

dimensions      [0 1 -1 0 0 0 0];

internalField   nonuniform List<vector> 
10100
(
(2.99838e-06 -3.00296e-06 0)
(1.45988e-05 -7.43591e-06 0)
(3.27107e-05 -8.36944e-06 0)
(4.94739e-05 -7.09315e-06 0)
(6.01853e-05 -4.65891e-06 0)
(6.26193e-05 -1.66163e-06 0)
(5.56312e-05 1.55239e-06 0)
(3.86948e-05 4.80326e-06 0)
(1.16973e-05 7.99745e-06 0)
(-2.51951e-05 1.10646e-05 0)
(-7.16388e-05 1.39769e-05 0)
(-0.000127175 1.67063e-05 0)
(-0.000191274 1.92404e-05 0)
(-0.000263329 2.15725e-05 0)
(-0.000342723 2.36935e-05 0)
(-0.000428812 2.56081e-05 0)
(-0.000520922 2.73216e-05 0)
(-0.000618411 2.88332e-05 0)
(-0.000720616 3.01447e-05 0)
(-0.000826874 3.12585e-05 0)
(-0.000936553 3.21777e-05 0)
(-0.00104902 3.29091e-05 0)
(-0.00116364 3.34639e-05 0)
(-0.00127983 3.38494e-05 0)
(-0.001397 3.40658e-05 0)
(-0.00151457 3.41157e-05 0)
(-0.001632 3.40033e-05 0)
(-0.00174874 3.37332e-05 0)
(-0.00186428 3.33125e-05 0)
(-0.00197812 3.27497e-05 0)
(-0.00208979 3.20531e-05 0)
(-0.00219884 3.12271e-05 0)
(-0.00230483 3.02777e-05 0)
(-0.00240734 2.92135e-05 0)
(-0.002506 2.804e-05 0)
(-0.00260042 2.67611e-05 0)
(-0.00269027 2.53824e-05 0)
(-0.0027752 2.39118e-05 0)
(-0.00285491 2.23555e-05 0)
(-0.00292912 2.07177e-05 0)
(-0.00299755 1.9005e-05 0)
(-0.00305996 1.72243e-05 0)
(-0.00311613 1.53821e-05 0)
(-0.00316586 1.34858e-05 0)
(-0.00320897 1.15412e-05 0)
(-0.0032453 9.55388e-06 0)
(-0.00327472 7.53155e-06 0)
(-0.00329711 5.48025e-06 0)
(-0.00331238 3.40505e-06 0)
(-0.00332048 1.3133e-06 0)
(-0.00332135 -7.86837e-07 0)
(-0.00331497 -2.88818e-06 0)
(-0.00330136 -4.98343e-06 0)
(-0.00328054 -7.06537e-06 0)
(-0.00325257 -9.12798e-06 0)
(-0.00321754 -1.11648e-05 0)
(-0.00317553 -1.31679e-05 0)
(-0.00312669 -1.51303e-05 0)
(-0.00307117 -1.70463e-05 0)
(-0.00300914 -1.89083e-05 0)
(-0.00294082 -2.07073e-05 0)
(-0.00286643 -2.2435e-05 0)
(-0.00278624 -2.40841e-05 0)
(-0.00270054 -2.56461e-05 0)
(-0.00260964 -2.71132e-05 0)
(-0.00251388 -2.84784e-05 0)
(-0.00241364 -2.97341e-05 0)
(-0.0023093 -3.08716e-05 0)
(-0.00220128 -3.18828e-05 0)
(-0.00209003 -3.27611e-05 0)
(-0.00197603 -3.35e-05 0)
(-0.00185976 -3.40921e-05 0)
(-0.00174174 -3.45299e-05 0)
(-0.00162251 -3.48059e-05 0)
(-0.00150262 -3.49141e-05 0)
(-0.00138267 -3.48482e-05 0)
(-0.00126325 -3.46012e-05 0)
(-0.00114499 -3.41659e-05 0)
(-0.00102851 -3.3537e-05 0)
(-0.000914462 -3.27109e-05 0)
(-0.000803511 -3.16849e-05 0)
(-0.00069632 -3.04568e-05 0)
(-0.000593558 -2.90248e-05 0)
(-0.000495896 -2.73869e-05 0)
(-0.000404004 -2.55413e-05 0)
(-0.000318545 -2.34866e-05 0)
(-0.00024017 -2.12242e-05 0)
(-0.000169509 -1.87597e-05 0)
(-0.000107158 -1.61017e-05 0)
(-5.36672e-05 -1.32616e-05 0)
(-9.52071e-06 -1.02558e-05 0)
(2.48877e-05 -7.10937e-06 0)
(4.92942e-05 -3.86419e-06 0)
(6.36264e-05 -5.90203e-07 0)
(6.81022e-05 2.59467e-06 0)
(6.33836e-05 5.4878e-06 0)
(5.07903e-05 7.7408e-06 0)
(3.27516e-05 8.73224e-06 0)
(1.4133e-05 7.40128e-06 0)
(2.7628e-06 2.7636e-06 0)
(7.65252e-06 -1.4659e-05 0)
(3.05517e-05 -3.0211e-05 0)
(6.08177e-05 -3.16454e-05 0)
(8.45157e-05 -2.36871e-05 0)
(9.2705e-05 -9.98873e-06 0)
(8.02663e-05 7.00894e-06 0)
(4.40233e-05 2.57403e-05 0)
(-1.77546e-05 4.51562e-05 0)
(-0.00010574 6.45889e-05 0)
(-0.00021983 8.35948e-05 0)
(-0.0003594 0.000101859 0)
(-0.000523454 0.00011918 0)
(-0.000710697 0.000135421 0)
(-0.000919673 0.000150482 0)
(-0.00114877 0.0001643 0)
(-0.00139629 0.000176847 0)
(-0.00166051 0.000188101 0)
(-0.00193963 0.000198061 0)
(-0.00223186 0.000206734 0)
(-0.00253541 0.000214127 0)
(-0.00284849 0.000220257 0)
(-0.00316936 0.000225152 0)
(-0.00349628 0.000228839 0)
(-0.00382757 0.00023135 0)
(-0.00416158 0.000232717 0)
(-0.00449669 0.000232974 0)
(-0.00483134 0.000232153 0)
(-0.00516404 0.000230289 0)
(-0.00549331 0.000227422 0)
(-0.00581776 0.000223592 0)
(-0.00613603 0.000218841 0)
(-0.00644684 0.000213209 0)
(-0.00674894 0.000206738 0)
(-0.00704117 0.000199471 0)
(-0.00732239 0.000191449 0)
(-0.00759155 0.000182712 0)
(-0.00784766 0.000173301 0)
(-0.00808977 0.000163258 0)
(-0.008317 0.000152623 0)
(-0.00852852 0.000141439 0)
(-0.00872359 0.000129746 0)
(-0.00890149 0.000117588 0)
(-0.00906159 0.00010501 0)
(-0.00920331 9.20535e-05 0)
(-0.00932614 7.87638e-05 0)
(-0.00942963 6.51856e-05 0)
(-0.00951341 5.13632e-05 0)
(-0.00957713 3.73406e-05 0)
(-0.00962056 2.31621e-05 0)
(-0.0096435 8.87377e-06 0)
(-0.00964584 -5.47572e-06 0)
(-0.00962752 -1.9837e-05 0)
(-0.00958856 -3.41608e-05 0)
(-0.00952905 -4.83982e-05 0)
(-0.00944914 -6.25006e-05 0)
(-0.00934907 -7.64195e-05 0)
(-0.00922913 -9.01064e-05 0)
(-0.00908971 -0.000103512 0)
(-0.00893125 -0.000116586 0)
(-0.00875428 -0.000129277 0)
(-0.00855938 -0.000141528 0)
(-0.00834724 -0.000153286 0)
(-0.00811861 -0.000164498 0)
(-0.00787431 -0.000175111 0)
(-0.00761525 -0.000185072 0)
(-0.0073424 -0.000194331 0)
(-0.00705681 -0.000202834 0)
(-0.00675961 -0.000210529 0)
(-0.006452 -0.000217364 0)
(-0.00613524 -0.00022329 0)
(-0.00581067 -0.000228263 0)
(-0.0054797 -0.000232234 0)
(-0.00514379 -0.000235159 0)
(-0.00480447 -0.000236994 0)
(-0.00446332 -0.000237698 0)
(-0.00412198 -0.000237234 0)
(-0.00378214 -0.000235562 0)
(-0.00344553 -0.000232651 0)
(-0.00311392 -0.000228471 0)
(-0.00278911 -0.000223002 0)
(-0.00247293 -0.000216227 0)
(-0.00216721 -0.000208138 0)
(-0.00187379 -0.000198729 0)
(-0.0015945 -0.000188003 0)
(-0.00133117 -0.000175969 0)
(-0.00108555 -0.00016265 0)
(-0.000859374 -0.000148083 0)
(-0.000654261 -0.000132328 0)
(-0.000471726 -0.000115468 0)
(-0.000313113 -9.76197e-05 0)
(-0.000179545 -7.89471e-05 0)
(-7.1842e-05 -5.96795e-05 0)
(9.58408e-06 -4.0146e-05 0)
(6.48864e-05 -2.08271e-05 0)
(9.50052e-05 -2.43692e-06 0)
(0.000101976 1.39519e-05 0)
(8.92726e-05 2.67212e-05 0)
(6.23615e-05 3.34217e-05 0)
(3.0477e-05 3.04788e-05 0)
(7.38932e-06 1.4126e-05 0)
(8.90109e-06 -3.32944e-05 0)
(3.28553e-05 -6.0781e-05 0)
(5.98195e-05 -5.82099e-05 0)
(7.31939e-05 -3.52078e-05 0)
(6.20847e-05 1.29224e-06 0)
(1.97779e-05 4.62944e-05 0)
(-5.8146e-05 9.61381e-05 0)
(-0.000174345 0.000148282 0)
(-0.000329987 0.000200916 0)
(-0.000525168 0.000252765 0)
(-0.000759153 0.000302927 0)
(-0.00103059 0.000350765 0)
(-0.0013377 0.00039582 0)
(-0.00167836 0.000437774 0)
(-0.00205019 0.000476416 0)
(-0.00245068 0.000511594 0)
(-0.00287717 0.000543229 0)
(-0.00332692 0.000571284 0)
(-0.00379719 0.00059574 0)
(-0.00428519 0.00061662 0)
(-0.00478814 0.000633962 0)
(-0.0053033 0.000647812 0)
(-0.00582795 0.000658239 0)
(-0.00635942 0.000665323 0)
(-0.00689511 0.000669146 0)
(-0.00743247 0.0006698 0)
(-0.00796902 0.000667384 0)
(-0.00850238 0.000661998 0)
(-0.00903021 0.000653747 0)
(-0.00955028 0.000642742 0)
(-0.0100604 0.000629095 0)
(-0.0105586 0.000612919 0)
(-0.0110428 0.00059433 0)
(-0.0115112 0.000573449 0)
(-0.011962 0.000550392 0)
(-0.0123934 0.000525274 0)
(-0.0128039 0.000498216 0)
(-0.0131919 0.000469337 0)
(-0.0135561 0.000438755 0)
(-0.0138951 0.000406589 0)
(-0.0142077 0.000372964 0)
(-0.0144927 0.000338001 0)
(-0.0147492 0.000301824 0)
(-0.0149763 0.00026456 0)
(-0.0151731 0.000226334 0)
(-0.0153388 0.000187274 0)
(-0.0154729 0.000147512 0)
(-0.0155749 0.000107175 0)
(-0.0156443 6.63942e-05 0)
(-0.0156809 2.53037e-05 0)
(-0.0156845 -1.59607e-05 0)
(-0.0156549 -5.72605e-05 0)
(-0.0155923 -9.84531e-05 0)
(-0.0154967 -0.000139397 0)
(-0.0153684 -0.000179951 0)
(-0.0152078 -0.000219974 0)
(-0.0150153 -0.000259321 0)
(-0.0147917 -0.000297846 0)
(-0.0145375 -0.000335405 0)
(-0.0142538 -0.000371846 0)
(-0.0139413 -0.000407015 0)
(-0.0136012 -0.000440759 0)
(-0.0132348 -0.000472925 0)
(-0.0128433 -0.000503363 0)
(-0.0124282 -0.000531923 0)
(-0.011991 -0.000558457 0)
(-0.0115335 -0.000582815 0)
(-0.0110575 -0.000604849 0)
(-0.0105648 -0.000624417 0)
(-0.0100575 -0.00064138 0)
(-0.00953768 -0.000655604 0)
(-0.00900766 -0.000666959 0)
(-0.00846972 -0.000675321 0)
(-0.0079263 -0.000680569 0)
(-0.00737993 -0.000682593 0)
(-0.00683319 -0.000681289 0)
(-0.00628876 -0.000676562 0)
(-0.00574936 -0.000668327 0)
(-0.00521778 -0.000656516 0)
(-0.00469684 -0.000641075 0)
(-0.0041894 -0.000621966 0)
(-0.00369832 -0.000599173 0)
(-0.00322647 -0.000572697 0)
(-0.00277668 -0.000542566 0)
(-0.00235173 -0.000508835 0)
(-0.00195433 -0.000471597 0)
(-0.00158706 -0.000430994 0)
(-0.00125235 -0.000387228 0)
(-0.000952424 -0.000340578 0)
(-0.000689203 -0.000291425 0)
(-0.000464238 -0.000240285 0)
(-0.000278586 -0.000187858 0)
(-0.000132654 -0.000135109 0)
(-2.59971e-05 -8.33733e-05 0)
(4.29524e-05 -3.45145e-05 0)
(7.72311e-05 8.85349e-06 0)
(8.167e-05 4.30771e-05 0)
(6.3361e-05 6.31362e-05 0)
(3.35091e-05 6.23753e-05 0)
(8.72613e-06 3.27345e-05 0)
(7.78115e-06 -5.09491e-05 0)
(2.54769e-05 -8.55097e-05 0)
(3.81139e-05 -7.19166e-05 0)
(2.87401e-05 -2.54365e-05 0)
(-1.40546e-05 4.35901e-05 0)
(-9.77067e-05 0.000127356 0)
(-0.000227325 0.000219981 0)
(-0.000406011 0.000317078 0)
(-0.000635301 0.000415453 0)
(-0.000915391 0.000512744 0)
(-0.00124549 0.000607227 0)
(-0.00162403 0.00069763 0)
(-0.00204885 0.000783038 0)
(-0.00251731 0.000862786 0)
(-0.00302647 0.000936401 0)
(-0.0035731 0.00100357 0)
(-0.00415381 0.00106407 0)
(-0.00476508 0.00111778 0)
(-0.00540332 0.00116467 0)
(-0.00606489 0.00120473 0)
(-0.00674615 0.00123801 0)
(-0.00744349 0.00126459 0)
(-0.0081533 0.00128459 0)
(-0.00887205 0.00129814 0)
(-0.00959627 0.00130539 0)
(-0.0103226 0.00130651 0)
(-0.0110476 0.00130168 0)
(-0.0117683 0.00129109 0)
(-0.0124814 0.00127494 0)
(-0.0131839 0.00125344 0)
(-0.013873 0.00122681 0)
(-0.0145459 0.00119525 0)
(-0.0151999 0.001159 0)
(-0.0158325 0.00111827 0)
(-0.0164412 0.0010733 0)
(-0.0170239 0.00102431 0)
(-0.0175782 0.000971526 0)
(-0.0181022 0.00091519 0)
(-0.0185939 0.000855531 0)
(-0.0190516 0.000792784 0)
(-0.0194736 0.000727188 0)
(-0.0198585 0.000658983 0)
(-0.0202048 0.00058841 0)
(-0.0205112 0.000515714 0)
(-0.0207767 0.000441142 0)
(-0.0210004 0.000364945 0)
(-0.0211812 0.000287375 0)
(-0.0213187 0.000208687 0)
(-0.0214122 0.000129139 0)
(-0.0214613 4.8991e-05 0)
(-0.0214659 -3.14883e-05 0)
(-0.0214256 -0.00011203 0)
(-0.0213408 -0.000192362 0)
(-0.0212114 -0.000272208 0)
(-0.0210379 -0.000351288 0)
(-0.0208208 -0.000429321 0)
(-0.0205607 -0.000506027 0)
(-0.0202585 -0.000581119 0)
(-0.0199152 -0.000654308 0)
(-0.0195319 -0.000725302 0)
(-0.0191099 -0.000793806 0)
(-0.0186507 -0.000859523 0)
(-0.0181559 -0.000922158 0)
(-0.0176273 -0.000981418 0)
(-0.017067 -0.00103701 0)
(-0.0164769 -0.00108865 0)
(-0.0158593 -0.00113605 0)
(-0.0152168 -0.00117892 0)
(-0.0145518 -0.001217 0)
(-0.0138671 -0.00125001 0)
(-0.0131656 -0.00127769 0)
(-0.0124502 -0.0012998 0)
(-0.0117241 -0.00131611 0)
(-0.0109906 -0.00132638 0)
(-0.0102529 -0.00133041 0)
(-0.00951456 -0.00132801 0)
(-0.00877915 -0.001319 0)
(-0.00805028 -0.00130325 0)
(-0.00733164 -0.00128061 0)
(-0.00662696 -0.00125102 0)
(-0.00594002 -0.0012144 0)
(-0.00527458 -0.00117074 0)
(-0.00463439 -0.00112008 0)
(-0.00402315 -0.00106247 0)
(-0.00344446 -0.000998079 0)
(-0.00290182 -0.000927109 0)
(-0.00239855 -0.000849879 0)
(-0.0019377 -0.00076682 0)
(-0.00152207 -0.000678518 0)
(-0.00115401 -0.000585751 0)
(-0.000835403 -0.00048955 0)
(-0.000567445 -0.00039129 0)
(-0.000350531 -0.0002928 0)
(-0.000184004 -0.000196527 0)
(-6.58959e-05 -0.000105758 0)
(7.39998e-06 -2.49053e-05 0)
(4.14199e-05 4.0127e-05 0)
(4.40358e-05 8.15928e-05 0)
(2.7108e-05 8.95353e-05 0)
(7.78858e-06 5.08582e-05 0)
(5.42555e-06 -6.28345e-05 0)
(1.22007e-05 -9.53271e-05 0)
(2.62674e-06 -6.18987e-05 0)
(-3.85307e-05 1.69723e-05 0)
(-0.000122254 0.000127635 0)
(-0.00025609 0.000259597 0)
(-0.000445268 0.000404709 0)
(-0.000693084 0.000556748 0)
(-0.00100111 0.000710986 0)
(-0.0013696 0.000863865 0)
(-0.00179767 0.00101268 0)
(-0.00228352 0.00115542 0)
(-0.00282471 0.00129058 0)
(-0.00341819 0.00141703 0)
(-0.0040605 0.00153397 0)
(-0.00474788 0.00164083 0)
(-0.00547631 0.00173723 0)
(-0.00624158 0.00182291 0)
(-0.00703939 0.00189776 0)
(-0.00786539 0.00196174 0)
(-0.00871515 0.0020149 0)
(-0.0095843 0.00205734 0)
(-0.0104685 0.00208923 0)
(-0.0113633 0.00211075 0)
(-0.0122647 0.00212214 0)
(-0.0131683 0.00212365 0)
(-0.0140702 0.00211556 0)
(-0.0149663 0.00209816 0)
(-0.0158529 0.00207179 0)
(-0.0167263 0.00203675 0)
(-0.0175829 0.00199339 0)
(-0.0184193 0.00194205 0)
(-0.0192321 0.0018831 0)
(-0.0200182 0.00181689 0)
(-0.0207747 0.00174378 0)
(-0.0214986 0.00166414 0)
(-0.0221873 0.00157835 0)
(-0.0228384 0.00148678 0)
(-0.0234493 0.00138981 0)
(-0.0240178 0.00128783 0)
(-0.0245421 0.00118121 0)
(-0.0250201 0.00107036 0)
(-0.0254501 0.000955654 0)
(-0.0258306 0.000837503 0)
(-0.0261603 0.000716308 0)
(-0.0264378 0.000592475 0)
(-0.0266623 0.000466414 0)
(-0.0268328 0.000338539 0)
(-0.0269487 0.000209275 0)
(-0.0270094 7.90471e-05 0)
(-0.0270147 -5.1712e-05 0)
(-0.0269644 -0.000182564 0)
(-0.0268587 -0.000313066 0)
(-0.0266977 -0.000442768 0)
(-0.0264819 -0.000571217 0)
(-0.0262119 -0.000697957 0)
(-0.0258886 -0.000822524 0)
(-0.025513 -0.000944455 0)
(-0.0250863 -0.00106328 0)
(-0.02461 -0.00117852 0)
(-0.0240858 -0.0012897 0)
(-0.0235153 -0.00139635 0)
(-0.0229007 -0.00149799 0)
(-0.0222441 -0.00159415 0)
(-0.0215481 -0.00168435 0)
(-0.0208152 -0.00176812 0)
(-0.0200483 -0.00184502 0)
(-0.0192503 -0.00191458 0)
(-0.0184244 -0.00197637 0)
(-0.017574 -0.00202996 0)
(-0.0167026 -0.00207493 0)
(-0.0158139 -0.00211089 0)
(-0.0149118 -0.00213747 0)
(-0.0140003 -0.00215432 0)
(-0.0130835 -0.0021611 0)
(-0.0121656 -0.00215753 0)
(-0.011251 -0.00214334 0)
(-0.0103441 -0.0021183 0)
(-0.00944945 -0.00208225 0)
(-0.00857158 -0.00203505 0)
(-0.00771507 -0.00197665 0)
(-0.00688447 -0.00190702 0)
(-0.00608431 -0.00182625 0)
(-0.00531903 -0.0017345 0)
(-0.00459296 -0.00163203 0)
(-0.00391026 -0.00151925 0)
(-0.00327484 -0.0013967 0)
(-0.00269033 -0.00126512 0)
(-0.00215996 -0.00112551 0)
(-0.00168646 -0.000979144 0)
(-0.00127195 -0.000827703 0)
(-0.000917806 -0.000673366 0)
(-0.000624441 -0.00051897 0)
(-0.000391127 -0.000368209 0)
(-0.000215737 -0.000225895 0)
(-9.44637e-05 -9.82989e-05 0)
(-2.15541e-05 6.44489e-06 0)
(1.10533e-05 7.79351e-05 0)
(1.48641e-05 0.000102984 0)
(5.64039e-06 6.37545e-05 0)
(2.47676e-06 -6.66311e-05 0)
(-4.48399e-06 -8.49646e-05 0)
(-4.14988e-05 -2.13352e-05 0)
(-0.000120863 9.95836e-05 0)
(-0.00025224 0.000261128 0)
(-0.000442847 0.000450359 0)
(-0.000697701 0.00065697 0)
(-0.00101988 0.000872936 0)
(-0.00141088 0.001092 0)
(-0.00187079 0.00130932 0)
(-0.00239857 0.00152119 0)
(-0.00299223 0.00172472 0)
(-0.00364899 0.00191776 0)
(-0.00436547 0.00209864 0)
(-0.00513778 0.00226616 0)
(-0.00596165 0.00241942 0)
(-0.00683254 0.00255781 0)
(-0.00774568 0.00268093 0)
(-0.00869613 0.00278854 0)
(-0.00967889 0.00288055 0)
(-0.0106889 0.00295699 0)
(-0.0117211 0.00301796 0)
(-0.0127703 0.00306367 0)
(-0.0138317 0.00309438 0)
(-0.0149002 0.00311039 0)
(-0.0159711 0.00311205 0)
(-0.0170395 0.00309976 0)
(-0.0181009 0.00307393 0)
(-0.0191508 0.00303501 0)
(-0.0201848 0.00298346 0)
(-0.0211988 0.00291978 0)
(-0.0221886 0.00284445 0)
(-0.0231505 0.00275798 0)
(-0.0240807 0.0026609 0)
(-0.0249757 0.00255374 0)
(-0.0258322 0.00243702 0)
(-0.026647 0.00231131 0)
(-0.027417 0.00217713 0)
(-0.0281396 0.00203505 0)
(-0.028812 0.00188563 0)
(-0.029432 0.00172943 0)
(-0.0299972 0.00156702 0)
(-0.0305056 0.00139899 0)
(-0.0309555 0.00122591 0)
(-0.0313451 0.00104838 0)
(-0.0316732 0.000866987 0)
(-0.0319384 0.000682343 0)
(-0.0321397 0.000495054 0)
(-0.0322764 0.000305739 0)
(-0.032348 0.000115024 0)
(-0.0323539 -7.6456e-05 0)
(-0.0322942 -0.000268059 0)
(-0.0321688 -0.000459136 0)
(-0.0319781 -0.000649028 0)
(-0.0317227 -0.000837073 0)
(-0.0314032 -0.0010226 0)
(-0.0310206 -0.00120493 0)
(-0.0305763 -0.00138338 0)
(-0.0300716 -0.00155727 0)
(-0.0295083 -0.00172591 0)
(-0.0288882 -0.00188859 0)
(-0.0282135 -0.00204463 0)
(-0.0274867 -0.00219333 0)
(-0.0267103 -0.002334 0)
(-0.0258872 -0.00246596 0)
(-0.0250206 -0.00258853 0)
(-0.0241136 -0.00270105 0)
(-0.0231699 -0.00280286 0)
(-0.0221931 -0.00289332 0)
(-0.0211873 -0.00297183 0)
(-0.0201565 -0.00303778 0)
(-0.0191052 -0.0030906 0)
(-0.0180377 -0.00312978 0)
(-0.0169588 -0.00315479 0)
(-0.0158734 -0.00316519 0)
(-0.0147863 -0.00316056 0)
(-0.0137026 -0.00314054 0)
(-0.0126276 -0.00310483 0)
(-0.0115663 -0.00305318 0)
(-0.0105242 -0.00298546 0)
(-0.00950642 -0.00290157 0)
(-0.00851833 -0.00280156 0)
(-0.0075651 -0.00268557 0)
(-0.00665183 -0.00255387 0)
(-0.00578348 -0.0024069 0)
(-0.00496476 -0.00224528 0)
(-0.00420015 -0.00206985 0)
(-0.00349371 -0.00188176 0)
(-0.00284909 -0.00168244 0)
(-0.00226935 -0.0014738 0)
(-0.00175688 -0.00125824 0)
(-0.00131323 -0.00103883 0)
(-0.000938929 -0.000819491 0)
(-0.000633335 -0.000605228 0)
(-0.000394385 -0.000402397 0)
(-0.000218383 -0.000219085 0)
(-9.97448e-05 -6.55493e-05 0)
(-3.06825e-05 4.53407e-05 0)
(-8.143e-07 9.74775e-05 0)
(2.89655e-06 6.91111e-05 0)
(-7.20445e-07 -6.11368e-05 0)
(-2.29721e-05 -5.11881e-05 0)
(-9.0774e-05 5.43784e-05 0)
(-0.000212596 0.00022769 0)
(-0.000396365 0.000449642 0)
(-0.000648551 0.000705054 0)
(-0.000973607 0.000981732 0)
(-0.00137422 0.00126991 0)
(-0.00185152 0.00156187 0)
(-0.00240535 0.00185153 0)
(-0.00303441 0.00213408 0)
(-0.00373642 0.00240578 0)
(-0.0045083 0.00266374 0)
(-0.00534631 0.00290573 0)
(-0.00624618 0.00313007 0)
(-0.0072032 0.0033355 0)
(-0.00821235 0.00352114 0)
(-0.00926834 0.00368637 0)
(-0.0103657 0.00383084 0)
(-0.0114989 0.00395436 0)
(-0.0126621 0.00405692 0)
(-0.0138499 0.00413864 0)
(-0.0150564 0.00419973 0)
(-0.016276 0.00424051 0)
(-0.0175033 0.00426138 0)
(-0.0187326 0.00426278 0)
(-0.0199588 0.00424523 0)
(-0.0211764 0.00420928 0)
(-0.0223805 0.00415551 0)
(-0.0235662 0.00408455 0)
(-0.0247286 0.00399703 0)
(-0.0258632 0.00389364 0)
(-0.0269656 0.00377506 0)
(-0.0280315 0.00364199 0)
(-0.029057 0.00349514 0)
(-0.0300382 0.00333525 0)
(-0.0309715 0.00316305 0)
(-0.0318535 0.00297929 0)
(-0.0326811 0.00278473 0)
(-0.0334512 0.00258013 0)
(-0.0341611 0.00236627 0)
(-0.0348082 0.00214392 0)
(-0.0353903 0.00191388 0)
(-0.0359053 0.00167695 0)
(-0.0363513 0.00143394 0)
(-0.0367267 0.00118565 0)
(-0.0370301 0.000932928 0)
(-0.0372604 0.0006766 0)
(-0.0374167 0.000417513 0)
(-0.0374984 0.000156528 0)
(-0.0375049 -0.000105489 0)
(-0.0374363 -0.000367658 0)
(-0.0372925 -0.000629091 0)
(-0.037074 -0.000888887 0)
(-0.0367812 -0.00114614 0)
(-0.0364152 -0.00139993 0)
(-0.0359771 -0.00164933 0)
(-0.0354682 -0.00189341 0)
(-0.0348902 -0.00213124 0)
(-0.0342451 -0.00236186 0)
(-0.0335351 -0.00258434 0)
(-0.0327626 -0.00279773 0)
(-0.0319303 -0.00300109 0)
(-0.0310413 -0.00319347 0)
(-0.0300988 -0.00337396 0)
(-0.0291064 -0.00354163 0)
(-0.0280677 -0.00369558 0)
(-0.0269869 -0.00383493 0)
(-0.0258681 -0.00395881 0)
(-0.0247159 -0.0040664 0)
(-0.0235349 -0.0041569 0)
(-0.02233 -0.00422955 0)
(-0.0211065 -0.00428363 0)
(-0.0198695 -0.00431848 0)
(-0.0186245 -0.0043335 0)
(-0.0173771 -0.00432813 0)
(-0.0161331 -0.00430192 0)
(-0.0148982 -0.00425446 0)
(-0.0136783 -0.00418549 0)
(-0.0124794 -0.00409481 0)
(-0.0113074 -0.00398236 0)
(-0.0101681 -0.00384822 0)
(-0.00906748 -0.00369264 0)
(-0.00801112 -0.00351602 0)
(-0.00700453 -0.003319 0)
(-0.00605297 -0.00310249 0)
(-0.00516137 -0.00286768 0)
(-0.00433423 -0.00261612 0)
(-0.00357558 -0.00234982 0)
(-0.0028888 -0.00207131 0)
(-0.00227656 -0.0017838 0)
(-0.00174066 -0.0014913 0)
(-0.00128186 -0.00119885 0)
(-0.000899743 -0.000912745 0)
(-0.000592514 -0.000640846 0)
(-0.000356844 -0.000392958 0)
(-0.000187629 -0.000181284 0)
(-7.77161e-05 -2.08786e-05 0)
(-1.83834e-05 6.96878e-05 0)
(-1.07345e-07 6.56946e-05 0)
(-3.97912e-06 -4.57794e-05 0)
(-4.22919e-05 7.92349e-06 0)
(-0.000142778 0.000168183 0)
(-0.000309784 0.000404932 0)
(-0.000549085 0.000697068 0)
(-0.000866176 0.00102762 0)
(-0.00126472 0.00138264 0)
(-0.00174674 0.00175085 0)
(-0.0023129 0.00212315 0)
(-0.00296261 0.00249224 0)
(-0.00369422 0.00285228 0)
(-0.00450509 0.00319864 0)
(-0.0053918 0.00352768 0)
(-0.00635027 0.00383655 0)
(-0.00737582 0.00412308 0)
(-0.00846334 0.00438563 0)
(-0.00960736 0.00462298 0)
(-0.0108021 0.0048343 0)
(-0.0120417 0.00501907 0)
(-0.0133199 0.005177 0)
(-0.0146307 0.00530802 0)
(-0.0159677 0.00541222 0)
(-0.0173247 0.00548986 0)
(-0.0186957 0.0055413 0)
(-0.0200743 0.00556701 0)
(-0.0214547 0.00556756 0)
(-0.0228308 0.00554357 0)
(-0.024197 0.00549573 0)
(-0.0255475 0.00542479 0)
(-0.026877 0.00533154 0)
(-0.0281801 0.0052168 0)
(-0.0294517 0.00508142 0)
(-0.030687 0.00492629 0)
(-0.0318813 0.00475232 0)
(-0.0330301 0.00456043 0)
(-0.0341292 0.00435156 0)
(-0.0351745 0.00412667 0)
(-0.0361622 0.00388672 0)
(-0.0370889 0.00363271 0)
(-0.0379511 0.00336563 0)
(-0.0387458 0.00308648 0)
(-0.0394703 0.00279628 0)
(-0.0401218 0.00249607 0)
(-0.0406982 0.00218688 0)
(-0.0411973 0.00186978 0)
(-0.0416174 0.00154582 0)
(-0.0419568 0.00121609 0)
(-0.0422145 0.000881672 0)
(-0.0423892 0.00054368 0)
(-0.0424804 0.000203231 0)
(-0.0424876 -0.000138544 0)
(-0.0424106 -0.0004805 0)
(-0.0422495 -0.000821475 0)
(-0.0420047 -0.0011603 0)
(-0.041677 -0.00149578 0)
(-0.0412672 -0.00182674 0)
(-0.0407767 -0.00215196 0)
(-0.0402071 -0.00247024 0)
(-0.0395601 -0.00278035 0)
(-0.038838 -0.00308106 0)
(-0.0380432 -0.00337116 0)
(-0.0371785 -0.00364941 0)
(-0.0362468 -0.00391459 0)
(-0.0352516 -0.00416549 0)
(-0.0341965 -0.00440091 0)
(-0.0330853 -0.00461965 0)
(-0.0319223 -0.00482057 0)
(-0.0307119 -0.00500251 0)
(-0.0294589 -0.00516437 0)
(-0.0281681 -0.00530508 0)
(-0.0268448 -0.00542362 0)
(-0.0254945 -0.00551902 0)
(-0.0241229 -0.00559036 0)
(-0.0227357 -0.0056368 0)
(-0.021339 -0.00565758 0)
(-0.0199389 -0.00565201 0)
(-0.0185419 -0.00561951 0)
(-0.0171542 -0.00555962 0)
(-0.0157824 -0.00547198 0)
(-0.014433 -0.00535641 0)
(-0.0131125 -0.00521287 0)
(-0.0118273 -0.00504148 0)
(-0.0105839 -0.00484261 0)
(-0.00938834 -0.00461685 0)
(-0.00824675 -0.00436507 0)
(-0.00716482 -0.00408847 0)
(-0.0061479 -0.00378863 0)
(-0.00520093 -0.00346758 0)
(-0.00432829 -0.00312791 0)
(-0.00353373 -0.00277284 0)
(-0.00282024 -0.00240639 0)
(-0.00218993 -0.00203354 0)
(-0.00164389 -0.00166042 0)
(-0.00118208 -0.00129458 0)
(-0.000803146 -0.000945305 0)
(-0.000504335 -0.000623966 0)
(-0.000281265 -0.00034449 0)
(-0.000127686 -0.000123786 0)
(-3.68659e-05 1.76156e-05 0)
(-3.18612e-06 5.2884e-05 0)
(-7.1832e-06 -2.03823e-05 0)
(-6.1827e-05 9.3317e-05 0)
(-0.00019596 0.00032179 0)
(-0.000409665 0.000633536 0)
(-0.000706446 0.00100601 0)
(-0.00109062 0.00142072 0)
(-0.00156486 0.00186229 0)
(-0.0021304 0.00231809 0)
(-0.00278725 0.00277776 0)
(-0.00353429 0.00323286 0)
(-0.0043694 0.00367657 0)
(-0.00528954 0.0041034 0)
(-0.00629089 0.00450896 0)
(-0.00736897 0.00488978 0)
(-0.00851872 0.00524317 0)
(-0.00973461 0.00556707 0)
(-0.0110108 0.00585996 0)
(-0.012341 0.00612073 0)
(-0.0137188 0.00634867 0)
(-0.0151378 0.00654338 0)
(-0.0165911 0.00670472 0)
(-0.0180722 0.00683276 0)
(-0.0195742 0.00692775 0)
(-0.0210904 0.00699012 0)
(-0.0226143 0.00702043 0)
(-0.0241392 0.00701932 0)
(-0.0256587 0.00698757 0)
(-0.0271667 0.006926 0)
(-0.0286569 0.00683554 0)
(-0.0301234 0.00671714 0)
(-0.0315604 0.00657182 0)
(-0.0329624 0.00640063 0)
(-0.0343241 0.00620468 0)
(-0.0356403 0.00598509 0)
(-0.0369061 0.00574302 0)
(-0.038117 0.00547962 0)
(-0.0392685 0.00519611 0)
(-0.0403564 0.0048937 0)
(-0.0413769 0.00457362 0)
(-0.0423264 0.00423712 0)
(-0.0432016 0.00388546 0)
(-0.0439992 0.00351993 0)
(-0.0447165 0.00314182 0)
(-0.045351 0.00275244 0)
(-0.0459004 0.00235312 0)
(-0.0463627 0.00194519 0)
(-0.0467363 0.00153003 0)
(-0.0470198 0.00110899 0)
(-0.0472121 0.000683478 0)
(-0.0473124 0.000254895 0)
(-0.0473203 -0.000175335 0)
(-0.0472354 -0.000605769 0)
(-0.0470581 -0.00103495 0)
(-0.0467886 -0.00146141 0)
(-0.0464279 -0.00188365 0)
(-0.0459768 -0.00230018 0)
(-0.0454369 -0.00270948 0)
(-0.0448099 -0.00311004 0)
(-0.0440978 -0.00350031 0)
(-0.0433029 -0.00387878 0)
(-0.042428 -0.00424389 0)
(-0.0414761 -0.00459412 0)
(-0.0404504 -0.00492794 0)
(-0.0393547 -0.00524383 0)
(-0.0381929 -0.00554029 0)
(-0.0369692 -0.00581583 0)
(-0.0356883 -0.00606902 0)
(-0.034355 -0.00629843 0)
(-0.0329744 -0.00650268 0)
(-0.0315519 -0.00668045 0)
(-0.0300933 -0.00683047 0)
(-0.0286045 -0.00695154 0)
(-0.0270916 -0.00704254 0)
(-0.025561 -0.00710243 0)
(-0.0240192 -0.00713028 0)
(-0.022473 -0.00712526 0)
(-0.0209292 -0.00708666 0)
(-0.0193947 -0.00701395 0)
(-0.0178766 -0.00690673 0)
(-0.0163818 -0.00676477 0)
(-0.0149176 -0.00658808 0)
(-0.0134908 -0.00637688 0)
(-0.0121082 -0.00613164 0)
(-0.0107767 -0.00585316 0)
(-0.00950265 -0.00554256 0)
(-0.00829225 -0.00520138 0)
(-0.00715129 -0.0048316 0)
(-0.0060851 -0.00443576 0)
(-0.00509845 -0.00401704 0)
(-0.00419549 -0.00357938 0)
(-0.00337958 -0.00312761 0)
(-0.00265322 -0.00266765 0)
(-0.00201794 -0.0022067 0)
(-0.00147416 -0.00175349 0)
(-0.00102115 -0.0013186 0)
(-0.00065689 -0.000914817 0)
(-0.000377901 -0.000557536 0)
(-0.00017901 -0.000265183 0)
(-5.56533e-05 -5.97801e-05 0)
(-6.23974e-06 3.04485e-05 0)
(-1.02953e-05 1.50055e-05 0)
(-8.1214e-05 0.000205311 0)
(-0.000249284 0.000515988 0)
(-0.000510393 0.000914742 0)
(-0.000865676 0.00137799 0)
(-0.00131819 0.00188606 0)
(-0.00186952 0.00242242 0)
(-0.00251994 0.00297323 0)
(-0.0032687 0.00352704 0)
(-0.00411406 0.0040744 0)
(-0.00505333 0.00460754 0)
(-0.006083 0.00512015 0)
(-0.0071988 0.00560713 0)
(-0.00839581 0.0060644 0)
(-0.00966857 0.00648875 0)
(-0.0110111 0.0068777 0)
(-0.0124172 0.00722937 0)
(-0.0138802 0.00754241 0)
(-0.0153932 0.0078159 0)
(-0.0169492 0.00804932 0)
(-0.0185411 0.00824242 0)
(-0.0201618 0.00839526 0)
(-0.0218039 0.0085081 0)
(-0.0234605 0.00858141 0)
(-0.0251242 0.00861581 0)
(-0.0267882 0.00861208 0)
(-0.0284456 0.0085711 0)
(-0.0300896 0.00849387 0)
(-0.0317136 0.00838147 0)
(-0.0333112 0.00823506 0)
(-0.0348763 0.00805584 0)
(-0.0364028 0.00784511 0)
(-0.0378851 0.00760417 0)
(-0.0393176 0.00733439 0)
(-0.0406951 0.00703716 0)
(-0.0420125 0.00671392 0)
(-0.0432651 0.00636611 0)
(-0.0444484 0.00599523 0)
(-0.0455583 0.00560276 0)
(-0.0465908 0.00519024 0)
(-0.0475424 0.00475921 0)
(-0.0484096 0.00431123 0)
(-0.0491894 0.00384788 0)
(-0.0498792 0.00337078 0)
(-0.0504764 0.00288153 0)
(-0.050979 0.00238179 0)
(-0.0513851 0.00187321 0)
(-0.0516933 0.00135748 0)
(-0.0519024 0.000836285 0)
(-0.0520114 0.000311362 0)
(-0.05202 -0.000215552 0)
(-0.0519279 -0.000742694 0)
(-0.0517353 -0.00126828 0)
(-0.0514425 -0.00179052 0)
(-0.0510506 -0.00230759 0)
(-0.0505605 -0.00281765 0)
(-0.0499739 -0.00331887 0)
(-0.0492926 -0.00380938 0)
(-0.0485187 -0.00428732 0)
(-0.0476549 -0.00475082 0)
(-0.046704 -0.00519801 0)
(-0.0456693 -0.00562701 0)
(-0.0445544 -0.00603597 0)
(-0.0433632 -0.00642305 0)
(-0.0420999 -0.00678641 0)
(-0.0407692 -0.00712427 0)
(-0.0393759 -0.00743486 0)
(-0.0379254 -0.00771646 0)
(-0.0364232 -0.00796742 0)
(-0.034875 -0.00818613 0)
(-0.033287 -0.00837105 0)
(-0.0316656 -0.00852076 0)
(-0.0300173 -0.00863388 0)
(-0.0283491 -0.0087092 0)
(-0.0266679 -0.00874559 0)
(-0.024981 -0.00874207 0)
(-0.0232956 -0.00869783 0)
(-0.0216192 -0.00861224 0)
(-0.0199594 -0.00848483 0)
(-0.0183237 -0.0083154 0)
(-0.0167196 -0.00810397 0)
(-0.0151546 -0.00785086 0)
(-0.0136359 -0.00755668 0)
(-0.0121709 -0.00722244 0)
(-0.0107664 -0.00684954 0)
(-0.00942898 -0.00643986 0)
(-0.00816492 -0.0059958 0)
(-0.00697996 -0.00552043 0)
(-0.00587928 -0.00501752 0)
(-0.00486743 -0.00449172 0)
(-0.00394823 -0.00394866 0)
(-0.00312464 -0.00339518 0)
(-0.00239869 -0.00283946 0)
(-0.00177143 -0.00229135 0)
(-0.00124282 -0.00176259 0)
(-0.000811712 -0.00126718 0)
(-0.000475654 -0.000821768 0)
(-0.000230654 -0.000445973 0)
(-7.43742e-05 -0.000162901 0)
(-9.21673e-06 -1.60857e-06 0)
(-1.32851e-05 6.02042e-05 0)
(-0.00010025 0.000343822 0)
(-0.000302127 0.000750967 0)
(-0.000610732 0.00124905 0)
(-0.00102489 0.00181376 0)
(-0.00154632 0.0024246 0)
(-0.00217545 0.00306403 0)
(-0.00291151 0.00371726 0)
(-0.00375291 0.00437188 0)
(-0.00469717 0.0050175 0)
(-0.005741 0.00564553 0)
(-0.00688031 0.00624888 0)
(-0.00811034 0.00682179 0)
(-0.00942571 0.00735958 0)
(-0.0108205 0.00785853 0)
(-0.0122884 0.00831574 0)
(-0.0138226 0.00872901 0)
(-0.0154161 0.0090967 0)
(-0.0170616 0.00941771 0)
(-0.0187517 0.00969135 0)
(-0.0204789 0.0099173 0)
(-0.0222355 0.0100956 0)
(-0.0240139 0.0102265 0)
(-0.0258065 0.0103104 0)
(-0.0276057 0.0103482 0)
(-0.0294042 0.0103407 0)
(-0.0311945 0.0102889 0)
(-0.0329696 0.010194 0)
(-0.0347224 0.0100572 0)
(-0.0364462 0.00987987 0)
(-0.0381343 0.00966347 0)
(-0.0397803 0.00940948 0)
(-0.0413783 0.00911947 0)
(-0.0429222 0.00879505 0)
(-0.0444065 0.00843787 0)
(-0.0458259 0.00804964 0)
(-0.0471752 0.00763207 0)
(-0.0484497 0.00718695 0)
(-0.049645 0.00671604 0)
(-0.0507569 0.00622119 0)
(-0.0517814 0.00570422 0)
(-0.0527151 0.005167 0)
(-0.0535547 0.00461144 0)
(-0.0542973 0.00403944 0)
(-0.0549402 0.00345294 0)
(-0.0554813 0.00285391 0)
(-0.0559185 0.00224433 0)
(-0.0562504 0.00162622 0)
(-0.0564756 0.00100161 0)
(-0.0565932 0.00037255 0)
(-0.0566026 -0.000258866 0)
(-0.0565038 -0.000890533 0)
(-0.0562968 -0.00152032 0)
(-0.0559821 -0.00214609 0)
(-0.0555606 -0.00276566 0)
(-0.0550336 -0.00337684 0)
(-0.0544026 -0.00397744 0)
(-0.0536697 -0.00456522 0)
(-0.0528372 -0.00513798 0)
(-0.0519078 -0.00569348 0)
(-0.0508846 -0.00622948 0)
(-0.0497711 -0.00674377 0)
(-0.048571 -0.00723412 0)
(-0.0472887 -0.00769835 0)
(-0.0459285 -0.00813428 0)
(-0.0444955 -0.00853979 0)
(-0.0429949 -0.00891278 0)
(-0.0414322 -0.00925122 0)
(-0.0398134 -0.00955313 0)
(-0.0381446 -0.00981661 0)
(-0.0364323 -0.0100399 0)
(-0.0346834 -0.0102212 0)