/*--------------------------------*- C++ -*----------------------------------*\
  =========                 |
  \\      /  F ield         | OpenFOAM: The Open Source CFD Toolbox
   \\    /   O peration     | Website:  https://openfoam.org
    \\  /    A nd           | Version:  11
     \\/     M anipulation  |
\*---------------------------------------------------------------------------*/
FoamFile
{
    format      ascii;
    class       volScalarField;
    location    "5.6";
    object      p;
}
// * * * * * * * * * * * * * * * * * * * * * * * * * * * * * * * * * * * * * //

dimensions      [0 2 -2 0 0 0 0];

internalField   nonuniform List<scalar> 
10100
(
-5.10141e-08
9.77539e-05
-0.000102602
-0.000657654
-0.0015184
-0.00262553
-0.00392009
-0.00534761
-0.00685927
-0.00841303
-0.00997281
-0.0115071
-0.0129892
-0.0143957
-0.0157061
-0.0169034
-0.0179734
-0.0189037
-0.0196852
-0.0203099
-0.020771
-0.0210628
-0.0211815
-0.0211244
-0.0208898
-0.0204774
-0.0198875
-0.0191211
-0.0181803
-0.0170683
-0.0157887
-0.0143459
-0.0127451
-0.0109916
-0.00909094
-0.00704931
-0.00487326
-0.0025697
-0.00014585
0.0023904
0.00503066
0.00776652
0.0105896
0.0134913
0.016463
0.0194951
0.0225781
0.025702
0.0288565
0.0320312
0.0352161
0.0384013
0.0415767
0.0447313
0.0478541
0.0509341
0.053961
0.0569242
0.0598136
0.0626192
0.065331
0.0679395
0.0704352
0.0728087
0.0750508
0.0771532
0.0791085
0.0809098
0.0825504
0.0840241
0.0853253
0.0864494
0.0873925
0.0881517
0.0887252
0.0891121
0.0893128
0.089329
0.0891634
0.0888198
0.0883032
0.0876207
0.0867814
0.0857957
0.0846758
0.0834355
0.0820907
0.08066
0.0791648
0.0776298
0.0760828
0.0745555
0.073083
0.0717053
0.0704676
0.0694193
0.0686115
0.0680935
0.0679071
0.0680055
-8.12629e-05
-9.99411e-06
-0.0002234
-0.000729387
-0.00148027
-0.00243354
-0.00354828
-0.00478175
-0.00609456
-0.00745065
-0.00881822
-0.0101694
-0.0114791
-0.0127249
-0.0138876
-0.0149512
-0.0159012
-0.0167259
-0.0174152
-0.017961
-0.0183566
-0.0185968
-0.0186774
-0.0185951
-0.0183479
-0.0179345
-0.017355
-0.01661
-0.0157015
-0.014632
-0.013405
-0.0120242
-0.0104943
-0.00882007
-0.00700681
-0.00506031
-0.00298673
-0.000792507
0.00151561
0.00393036
0.00644387
0.00904809
0.0117349
0.0144962
0.0173235
0.0202083
0.0231416
0.0261136
0.0291143
0.032134
0.0351631
0.0381924
0.0412121
0.0442119
0.0471811
0.0501096
0.0529874
0.0558044
0.0585512
0.0612184
0.0637967
0.066277
0.0686506
0.0709083
0.0730416
0.075043
0.0769058
0.0786235
0.0801897
0.081599
0.0828464
0.0839275
0.084839
0.0855784
0.0861443
0.0865361
0.0867546
0.0868018
0.0866808
0.0863952
0.0859503
0.0853532
0.084613
0.08374
0.082746
0.0816443
0.0804502
0.0791816
0.0778587
0.0765046
0.0751449
0.0738079
0.0725248
0.0713299
0.0702606
0.0693563
0.0686542
0.0681888
0.0680045
0.0681022
0.000133366
0.00017494
-5.4132e-05
-0.000538788
-0.00122869
-0.00208949
-0.00308877
-0.0041929
-0.00536852
-0.00658468
-0.00781333
-0.00902962
-0.0102102
-0.0113345
-0.0123844
-0.0133444
-0.0142013
-0.0149435
-0.0155605
-0.0160444
-0.0163884
-0.0165873
-0.0166372
-0.0165346
-0.0162769
-0.0158626
-0.0152913
-0.0145636
-0.0136809
-0.0126459
-0.0114613
-0.0101309
-0.00865869
-0.00704913
-0.0053071
-0.00343812
-0.00144803
0.000657113
0.0028708
0.00518612
0.00759584
0.0100923
0.0126678
0.0153143
0.0180238
0.0207883
0.0235991
0.0264468
0.0293218
0.0322147
0.0351168
0.038019
0.0409117
0.0437851
0.0466291
0.049434
0.0521904
0.0548886
0.0575195
0.0600742
0.0625443
0.0649209
0.0671953
0.0693593
0.0714047
0.0733246
0.0751128
0.0767631
0.0782696
0.0796271
0.0808312
0.081878
0.0827642
0.0834875
0.084047
0.0844425
0.084675
0.0847468
0.0846607
0.0844206
0.0840316
0.0835009
0.0828375
0.0820514
0.0811539
0.0801576
0.0790773
0.0779301
0.076735
0.0755134
0.0742885
0.0730857
0.0719327
0.0708597
0.0698986
0.0690821
0.0684406
0.0680029
0.0678186
0.0679138
0.000662102
0.000632456
0.000362962
-0.000128092
-0.000794186
-0.00160603
-0.0025364
-0.00355736
-0.0046407
-0.00575913
-0.00688794
-0.00800435
-0.00908793
-0.0101196
-0.0110822
-0.0119613
-0.0127444
-0.0134202
-0.0139793
-0.0144135
-0.0147161
-0.0148819
-0.0149066
-0.0147871
-0.0145207
-0.0141056
-0.0135412
-0.012828
-0.0119673
-0.0109612
-0.00981246
-0.00852454
-0.00710114
-0.0055464
-0.00386495
-0.00206185
-0.000142564
0.00188709
0.00402073
0.0062516
0.0085729
0.0109775
0.0134581
0.016007
0.0186167
0.0212791
0.0239858
0.0267276
0.0294954
0.0322807
0.0350749
0.0378691
0.0406541
0.0434201
0.0461578
0.048858
0.0515114
0.0541089
0.0566417
0.0591017
0.0614803
0.0637692
0.0659601
0.068045
0.0700164
0.0718679
0.0735936
0.0751874
0.0766439
0.0779581
0.0791261
0.0801441
0.081009
0.0817187
0.0822726
0.0826709
0.0829147
0.0830062
0.0829481
0.0827442
0.0823997
0.0819217
0.0813188
0.0806008
0.0797782
0.0788632
0.0778698
0.0768141
0.0757141
0.074589
0.0734599
0.0723499
0.0712837
0.0702879
0.0693903
0.0686194
0.0680015
0.0675633
0.0673513
0.0673953
0.00145863
0.00131476
0.000977485
0.000458349
-0.000209363
-0.000998708
-0.00188737
-0.0028516
-0.00386781
-0.00491241
-0.00596302
-0.00699967
-0.00800395
-0.00895871
-0.0098484
-0.010659
-0.0113789
-0.0119971
-0.0125054
-0.0128959
-0.0131622
-0.0132989
-0.0133017
-0.0131673
-0.0128933
-0.0124778
-0.01192
-0.0112203
-0.01038
-0.00940073
-0.00828525
-0.00703663
-0.00565833
-0.0041543
-0.00252898
-0.000787016
0.00106654
0.00302605
0.0050854
0.00723807
0.00947744
0.0117967
0.014189
0.0166472
0.0191641
0.0217319
0.0243419
0.0269853
0.0296538
0.0323393
0.0350333
0.0377272
0.0404121
0.0430787
0.0457179
0.0483211
0.0508792
0.0533835
0.0558257
0.0581981
0.0604923
0.0627002
0.0648139
0.0668259
0.0687292
0.0705178
0.072186
0.0737279
0.0751383
0.0764128
0.0775476
0.078539
0.079384
0.080081
0.0806294
0.0810298
0.0812832
0.0813917
0.0813578
0.0811854
0.0808794
0.0804468
0.0798959
0.079236
0.0784769
0.0776301
0.0767092
0.0757291
0.074706
0.0736574
0.0726025
0.071562
0.0705581
0.0696141
0.0687541
0.0680025
0.0673827
0.0669187
0.0666464
0.066588
0.00247878
0.00219131
0.00176319
0.0011954
0.00050492
-0.000285998
-0.00115668
-0.00208791
-0.00305944
-0.00405138
-0.00504433
-0.00601996
-0.006962
-0.00785511
-0.00868514
-0.00943952
-0.0101069
-0.0106773
-0.0111423
-0.0114954
-0.0117305
-0.0118421
-0.0118261
-0.0116793
-0.011399
-0.0109835
-0.0104322
-0.00974528
-0.00892375
-0.00796939
-0.00688457
-0.00567212
-0.0043353
-0.00287786
-0.00130396
0.000381985
0.00217513
0.00407005
0.00606089
0.00814158
0.0103057
0.0125466
0.0148578
0.0172327
0.0196643
0.0221446
0.0246656
0.0272186
0.0297959
0.0323896
0.0349917
0.0375933
0.0401861
0.0427614
0.0453104
0.0478246
0.0502953
0.0527142
0.0550736
0.0573658
0.0595827
0.0617165
0.0637595
0.0657051
0.0675464
0.0692777
0.0708932
0.0723877
0.0737562
0.0749944
0.0760988
0.0770657
0.0778924
0.0785773
0.0791204
0.0795221
0.0797833
0.0799059
0.0798924
0.0797465
0.0794731
0.0790788
0.0785715
0.0779597
0.077253
0.0764622
0.0755999
0.0746797
0.0737165
0.0727261
0.0717255
0.0707335
0.0697698
0.0688549
0.0680094
0.067254
0.0666093
0.0660965
0.0657366
0.0655389
0.0036799
0.00322856
0.00269229
0.00205793
0.00132484
0.000512574
-0.000361838
-0.00128095
-0.00222842
-0.00318737
-0.00414093
-0.0050733
-0.00596957
-0.00681574
-0.00759916
-0.00830877
-0.00893384
-0.00946551
-0.00989564
-0.010218
-0.0104271
-0.0105179
-0.0104864
-0.0103294
-0.0100444
-0.00962984
-0.00908502
-0.00841006
-0.00760591
-0.00667431
-0.00561745
-0.00443793
-0.00313888
-0.00172384
-0.000196572
0.00143868
0.0031771
0.00501342
0.00694209
0.00895729
0.0110529
0.0132228
0.0154605
0.0177599
0.0201139
0.0225149
0.0249547
0.0274258
0.0299204
0.032431
0.0349495
0.0374675
0.039977
0.0424696
0.0449368
0.0473705
0.0497622
0.052104
0.0543886
0.0566084
0.0587555
0.0608222
0.0628018
0.0646875
0.0664731
0.0681527
0.0697209
0.0711727
0.0725032
0.0737087
0.0747855
0.0757302
0.07654
0.0772138
0.0777516
0.0781536
0.0784208
0.0785545
0.0785575
0.0784332
0.0781864
0.0778234
0.0773513
0.0767782
0.076113
0.075366
0.0745486
0.0736736
0.0727541
0.0718043
0.0708396
0.0698767
0.0689332
0.0680268
0.0671749
0.066395
0.0657053
0.0651244
0.0646562
0.0642953
0.0050207
0.00439344
0.00373521
0.00301964
0.00222793
0.0013768
0.000481689
-0.000443617
-0.0013848
-0.00232767
-0.00325828
-0.00416263
-0.00502738
-0.00584012
-0.00658919
-0.00726436
-0.00785672
-0.00835769
-0.0087603
-0.00905822
-0.00924643
-0.00932061
-0.00927684
-0.00911201
-0.00882387
-0.00841102
-0.00787275
-0.00720913
-0.00642115
-0.00551041
-0.00447896
-0.00332931
-0.00206444
-0.000687672
0.000797439
0.00238685
0.00407586
0.00585936
0.00773196
0.00968801
0.0117217
0.0138273
0.0159989
0.0182302
0.0205141
0.0228432
0.02521
0.0276071
0.0300272
0.0324628
0.0349059
0.0373485
0.0397831
0.0422014
0.0445951
0.0469562
0.049277
0.0515497
0.0537672
0.0559221
0.0580065
0.0600132
0.0619359
0.0637682
0.065504
0.0671372
0.068663
0.0700764
0.0713731
0.0725491
0.073601
0.0745254
0.0753199
0.0759833
0.0765157
0.0769172
0.0771883
0.0773305
0.0773463
0.0772392
0.0770136
0.0766751
0.0762304
0.0756871
0.0750535
0.0743392
0.0735547
0.0727113
0.071821
0.0708964
0.0699513
0.0690007
0.06806
0.0671444
0.0662686
0.0654469
0.0646957
0.0640315
0.0634403
0.0629017
0.00646406
0.00565353
0.00486428
0.00405601
0.00319246
0.00228856
0.00135785
0.000411537
-0.000538563
-0.00148067
-0.00240246
-0.00329194
-0.00413774
-0.00492872
-0.00565421
-0.00630488
-0.00687315
-0.00735114
-0.00773249
-0.0080117
-0.00818401
-0.00824539
-0.00819237
-0.008022
-0.00773225
-0.00732187
-0.00679019
-0.00613736
-0.00536438
-0.00447277
-0.00346442
-0.00234178
-0.00110765
0.000234823
0.00168215
0.00323033
0.00487489
0.00661095
0.0084332
0.0103362
0.0123145
0.0143626
0.0164748
0.0186448
0.0208657
0.0231303
0.0254316
0.0277626
0.030116
0.0324843
0.0348599
0.0372352
0.0396028
0.0419547
0.0442828
0.0465793
0.0488369
0.0510482
0.0532059
0.0553028
0.0573314
0.0592849
0.0611572
0.0629422
0.0646336
0.0662257
0.0677137
0.0690931
0.0703596
0.0715093
0.0725387
0.0734448
0.0742253
0.0748791
0.075406
0.075806
0.0760794
0.0762275
0.0762529
0.0761589
0.0759493
0.0756292
0.0752049
0.0746833
0.0740722
0.0733806
0.0726179
0.0717943
0.0709203
0.0700073
0.0690676
0.0681146
0.0671617
0.066222
0.0653075
0.06443
0.0636044
0.0628454
0.0621212
0.0613969
0.00797703
0.00697948
0.00605316
0.00514398
0.00419829
0.00323005
0.00225146
0.00127154
0.000299426
-0.000654743
-0.00158018
-0.00246673
-0.00330459
-0.00408391
-0.00479528
-0.00543055
-0.00598233
-0.00644441
-0.00681062
-0.0070762
-0.00723703
-0.00728926
-0.00722976
-0.00705599
-0.0067661
-0.00635888
-0.00583382
-0.00519123
-0.00443209
-0.00355784
-0.00257037
-0.00147199
-0.000265343
0.00104656
0.00246024
0.00397175
0.0055767
0.0072704
0.00904775
0.0109035
0.0128326
0.0148297
0.0168891
0.0190045
0.0211692
0.0233765
0.0256198
0.0278921
0.0301862
0.0324947
0.0348105
0.0371263
0.0394347
0.0417278
0.0439978
0.0462375
0.0484395
0.0505966
0.0527016
0.0547474
0.0567269
0.0586337
0.060462
0.0622054
0.0638578
0.0654137
0.0668686
0.0682182
0.0694581
0.0705844
0.071594
0.0724838
0.0732516
0.0738965
0.0744179
0.0748155
0.0750896
0.0752415
0.0752736
0.0751888
0.0749904
0.0746831
0.0742725
0.0737652
0.0731686
0.0724906
0.0717398
0.0709253
0.0700563
0.069143
0.0681963
0.0672282
0.0662503
0.0652737
0.0643083
0.0633636
0.0624536
0.0615913
0.0607278
0.0598145
0.00953072
0.00834509
0.00727755
0.00626128
0.00522611
0.00418416
0.00314765
0.00212324
0.00111832
0.000141436
-0.000798575
-0.00169265
-0.00253222
-0.00330895
-0.00401469
-0.00464223
-0.00518474
-0.00563691
-0.00599359
-0.00625044
-0.00640371
-0.00645007
-0.00638668
-0.00621141
-0.00592259
-0.00551913
-0.00500071
-0.0043678
-0.00362135
-0.00276275
-0.0017939
-0.000717048
0.000465272
0.00175011
0.00313406
0.00461323
0.00618329
0.00783959
0.00957733
0.0113916
0.0132775
0.0152298
0.0172425
0.0193097
0.0214251
0.0235822
0.0257746
0.0279952
0.0302371
0.0324933
0.0347569
0.0370206
0.0392772
0.041519
0.0437384
0.0459286
0.0480823
0.0501922
0.0522513
0.0542527
0.0561898
0.0580564
0.0598465
0.061554
0.0631727
0.0646975
0.066124
0.0674478
0.0686647
0.0697708
0.0707629
0.0716384
0.0723951
0.0730318
0.0735476
0.0739422
0.0742157
0.0743695
0.0744057
0.0743266
0.0741351
0.0738353
0.0734324
0.0729329
0.0723433
0.0716709
0.0709233
0.0701084
0.0692344
0.0683102
0.0673458
0.0663516
0.0653378
0.0643136
0.0632871
0.0622662
0.061264
0.0602923
0.0592859
0.0581832
0.0111003
0.00972687
0.00851564
0.00738826
0.00625751
0.00513497
0.00403211
0.00295436
0.00190765
0.000898746
-6.48835e-05
-0.000975315
-0.00182518
-0.0026074
-0.00331502
-0.00394134
-0.00448109
-0.00492898
-0.00528102
-0.00553347
-0.00568281
-0.00572623
-0.00566135
-0.00548628
-0.0051995
-0.00480021
-0.00428839
-0.00366455
-0.00292959
-0.00208494
-0.00113252
-7.45188e-05
0.00108656
0.00234778
0.00370577
0.00515669
0.0066963
0.00832011
0.0100235
0.0118019
0.0136503
0.0155635
0.0175357
0.019561
0.0216336
0.0237473
0.0258956
0.0280715
0.0302682
0.0324793
0.0346978
0.0369166
0.0391286
0.0413263
0.0435025
0.0456503
0.0477628
0.0498323
0.0518521
0.0538158
0.0557171
0.0575495
0.0593073
0.0609844
0.0625748
0.0640735
0.0654762
0.0667784
0.0679758
0.0690647
0.0700422
0.0709056
0.0716526
0.0722818
0.0727922
0.0731834
0.0734555
0.0736096
0.0736474
0.0735709
0.0733822
0.0730852
0.0726848
0.0721871
0.0715981
0.0709241
0.0701718
0.069348
0.06846
0.067516
0.0665246
0.0654949
0.0644358
0.063355
0.0622592
0.0611548
0.0600545
0.0589691
0.057818
0.0565272
0.0126637
0.0111043
0.00974884
0.00850684
0.00727619
0.00606733
0.00489161
0.00375342
0.00265721
0.00160846
0.000613655
-0.00032069
-0.00118832
-0.00198307
-0.00269901
-0.00333027
-0.0038725
-0.00432139
-0.00467332
-0.00492499
-0.00507363
-0.00511685
-0.00505258
-0.00487909
-0.00459518
-0.00420047
-0.00369507
-0.00307947
-0.00235473
-0.00152236
-0.000584223
0.000457554
0.00160043
0.0028414
0.0041771
0.00560376
0.00711729
0.00871338
0.0103876
0.0121354
0.0139518
0.0158315
0.017769
0.0197588
0.0217951
0.0238719
0.0259825
0.0281203
0.0302788
0.0324517
0.034632
0.0368129
0.0389872
0.0411479
0.0432879
0.0454004
0.0474782
0.049514
0.0515012
0.0534338
0.0553054
0.0571098
0.0588411
0.0604933
0.0620607
0.0635383
0.0649218
0.0662065
0.0673881
0.0684631
0.0694287
0.0702822
0.0710212
0.0716439
0.0721494
0.072537
0.072807
0.07296
0.0729973
0.0729202
0.0727309
0.0724326
0.0720302
0.0715291
0.0709348
0.0702527
0.0694886
0.0686484
0.0677388
0.066767
0.0657407
0.0646677
0.0635554
0.0624105
0.0612385
0.0600448
0.0588418
0.0576399
0.0563436
0.0548671
0.0142014
0.0124593
0.0109596
0.00960093
0.00826686
0.00696727
0.0057136
0.00450903
0.003357
0.00226206
0.00122949
0.000264719
-0.000626968
-0.00144027
-0.00217
-0.00281182
-0.00336141
-0.00381569
-0.00417141
-0.00442575
-0.00457658
-0.00462191
-0.00455992
-0.00438915
-0.00410889
-0.00371899
-0.00321963
-0.00261139
-0.00189551
-0.00107362
-0.000147568
0.000880552
0.00200817
0.00323218
0.00454922
0.0059556
0.00744741
0.00902052
0.0106706
0.0123929
0.0141825
0.0160343
0.017943
0.0199033
0.0219096
0.0239555
0.0260348
0.0281411
0.0302681
0.0324094
0.0345583
0.0367079
0.0388514
0.040982
0.0430926
0.0451764
0.0472261
0.0492347
0.0511959
0.0531037
0.0549519
0.0567341
0.0584445
0.0600774
0.0616271
0.0630886
0.0644574
0.0657287
0.0668983
0.0679628
0.0689194
0.0697654
0.0704981
0.0711156
0.0716167
0.072001
0.0722683
0.072419
0.0724538
0.0723738
0.0721807
0.0718777
0.0714693
0.0709604
0.0703555
0.0696593
0.068877
0.0680139
0.0670762
0.06607
0.0650019
0.0638787
0.0627065
0.0614912
0.0602375
0.05895
0.0576409
0.0563207
0.0548793
0.05322
0.0156971
0.0137751
0.0121318
0.0106555
0.00921537
0.00782174
0.00648586
0.00521017
0.00399733
0.00285085
0.00177488
0.000774135
-0.000146856
-0.000983857
-0.00173248
-0.0023893
-0.0029508
-0.00341426
-0.00377709
-0.0040372
-0.00419279
-0.00424215
-0.00418376
-0.00401669
-0.00374062
-0.00335551
-0.00286159
-0.00225971
-0.00155131
-0.000738061
0.000178211
0.00119531
0.00231055
0.00352082
0.0048228
0.00621294
0.00768744
0.00924222
0.0108728
0.0125746
0.0143426
0.016172
0.0180578
0.0199946
0.0219766
0.0239978
0.0260522
0.0281333
0.0302352
0.0323515
0.0344754
0.0366003
0.0387198
0.040827
0.0429148
0.0449763
0.0470044
0.0489923
0.0509339
0.0528232
0.0546539
0.0564198
0.058115
0.0597341
0.0612714
0.0627216
0.0640801
0.0653422
0.0665036
0.0675611
0.0685118
0.0693528
0.0700811
0.0706946
0.0711924
0.0715736
0.0718379
0.0719853
0.0720161
0.0719311
0.0717318
0.0714213
0.0710035
0.0704826
0.0698624
0.069147
0.0683409
0.0674494
0.0664778
0.0654315
0.0643158
0.0631364
0.0618987
0.0606079
0.0592681
0.0578832
0.0564657
0.0550259
0.05344
0.0516008
0.0171362
0.0150368
0.0132512
0.0116563
0.0101087
0.00861844
0.00719708
0.00584662
0.00456874
0.00336615
0.00224225
0.00120095
0.00024605
-0.000619006
-0.00139113
-0.00206688
-0.00264395
-0.0031199
-0.00349288
-0.00376138
-0.00392375
-0.00397862
-0.00392503
-0.00376251
-0.00349088
-0.00311017
-0.00262094
-0.00202438
-0.001322
-0.000515424
0.000393417
0.0014021
0.00250784
0.00370759
0.00499821
0.00637622
0.00783775
0.00937865
0.0109944
0.0126805
0.0144322
0.0162448
0.0181132
0.0200322
0.0219959
0.0239984
0.0260339
0.0280964
0.0301794
0.0322769
0.0343822
0.0364891
0.0385911
0.0406814
0.0427528
0.0447984
0.0468113
0.0487849
0.0507132
0.0525902
0.0544093
0.0561645
0.0578503
0.0594611
0.0609911
0.0624348
0.0637874
0.0650445
0.0662017
0.0672558
0.0682038
0.0690423
0.0697683
0.0703796
0.0708751
0.0712538
0.0715152
0.0716586
0.0716843
0.0715927
0.0713854
0.071065
0.0706349
0.0700984
0.0694588
0.0687196
0.0678852
0.0669604
0.06595
0.0648584
0.0636899
0.0624493
0.0611414
0.059771
0.0583416
0.0568566
0.0553288
0.0537684
0.0520388
0.0500225
0.0185056
0.0162318
0.0143046
0.012591
0.0109348
0.00934608
0.00783697
0.00640854
0.0050621
0.00379973
0.00262415
0.00153847
0.000545647
-0.000351455
-0.00115052
-0.00184887
-0.00244456
-0.00293593
-0.00332172
-0.00360057
-0.00377126
-0.00383294
-0.00378517
-0.00362769
-0.00336036
-0.00298353
-0.00249823
-0.00190583
-0.00120781
-0.000405855
0.000497832
0.00150064
0.00259981
0.00379247
0.00507553
0.00644543
0.00789816
0.00942951
0.0110351
0.0127104
0.0144511
0.0162523
0.0181089
0.0200155
0.0219666
0.0239565
0.0259795
0.0280292
0.0300996
0.0321846
0.0342778
0.0363731
0.0384641
0.0405438
0.042605
0.044641
0.0466452
0.048611
0.0505322
0.0524028
0.0542163
0.0559667
0.0576487
0.0592566
0.0607842
0.0622262
0.0635775
0.0648338
0.0659909
0.0670453
0.0679936
0.0688324
0.0695584
0.0701694
0.0706641
0.0710413
0.0712999
0.0714391
0.071459
0.07136
0.0711433
0.0708111
0.070366
0.0698108
0.0691483
0.0683816
0.067515
0.0665528
0.0654992
0.0643577
0.0631319
0.0618257
0.0604438
0.0589904
0.0574687
0.0558814
0.0542416
0.0525599
0.0506875
0.0484968
0.019794
0.0173481
0.0152803
0.013448
0.0116824
0.00999403
0.00839524
0.00688634
0.0054685
0.00414341
0.00291295
0.00177952
0.00074546
-0.000187138
-0.00101602
-0.00173985
-0.00235692
-0.0028662
-0.00326676
-0.00355752
-0.00373784
-0.00380744
-0.00376611
-0.00361368
-0.00335032
-0.00297688
-0.00249464
-0.001905
-0.00120951
-0.000410162
0.000490587
0.00149013
0.00258586
0.00377499
0.00505426
0.00641992
0.00786791
0.00939406
0.0109942
0.0126639
0.0143986
0.0161936
0.0180437
0.0199437
0.0218881
0.0238714
0.0258877
0.0279308
0.0299947
0.0320735
0.0341611
0.0362512
0.0383375
0.0404128
0.0424702
0.0445031
0.046505
0.0484692
0.0503894
0.0522595
0.0540733
0.0558249
0.0575086
0.0591188
0.0606492
0.062094
0.0634486
0.0647086
0.0658696
0.066928
0.06788
0.0687218
0.0694504
0.0700633
0.0705589
0.0709356
0.0711921
0.0713273
0.0713412
0.0712341
0.0710071
0.0706615
0.0701995
0.0696231
0.0689347
0.0681376
0.0672354
0.0662323
0.0651316
0.0639362
0.0626491
0.0612738
0.0598146
0.0582755
0.0566591
0.0549675
0.0532144
0.0514109
0.0493964
0.0470337
0.0209904
0.0183745
0.0161676
0.0142167
0.012341
0.0105518
0.00886168
0.00727064
0.00577909
0.00438861
0.0031006
0.00191665
0.0008386
-0.000132036
-0.000993564
-0.00174513
-0.00238583
-0.00291491
-0.00333162
-0.00363557
-0.00382668
-0.00390493
-0.00387019
-0.00372258
-0.00346282
-0.00309216
-0.00261187
-0.00202337
-0.00132858
-0.000529863
0.000370264
0.0013694
0.00246503
0.00365415
0.00493325
0.00629846
0.00774579
0.00927127
0.0108707
0.0125397
0.0142736
0.0160675
0.0179165
0.0198155
0.0217591
0.0237416
0.0257572
0.0277998
0.0298634
0.0319425
0.0340309
0.0361222
0.0382099
0.0402871
0.042347
0.0443833
0.0463892
0.048358
0.0502832
0.0521589
0.053979
0.0557375
0.0574286
0.0590463
0.0605842
0.0620368
0.0633994
0.0646675
0.0658365
0.0669024
0.0678613
0.0687094
0.0694434
0.0700605
0.070559
0.0709367
0.071192
0.0713238
0.0713319
0.0712166
0.0709784
0.0706184
0.0701378
0.0695383
0.068822
0.067992
0.0670516
0.0660044
0.0648532
0.0636004
0.0622487
0.0608013
0.0592622
0.057635
0.0559218
0.0541243
0.0522567
0.050331
0.0481751
0.0456422
0.0220845
0.0193011
0.0169559
0.0148866
0.0129006
0.0110094
0.0092267
0.00755198
0.005985
0.004527
0.00317912
0.00194241
0.00081809
-0.000192549
-0.001089
-0.00187034
-0.00253627
-0.0030864
-0.00352045
-0.00383871
-0.00404134
-0.0041284
-0.00410008
-0.00395704
-0.00370046
-0.00333161
-0.00285181
-0.00226281
-0.001567
-0.000766858
0.000135295
0.00113717
0.00223602
0.0034285
0.00471092
0.00607953
0.00753051
0.00905989
0.0106634
0.0123364
0.0140743
0.0158724
0.0177259
0.0196296
0.0215781
0.0235656
0.0255864
0.0276346
0.0297044
0.0317901
0.0338855
0.0359841
0.0380796
0.0401651
0.0422341
0.0442801
0.0462963
0.0482757
0.0502121
0.0520995
0.0539318
0.055703
0.0574069
0.0590373
0.0605879
0.0620533
0.0634286
0.0647092
0.0658902
0.0669673
0.0679366
0.0687942
0.0695365
0.0701606
0.0706641
0.0710445
0.0712998
0.0714291
0.0714321
0.0713087
0.0710592
0.0706839
0.0701837
0.0695598
0.0688142
0.0679495
0.0669686
0.0658747
0.0646702
0.0633571
0.061938
0.060416
0.0587946
0.0570772
0.0552654
0.0533605
0.0513776
0.0493293
0.0470325
0.0443308
0.0230679
0.0201181
0.0176355
0.0154481
0.0133514
0.0113574
0.00948109
0.00772134
0.00607752
0.00455035
0.00314073
0.00184951
0.000677217
-0.000375454
-0.00130831
-0.00212091
-0.00281323
-0.00338538
-0.00383786
-0.00417109
-0.00438538
-0.0044811
-0.004459
-0.00432022
-0.00406598
-0.00369758
-0.00321672
-0.00262569
-0.00192702
-0.00112301
-0.000215857
0.000791894
0.00189708
0.00309614
0.0043855
0.0057616
0.00722061
0.00875838
0.0103704
0.0120522
0.0137992
0.0156069
0.0174702
0.0193842
0.0213432
0.0233416
0.0253736
0.0274337
0.029516
0.0316146
0.0337231
0.0358353
0.0379449
0.0400454
0.0421299
0.0441919
0.0462245
0.0482207
0.0501745
0.0520798
0.0539303
0.0557198
0.0574419
0.0590904
0.060659
0.0621423
0.0635351
0.0648326
0.0660297
0.0671219
0.0681052
0.0689757
0.0697296
0.0703634
0.0708742
0.0712591
0.0715163
0.0716445
0.0716432
0.0715123
0.0712515
0.0708607
0.0703404
0.0696915
0.0689155
0.0680147
0.0669916
0.0658489
0.0645888
0.0632132
0.0617244
0.0601256
0.0584199
0.0566105
0.0546985
0.052685
0.0505857
0.0484145
0.045977
0.0431075
0.0239319
0.0208167
0.0181971
0.0158914
0.0136838
0.0115868
0.00961587
0.00777001
0.00604811
0.00445054
0.00297787
0.00163057
0.000408909
-0.000687315
-0.00165765
-0.00250244
-0.00322206
-0.00381718
-0.00428862
-0.00463689
-0.00486264
-0.00496683
-0.00495065
-0.00481535
-0.00456217
-0.00419277
-0.00370943
-0.0031147
-0.00241091
-0.00160019
-0.000685029
0.000331514
0.00144602
0.00265505
0.00395526
0.00534306
0.00681438
0.00836486
0.00999001
0.0116854
0.0134466
0.0152691
0.0171478
0.0190774
0.0210526
0.0230677
0.0251172
0.0271953
0.0292962
0.0314138
0.0335418
0.035674
0.0378043
0.0399261
0.0420325
0.0441168
0.046172
0.0481915
0.0501689
0.0520983
0.053973
0.0557865
0.0575325
0.0592046
0.0607967
0.0623031
0.0637183
0.0650371
0.0662544
0.0673657
0.068367
0.0692541
0.0700229
0.0706693
0.0711899
0.0715817
0.0718427
0.0719714
0.0719674
0.0718298
0.0715582
0.071152
0.0706115
0.0699372
0.0691302
0.0681924
0.0671258
0.0659328
0.0646154
0.0631754
0.0616151
0.0599375
0.0581459
0.0562428
0.0542291
0.0521057
0.0498892
0.0475945
0.0450164
0.0419796
0.0246676
0.0213882
0.0186315
0.0162073
0.0138887
0.0116884
0.00962217
0.00768929
0.00588838
0.00421945
0.0026827
0.00127811
5.7954e-06
-0.00113461
-0.00214333
-0.00302107
-0.00376869
-0.00438724
-0.00487758
-0.00524063
-0.00547764
-0.00558996
-0.00557893
-0.00544585
-0.00519233
-0.0048206
-0.00433325
-0.00373266
-0.00302099
-0.00220066
-0.00127473
-0.00024659
0.00088045
0.00210322
0.00341837
0.00482199
0.00630976
0.00787728
0.00952021
0.0112342
0.0130149
0.0148574
0.0167566
0.0187074
0.0207044
0.0227423
0.0248153
0.0269177
0.0290432
0.0311859
0.0333397
0.0354984
0.0376559
0.0398055
0.0419401
0.0440531
0.0461375
0.0481866
0.0501941
0.0521536
0.0540584
0.0559018
0.0576775
0.0593791
0.0610003
0.062535
0.0639775
0.0653224
0.0665644
0.0676992
0.0687225
0.06963
0.070417
0.0710791
0.0716124
0.0720138
0.0722809
0.0724123
0.072407
0.072264
0.0719823
0.0715613
0.0710008
0.0703011
0.0694628
0.0684874
0.0673766
0.0661323
0.0647562
0.0632503
0.0616169
0.0598591
0.0579799
0.0559816
0.0538648
0.0516301
0.0492955
0.0468767
0.0441576
0.0409536
0.0252671
0.0218237
0.0189303
0.0163875
0.0139574
0.0116532
0.00949141
0.00747087
0.00559014
0.00384895
0.00224718
0.000784647
-0.000539089
-0.00172423
-0.00277196
-0.0036832
-0.0044591
-0.00510091
-0.00560984
-0.00598744
-0.00623532
-0.00635498
-0.00634784
-0.0062156
-0.00596045
-0.00558494
-0.0050915
-0.00448235
-0.00375995
-0.00292736
-0.001988
-0.000945189
0.00019805
0.00143856
0.00277265
0.00419608
0.00570446
0.00729357
0.00895918
0.0106969
0.012502
0.0143696
0.0162947
0.0182722
0.020297
0.0223636
0.0244662
0.0265985
0.0287548
0.0309289
0.0331149
0.0353066
0.0374978
0.0396815
0.0418509
0.043999
0.0461191
0.0482044
0.0502483
0.0522442
0.0541851
0.0560644
0.0578758
0.0596129
0.0612689
0.0628374
0.0643123
0.0656882
0.0669598
0.0681227
0.0691725
0.0701043
0.0709131
0.071594
0.0721432
0.0725571
0.0728331
0.0729696
0.072965
0.0728181
0.0725275
0.0720924
0.0715125
0.0707876
0.0699182
0.0689051
0.0677495
0.0664531
0.0650175
0.0634445
0.0617369
0.0598975
0.0579293
0.0558343
0.0536128
0.0512657
0.0488119
0.0462684
0.0434077
0.0400358
0.0257228
0.0221153
0.0190854
0.0164238
0.0138815
0.0114731
0.00921531
0.00710657
0.00514532
0.00333118
0.00166378
0.000142793
-0.0012326
-0.00246318
-0.00355026
-0.00449506
-0.00529905
-0.00596375
-0.00649099
-0.00688269
-0.00714059
-0.00726635
-0.00726177
-0.0071291
-0.00687088
-0.00648956
-0.0059874
-0.00536689
-0.00463117
-0.00378375
-0.00282801
-0.00176696
-0.000603598
0.000658555
0.00201542
0.00346267
0.00499608
0.00661157
0.00830482
0.0100711
0.0119056
0.0138035
0.0157599
0.0177699
0.0198283
0.0219294
0.0240672
0.0262356
0.0284287
0.0306406
0.0328653
0.0350964
0.0373276
0.0395519
0.0417624
0.0439524
0.0461149
0.0482429
0.0503295
0.0523679
0.0543511
0.0562727
0.0581261
0.0599047
0.0616013
0.0632091
0.064722
0.0661343
0.0674408
0.0686368
0.0697175
0.0706778
0.0715121
0.0722155
0.072784
0.0732137
0.0735019
0.0736461
0.0736445
0.0734954
0.0731974
0.0727494
0.072151
0.0714018
0.0705017
0.0694509
0.0682505
0.0669015
0.0654056
0.063765
0.0619822
0.0600602
0.0580016
0.0558083
0.0534808
0.05102
0.0484461
0.0457767
0.0427734
0.0392325
0.0260274
0.0222554
0.0190886
0.016308
0.0136534
0.0111401
0.00878566
0.00658823
0.00454595
0.00265842
0.000925111
-0.000654818
-0.00208215
-0.00335843
-0.00448481
-0.00546292
-0.0062946
-0.00698186
-0.00752693
-0.00793181
-0.00819847
-0.00832899
-0.00832572
-0.00819121
-0.00792793
-0.00753819
-0.00702453
-0.00639013
-0.00563862
-0.00477351
-0.00379788
-0.00271472
-0.00152741
-0.000239912
0.00114358
0.00261894
0.00418208
0.00582882
0.00755448
0.00935412
0.011223
0.0131565
0.0151499
0.0171981
0.0192958
0.0214371
0.023616
0.0258265
0.0280626
0.0303187
0.0325884
0.0348653
0.0371427
0.039414
0.0416724
0.043911
0.0461225
0.0482996
0.0504353
0.0525226
0.0545547
0.056525
0.0584267
0.0602529
0.061996
0.0636491
0.0652059
0.0666603
0.0680072
0.0692415
0.070358
0.071351
0.0722151
0.0729451
0.0735367
0.0739861
0.0742898
0.0744448
0.0744487
0.0742996
0.073996
0.0735368
0.0729213
0.0721488
0.0712187
0.0701307
0.0688853
0.0674836
0.0659273
0.0642187
0.0623601
0.0603545
0.0582042
0.0559112
0.0534762
0.0509005
0.0482051
0.0454087
0.0422614
0.0385498
0.026174
0.0222365
0.0189321
0.0160323
0.0132649
0.010646
0.00819421
0.00590762
0.00378403
0.00182275
2.3195e-05
-0.0016158
-0.00309536
-0.00441708
-0.00558246
-0.00659352
-0.00745246
-0.00816172
-0.00872363
-0.00914043
-0.00941454
-0.00954855
-0.00954511
-0.00940674
-0.00913581
-0.00873491
-0.00820725
-0.00755654
-0.00678645
-0.0059002
-0.00490085
-0.00379181
-0.00257694
-0.00126037
0.000153949
0.00166205
0.00325972
0.00494238
0.00670511
0.008543
0.0104515
0.0124262
0.0144622
0.0165544
0.0186969
0.0208841
0.02311
0.0253687
0.0276544
0.0299609
0.0322818
0.0346106
0.0369408
0.0392658
0.0415787
0.0438724
0.0461395
0.0483722
0.0505635
0.0527064
0.054794
0.0568194
0.0587759
0.0606558
0.0624517
0.0641563
0.0657631
0.0672659
0.0686591
0.0699371
0.0710943
0.0721249
0.0730234
0.0737845
0.0744037
0.0748767
0.0751995
0.0753685
0.0753809
0.0752345
0.0749277
0.0744594
0.0738286
0.0730341
0.0720748
0.07095
0.06966
0.0682059
0.0665894
0.0648126
0.0628778
0.0607875
0.0585442
0.0561503
0.0536064
0.0509143
0.048096
0.0451711
0.0418778
0.0379932
0.0261556
0.0220513
0.0186081
0.0155881
0.0127073
0.00998229
0.00743271
0.00505647
0.00285119
0.000815966
-0.00105013
-0.00274812
-0.00427978
-0.00564656
-0.00685057
-0.0078941
-0.00877963
-0.00950984
-0.0100873
-0.0105147
-0.0107949
-0.0109309
-0.0109252
-0.0107804
-0.0104991
-0.0100846
-0.00954055
-0.00887077
-0.00807869
-0.00716752
-0.00614073
-0.00500226
-0.00375618
-0.0024064
-0.000956665
0.000588928
0.00222575
0.00394889
0.00575346
0.00763479
0.00958847
0.01161
0.0136942
0.0158358
0.0180288
0.0202677
0.0225468
0.0248601
0.0272015
0.0295646
0.0319429
0.03433
0.0367196
0.0391049
0.041479
0.0438345
0.0461636
0.0484585
0.0507121
0.0529174
0.0550672
0.0571545
0.0591721
0.0611122
0.0629672
0.0647298
0.0663932
0.0679508
0.0693964
0.0707238
0.0719271
0.0730006
0.0739386
0.0747358
0.0753873
0.0758883
0.0762341
0.0764207
0.0764449
0.0763043
0.0759973
0.0755224
0.0748783
0.0740633
0.0730758
0.071915
0.0705811
0.0690752
0.0673989
0.065554
0.0635423
0.0613666
0.0590293
0.0565331
0.053879
0.051069
0.0481259
0.0450704