/*--------------------------------*- C++ -*----------------------------------*\
  =========                 |
  \\      /  F ield         | OpenFOAM: The Open Source CFD Toolbox
   \\    /   O peration     | Website:  https://openfoam.org
    \\  /    A nd           | Version:  11
     \\/     M anipulation  |
\*---------------------------------------------------------------------------*/
FoamFile
{
    format      ascii;
    class       volVectorField;
    location    "5.6";
    object      U;
}
// * * * * * * * * * * * * * * * * * * * * * * * * * * * * * * * * * * * * * //

dimensions      [0 1 -1 0 0 0 0];

internalField   nonuniform List<vector> 
10100
(
(2.91639e-06 -3.10463e-06 0)
(1.46171e-05 -8.03524e-06 0)
(3.36266e-05 -9.5444e-06 0)
(5.18889e-05 -8.44745e-06 0)
(6.42816e-05 -5.96304e-06 0)
(6.82758e-05 -2.79163e-06 0)
(6.26563e-05 6.23787e-07 0)
(4.69055e-05 4.08699e-06 0)
(2.09801e-05 7.45445e-06 0)
(-1.49025e-05 1.06634e-05 0)
(-6.03249e-05 1.36595e-05 0)
(-0.000114773 1.64514e-05 0)
(-0.000177676 1.90156e-05 0)
(-0.000248411 2.13583e-05 0)
(-0.000326309 2.34761e-05 0)
(-0.000410735 2.53594e-05 0)
(-0.000500996 2.70225e-05 0)
(-0.000596427 2.84862e-05 0)
(-0.000696391 2.97413e-05 0)
(-0.000800225 3.08083e-05 0)
(-0.000907294 3.16855e-05 0)
(-0.00101698 3.23574e-05 0)
(-0.00112869 3.28467e-05 0)
(-0.00124181 3.31659e-05 0)
(-0.00135578 3.33171e-05 0)
(-0.00147007 3.33103e-05 0)
(-0.00158412 3.31572e-05 0)
(-0.00169743 3.28587e-05 0)
(-0.00180951 3.24153e-05 0)
(-0.00191989 3.18373e-05 0)
(-0.0020281 3.11347e-05 0)
(-0.00213374 3.03128e-05 0)
(-0.00223637 2.93776e-05 0)
(-0.00233562 2.83364e-05 0)
(-0.0024311 2.71928e-05 0)
(-0.00252248 2.59485e-05 0)
(-0.00260942 2.46093e-05 0)
(-0.00269161 2.31839e-05 0)
(-0.00276875 2.16806e-05 0)
(-0.00284057 2.01049e-05 0)
(-0.00290683 1.84615e-05 0)
(-0.00296729 1.67566e-05 0)
(-0.00302174 1.4992e-05 0)
(-0.00306998 1.31692e-05 0)
(-0.00311185 1.12978e-05 0)
(-0.00314719 9.38787e-06 0)
(-0.00317588 7.44478e-06 0)
(-0.00319779 5.47345e-06 0)
(-0.00321286 3.47734e-06 0)
(-0.00322099 1.46121e-06 0)
(-0.00322215 -5.64766e-07 0)
(-0.00321633 -2.59345e-06 0)
(-0.00320351 -4.6234e-06 0)
(-0.00318372 -6.64803e-06 0)
(-0.00315701 -8.65641e-06 0)
(-0.00312344 -1.06416e-05 0)
(-0.00308311 -1.25974e-05 0)
(-0.00303614 -1.45157e-05 0)
(-0.00298268 -1.63911e-05 0)
(-0.00292289 -1.8217e-05 0)
(-0.00285697 -1.99824e-05 0)
(-0.00278515 -2.16784e-05 0)
(-0.00270766 -2.32998e-05 0)
(-0.0026248 -2.48383e-05 0)
(-0.00253686 -2.62826e-05 0)
(-0.00244418 -2.76247e-05 0)
(-0.00234711 -2.8859e-05 0)
(-0.00224604 -2.99785e-05 0)
(-0.00214136 -3.0975e-05 0)
(-0.00203352 -3.18415e-05 0)
(-0.00192297 -3.25697e-05 0)
(-0.00181019 -3.31501e-05 0)
(-0.00169568 -3.35748e-05 0)
(-0.00157998 -3.38391e-05 0)
(-0.00146364 -3.39389e-05 0)
(-0.00134722 -3.38687e-05 0)
(-0.00123129 -3.36229e-05 0)
(-0.00111647 -3.31971e-05 0)
(-0.00100336 -3.25875e-05 0)
(-0.000892576 -3.17892e-05 0)
(-0.000784768 -3.07967e-05 0)
(-0.000680577 -2.96064e-05 0)
(-0.000580656 -2.82174e-05 0)
(-0.000485657 -2.66291e-05 0)
(-0.000396229 -2.48405e-05 0)
(-0.000313016 -2.28519e-05 0)
(-0.000236646 -2.06662e-05 0)
(-0.000167727 -1.82874e-05 0)
(-0.000106842 -1.57196e-05 0)
(-5.4527e-05 -1.29712e-05 0)
(-1.12622e-05 -1.0058e-05 0)
(2.25562e-05 -7.0058e-06 0)
(4.6656e-05 -3.85391e-06 0)
(6.09499e-05 -6.6526e-07 0)
(6.56299e-05 2.44905e-06 0)
(6.13194e-05 5.28923e-06 0)
(4.92819e-05 7.51089e-06 0)
(3.18678e-05 8.50539e-06 0)
(1.38078e-05 7.2368e-06 0)
(2.72275e-06 2.73071e-06 0)
(6.83382e-06 -1.42681e-05 0)
(2.88549e-05 -3.05908e-05 0)
(5.89441e-05 -3.35513e-05 0)
(8.35809e-05 -2.62515e-05 0)
(9.33644e-05 -1.26579e-05 0)
(8.27995e-05 4.52115e-06 0)
(4.86637e-05 2.34548e-05 0)
(-1.07505e-05 4.30436e-05 0)
(-9.60685e-05 6.25499e-05 0)
(-0.000207113 8.15146e-05 0)
(-0.000343218 9.96576e-05 0)
(-0.000503324 0.000116764 0)
(-0.000686101 0.000132737 0)
(-0.000890046 0.000147488 0)
(-0.00111358 0.000160965 0)
(-0.00135499 0.000173141 0)
(-0.00161253 0.000184026 0)
(-0.00188447 0.000193594 0)
(-0.00216902 0.000201905 0)
(-0.00246441 0.000208947 0)
(-0.00276894 0.000214761 0)
(-0.00308086 0.000219358 0)
(-0.0033985 0.000222772 0)
(-0.00372022 0.00022504 0)
(-0.00404442 0.000226199 0)
(-0.00436953 0.00022629 0)
(-0.00469408 0.000225349 0)
(-0.00501658 0.00022341 0)
(-0.00533565 0.000220512 0)
(-0.00564994 0.000216696 0)
(-0.00595816 0.000212004 0)
(-0.00625906 0.000206476 0)
(-0.00655147 0.000200154 0)
(-0.00683426 0.000193078 0)
(-0.00710636 0.000185283 0)
(-0.00736676 0.000176807 0)
(-0.00761451 0.00016769 0)
(-0.0078487 0.000157973 0)
(-0.0080685 0.000147695 0)
(-0.00827311 0.000136897 0)
(-0.00846183 0.00012562 0)
(-0.00863398 0.000113905 0)
(-0.00878894 0.00010179 0)
(-0.00892617 8.93108e-05 0)
(-0.00904518 7.65066e-05 0)
(-0.00914554 6.34236e-05 0)
(-0.00922687 5.01038e-05 0)
(-0.00928887 3.65851e-05 0)
(-0.00933128 2.29124e-05 0)
(-0.00935393 9.13313e-06 0)
(-0.00935669 -4.71013e-06 0)
(-0.0093395 -1.85755e-05 0)
(-0.00930238 -3.24197e-05 0)
(-0.00924541 -4.61977e-05 0)
(-0.00916871 -5.986e-05 0)
(-0.00907251 -7.33548e-05 0)
(-0.00895709 -8.66325e-05 0)
(-0.0088228 -9.96455e-05 0)
(-0.00867005 -0.000112346 0)
(-0.00849937 -0.000124682 0)
(-0.0083113 -0.0001366 0)
(-0.00810649 -0.000148049 0)
(-0.00788566 -0.000158978 0)
(-0.00764961 -0.000169331 0)
(-0.0073992 -0.00017905 0)
(-0.00713537 -0.000188085 0)
(-0.00685912 -0.000196389 0)
(-0.00657157 -0.000203913 0)
(-0.00627384 -0.000210608 0)
(-0.00596717 -0.000216424 0)
(-0.00565284 -0.000221312 0)
(-0.00533222 -0.00022522 0)
(-0.00500673 -0.000228104 0)
(-0.00467784 -0.000229923 0)
(-0.00434709 -0.000230642 0)
(-0.00401608 -0.000230228 0)
(-0.00368642 -0.000228648 0)
(-0.0033598 -0.000225874 0)
(-0.00303791 -0.000221879 0)
(-0.00272252 -0.000216638 0)
(-0.00241539 -0.00021013 0)
(-0.00211828 -0.000202343 0)
(-0.001833 -0.000193273 0)
(-0.00156132 -0.000182922 0)
(-0.00130501 -0.000171305 0)
(-0.0010658 -0.000158443 0)
(-0.000845356 -0.000144372 0)
(-0.000645266 -0.000129145 0)
(-0.00046701 -0.000112836 0)
(-0.000311911 -9.55532e-05 0)
(-0.000181083 -7.74501e-05 0)
(-7.53561e-05 -5.87452e-05 0)
(4.83523e-06 -3.97517e-05 0)
(5.96044e-05 -2.0931e-05 0)
(8.98293e-05 -2.97377e-06 0)
(9.74483e-05 1.3073e-05 0)
(8.57971e-05 2.56274e-05 0)
(6.01634e-05 3.2297e-05 0)
(2.95013e-05 2.95844e-05 0)
(7.17706e-06 1.37881e-05 0)
(7.30579e-06 -3.11056e-05 0)
(2.90243e-05 -5.93873e-05 0)
(5.41002e-05 -5.96533e-05 0)
(6.68604e-05 -3.83389e-05 0)
(5.62358e-05 -2.56148e-06 0)
(1.5278e-05 4.19816e-05 0)
(-6.04578e-05 9.14935e-05 0)
(-0.00017356 0.000143173 0)
(-0.000325169 0.000195225 0)
(-0.000515328 0.000246337 0)
(-0.000743298 0.000295625 0)
(-0.00100771 0.000342495 0)
(-0.00130677 0.000386516 0)
(-0.00163839 0.000427384 0)
(-0.00200022 0.000464932 0)
(-0.00238976 0.000499024 0)
(-0.00280445 0.000529588 0)
(-0.00324156 0.000556616 0)
(-0.00369843 0.0005801 0)
(-0.00417236 0.000600081 0)
(-0.00466061 0.000616595 0)
(-0.00516054 0.000629717 0)
(-0.00566951 0.000639503 0)
(-0.00618492 0.000646048 0)
(-0.00670425 0.000649439 0)
(-0.00722505 0.00064977 0)
(-0.00774492 0.000647145 0)
(-0.00826154 0.000641665 0)
(-0.00877269 0.000633432 0)
(-0.00927621 0.000622558 0)
(-0.00977001 0.000609158 0)
(-0.0102521 0.00059334 0)
(-0.0107207 0.000575219 0)
(-0.0111738 0.000554908 0)
(-0.0116098 0.000532517 0)
(-0.0120271 0.000508159 0)
(-0.012424 0.000481948 0)
(-0.0127993 0.000454001 0)
(-0.0131514 0.000424431 0)
(-0.0134792 0.000393349 0)
(-0.0137815 0.000360877 0)
(-0.0140571 0.000327134 0)
(-0.0143052 0.000292231 0)
(-0.0145249 0.000256286 0)
(-0.0147153 0.00021942 0)
(-0.0148757 0.000181749 0)
(-0.0150057 0.000143396 0)
(-0.0151046 0.000104484 0)
(-0.0151721 6.51366e-05 0)
(-0.0152079 2.54838e-05 0)
(-0.0152118 -1.43409e-05 0)
(-0.0151837 -5.42145e-05 0)
(-0.0151237 -9.40107e-05 0)
(-0.0150318 -0.000133592 0)
(-0.0149084 -0.000172818 0)
(-0.0147538 -0.000211553 0)
(-0.0145684 -0.000249654 0)
(-0.0143528 -0.000286977 0)
(-0.0141078 -0.000323383 0)
(-0.013834 -0.000358725 0)
(-0.0135325 -0.000392854 0)
(-0.0132042 -0.000425623 0)
(-0.0128504 -0.000456886 0)
(-0.0124723 -0.000486492 0)
(-0.0120712 -0.000514286 0)
(-0.0116488 -0.000540124 0)
(-0.0112065 -0.000563864 0)
(-0.0107462 -0.000585367 0)
(-0.0102696 -0.000604493 0)
(-0.00977884 -0.000621105 0)
(-0.00927581 -0.000635068 0)
(-0.00876273 -0.000646248 0)
(-0.00824183 -0.000654521 0)
(-0.00771547 -0.000659774 0)
(-0.00718608 -0.000661903 0)
(-0.00665615 -0.000660811 0)
(-0.00612826 -0.000656411 0)
(-0.00560507 -0.000648623 0)
(-0.00508927 -0.00063738 0)
(-0.00458359 -0.000622623 0)
(-0.0040908 -0.000604309 0)
(-0.00361368 -0.000582416 0)
(-0.003155 -0.000556944 0)
(-0.00271753 -0.000527917 0)
(-0.00230397 -0.00049539 0)
(-0.00191697 -0.000459452 0)
(-0.00155904 -0.000420236 0)
(-0.00123258 -0.00037793 0)
(-0.000939749 -0.000332793 0)
(-0.000682457 -0.000285184 0)
(-0.000462245 -0.000235594 0)
(-0.000280182 -0.000184691 0)
(-0.000136708 -0.000133403 0)
(-3.1438e-05 -8.30167e-05 0)
(3.71027e-05 -3.53418e-05 0)
(7.18076e-05 7.07709e-06 0)
(7.73172e-05 4.0677e-05 0)
(6.04863e-05 6.05534e-05 0)
(3.2163e-05 6.01931e-05 0)
(8.40976e-06 3.1742e-05 0)
(5.96234e-06 -4.61282e-05 0)
(2.09759e-05 -8.10367e-05 0)
(3.10163e-05 -7.17039e-05 0)
(2.05343e-05 -2.8145e-05 0)
(-2.20067e-05 3.89792e-05 0)
(-0.000104181 0.00012124 0)
(-0.000230971 0.00021232 0)
(-0.000405485 0.000307786 0)
(-0.000629116 0.00040432 0)
(-0.000902096 0.000499612 0)
(-0.0012236 0.000591954 0)
(-0.00159209 0.000680141 0)
(-0.00200542 0.000763273 0)
(-0.00246099 0.000840752 0)
(-0.00295591 0.000912129 0)
(-0.00348706 0.000977128 0)
(-0.0040511 0.00103555 0)
(-0.00464461 0.00108734 0)
(-0.00526409 0.00113241 0)
(-0.005906 0.00117082 0)
(-0.00656683 0.00120262 0)
(-0.00724303 0.0012279 0)
(-0.00793114 0.00124679 0)
(-0.00862774 0.00125943 0)
(-0.00932946 0.00126597 0)
(-0.010033 0.0012666 0)
(-0.0107352 0.00126149 0)
(-0.011433 0.00125083 0)
(-0.0121233 0.00123482 0)
(-0.0128033 0.00121367 0)
(-0.0134701 0.00118759 0)
(-0.0141211 0.00115679 0)
(-0.0147538 0.00112149 0)
(-0.0153656 0.0010819 0)
(-0.0159544 0.00103825 0)
(-0.0165177 0.000990744 0)
(-0.0170537 0.00093962 0)
(-0.0175603 0.000885096 0)
(-0.0180357 0.000827397 0)
(-0.0184782 0.000766746 0)
(-0.0188862 0.000703372 0)
(-0.0192582 0.000637503 0)
(-0.019593 0.000569372 0)
(-0.0198893 0.000499207 0)
(-0.0201461 0.000427245 0)
(-0.0203625 0.000353724 0)
(-0.0205376 0.000278876 0)
(-0.0206707 0.000202944 0)
(-0.0207615 0.000126179 0)
(-0.0208094 4.8829e-05 0)
(-0.0208142 -2.88546e-05 0)
(-0.0207759 -0.000106617 0)
(-0.0206945 -0.000184202 0)
(-0.0205701 -0.000261348 0)
(-0.0204031 -0.000337785 0)
(-0.0201939 -0.000413241 0)
(-0.0199433 -0.000487444 0)
(-0.019652 -0.00056012 0)
(-0.0193209 -0.000630984 0)
(-0.0189511 -0.000699756 0)
(-0.0185439 -0.000766152 0)
(-0.0181007 -0.000829889 0)
(-0.0176231 -0.000890677 0)
(-0.0171127 -0.00094823 0)
(-0.0165715 -0.00100226 0)
(-0.0160014 -0.00105249 0)
(-0.0154046 -0.00109864 0)
(-0.0147835 -0.00114043 0)
(-0.0141406 -0.00117761 0)
(-0.0134784 -0.0012099 0)
(-0.0127998 -0.00123706 0)
(-0.0121075 -0.00125883 0)
(-0.0114047 -0.00127499 0)
(-0.0106944 -0.00128531 0)
(-0.00997989 -0.0012896 0)
(-0.00926451 -0.00128766 0)
(-0.00855168 -0.00127935 0)
(-0.00784492 -0.0012645 0)
(-0.00714781 -0.001243 0)
(-0.00646396 -0.00121476 0)
(-0.00579704 -0.00117971 0)
(-0.00515068 -0.00113783 0)
(-0.00452853 -0.00108913 0)
(-0.00393419 -0.00103368 0)
(-0.00337119 -0.000971626 0)
(-0.00284292 -0.000903161 0)
(-0.00235262 -0.000828582 0)
(-0.0019033 -0.000748295 0)
(-0.0014977 -0.000662853 0)
(-0.00113817 -0.000572996 0)
(-0.00082654 -0.000479713 0)
(-0.000564056 -0.000384316 0)
(-0.000351144 -0.000288568 0)
(-0.000187227 -0.000194834 0)
(-7.04548e-05 -0.000106305 0)
(2.61057e-06 -2.72736e-05 0)
(3.72849e-05 3.65078e-05 0)
(4.11653e-05 7.74738e-05 0)
(2.57102e-05 8.5895e-05 0)
(7.44647e-06 4.9074e-05 0)
(3.72279e-06 -5.5344e-05 0)
(8.06497e-06 -8.76113e-05 0)
(-3.81198e-06 -5.98518e-05 0)
(-4.58468e-05 1.46599e-05 0)
(-0.000128776 0.000122035 0)
(-0.000260295 0.000250976 0)
(-0.000445521 0.000393029 0)
(-0.000687594 0.00054178 0)
(-0.000988099 0.00069253 0)
(-0.00134717 0.000841708 0)
(-0.00176398 0.000986705 0)
(-0.00223676 0.00112556 0)
(-0.00276305 0.00125684 0)
(-0.00333993 0.00137948 0)
(-0.00396398 0.00149272 0)
(-0.00463155 0.00159603 0)
(-0.00533871 0.00168908 0)
(-0.00608139 0.00177164 0)
(-0.00685541 0.00184364 0)
(-0.00765652 0.00190503 0)
(-0.00848045 0.0019559 0)
(-0.00932295 0.00199636 0)
(-0.0101798 0.00202657 0)
(-0.0110468 0.00204674 0)
(-0.0119198 0.00205711 0)
(-0.0127949 0.00205793 0)
(-0.0136681 0.00204949 0)
(-0.0145356 0.00203209 0)
(-0.0153937 0.00200603 0)
(-0.0162389 0.00197164 0)
(-0.0170676 0.00192925 0)
(-0.0178766 0.0018792 0)
(-0.0186628 0.00182184 0)
(-0.019423 0.00175752 0)
(-0.0201545 0.00168658 0)
(-0.0208544 0.00160938 0)
(-0.0215203 0.00152629 0)
(-0.0221496 0.00143766 0)
(-0.0227401 0.00134387 0)
(-0.0232897 0.00124527 0)
(-0.0237964 0.00114225 0)
(-0.0242584 0.00103517 0)
(-0.0246741 0.000924409 0)
(-0.025042 0.000810346 0)
(-0.0253608 0.000693364 0)
(-0.0256292 0.000573849 0)
(-0.0258464 0.000452192 0)
(-0.0260115 0.000328787 0)
(-0.0261239 0.000204038 0)
(-0.0261831 7.83535e-05 0)
(-0.0261888 -4.78592e-05 0)
(-0.0261408 -0.000174186 0)
(-0.0260393 -0.000300203 0)
(-0.0258844 -0.00042548 0)
(-0.0256767 -0.000549585 0)
(-0.0254166 -0.000672079 0)
(-0.0251051 -0.000792517 0)
(-0.024743 -0.000910451 0)
(-0.0243316 -0.00102543 0)
(-0.0238722 -0.00113699 0)
(-0.0233663 -0.00124468 0)
(-0.0228158 -0.00134804 0)
(-0.0222226 -0.0014466 0)
(-0.0215887 -0.00153991 0)
(-0.0209166 -0.00162751 0)
(-0.0202087 -0.00170894 0)
(-0.0194677 -0.00178376 0)
(-0.0186965 -0.00185153 0)
(-0.0178982 -0.00191182 0)
(-0.0170759 -0.00196422 0)
(-0.0162331 -0.00200832 0)
(-0.0153734 -0.00204372 0)
(-0.0145004 -0.00207007 0)
(-0.013618 -0.00208702 0)
(-0.0127301 -0.00209425 0)
(-0.011841 -0.00209147 0)
(-0.0109547 -0.00207842 0)
(-0.0100755 -0.00205489 0)
(-0.00920786 -0.0020207 0)
(-0.00835615 -0.0019757 0)
(-0.0075248 -0.00191984 0)
(-0.00671823 -0.00185308 0)
(-0.00594084 -0.00177549 0)
(-0.00519696 -0.00168722 0)
(-0.0044908 -0.00158851 0)
(-0.00382641 -0.00147973 0)
(-0.00320764 -0.0013614 0)
(-0.00263802 -0.00123423 0)
(-0.00212074 -0.00109915 0)
(-0.0016585 -0.000957388 0)
(-0.00125342 -0.000810551 0)
(-0.000906883 -0.000660732 0)
(-0.000619352 -0.000510664 0)
(-0.000390193 -0.000363922 0)
(-0.000217411 -0.000225173 0)
(-9.73833e-05 -0.000100515 0)
(-2.45944e-05 2.12899e-06 0)
(8.72008e-06 7.26027e-05 0)
(1.36498e-05 9.8044e-05 0)
(5.3243e-06 6.12181e-05 0)
(1.08541e-06 -5.69315e-05 0)
(-7.66303e-06 -7.46225e-05 0)
(-4.62799e-05 -1.80415e-05 0)
(-0.000125617 9.69026e-05 0)
(-0.000255224 0.00025352 0)
(-0.000442244 0.00043798 0)
(-0.000691539 0.000639651 0)
(-0.00100615 0.000850392 0)
(-0.00138741 0.00106396 0)
(-0.00183546 0.00127557 0)
(-0.00234918 0.0014816 0)
(-0.00292665 0.00167928 0)
(-0.00356515 0.00186651 0)
(-0.00426135 0.00204175 0)
(-0.00501146 0.00220383 0)
(-0.00581135 0.00235192 0)
(-0.00665657 0.00248546 0)
(-0.00754249 0.00260407 0)
(-0.00846433 0.00270758 0)
(-0.00941724 0.00279591 0)
(-0.0103963 0.00286909 0)
(-0.0113966 0.00292728 0)
(-0.0124132 0.00297066 0)
(-0.0134413 0.00299951 0)
(-0.0144761 0.00301415 0)
(-0.0155129 0.00301492 0)
(-0.0165472 0.00300223 0)
(-0.0175745 0.00297648 0)
(-0.0185904 0.00293811 0)
(-0.0195908 0.00288759 0)
(-0.0205717 0.00282539 0)
(-0.0215291 0.002752 0)
(-0.0224593 0.00266791 0)
(-0.0233588 0.00257363 0)
(-0.0242241 0.00246968 0)
(-0.0250521 0.00235656 0)
(-0.0258397 0.00223481 0)
(-0.026584 0.00210496 0)
(-0.0272824 0.00196753 0)
(-0.0279323 0.00182307 0)
(-0.0285315 0.00167212 0)
(-0.0290778 0.00151524 0)
(-0.0295692 0.00135296 0)
(-0.0300041 0.00118585 0)
(-0.0303808 0.00101448 0)
(-0.0306981 0.000839396 0)
(-0.0309546 0.000661189 0)
(-0.0311496 0.00048044 0)
(-0.0312822 0.000297738 0)
(-0.0313519 0.000113677 0)
(-0.0313583 -7.11376e-05 0)
(-0.0313013 -0.000256097 0)
(-0.031181 -0.000440581 0)
(-0.0309976 -0.00062396 0)
(-0.0307517 -0.0008056 0)
(-0.030444 -0.000984859 0)
(-0.0300754 -0.00116109 0)
(-0.0296471 -0.00133363 0)
(-0.0291604 -0.00150182 0)
(-0.0286171 -0.00166501 0)
(-0.0280189 -0.00182251 0)
(-0.027368 -0.00197366 0)
(-0.0266665 -0.0021178 0)
(-0.025917 -0.00225424 0)
(-0.0251223 -0.00238233 0)
(-0.0242853 -0.00250142 0)
(-0.0234091 -0.00261085 0)
(-0.0224972 -0.00271 0)
(-0.0215532 -0.00279824 0)
(-0.0205808 -0.00287498 0)
(-0.019584 -0.00293962 0)
(-0.018567 -0.00299162 0)
(-0.0175342 -0.00303045 0)
(-0.0164899 -0.00305561 0)
(-0.015439 -0.00306667 0)
(-0.0143861 -0.0030632 0)
(-0.0133361 -0.00304486 0)
(-0.0122941 -0.00301134 0)
(-0.0112651 -0.00296241 0)
(-0.0102542 -0.00289788 0)
(-0.00926662 -0.00281769 0)
(-0.00830735 -0.00272184 0)
(-0.00738149 -0.00261045 0)
(-0.00649401 -0.00248378 0)
(-0.00564973 -0.00234223 0)
(-0.00485327 -0.00218638 0)
(-0.00410897 -0.00201703 0)
(-0.00342085 -0.00183524 0)
(-0.00279248 -0.00164242 0)
(-0.0022269 -0.00144036 0)
(-0.00172647 -0.00123137 0)
(-0.00129276 -0.00101842 0)
(-0.000926368 -0.000805273 0)
(-0.000626737 -0.000596778 0)
(-0.000391947 -0.000399094 0)
(-0.000218492 -0.000220083 0)
(-0.000101034 -6.97348e-05 0)
(-3.20882e-05 3.9397e-05 0)
(-1.67997e-06 9.16226e-05 0)
(2.64206e-06 6.59699e-05 0)
(-1.7442e-06 -4.98798e-05 0)
(-2.49788e-05 -3.91686e-05 0)
(-9.32683e-05 5.79263e-05 0)
(-0.000213965 0.000223558 0)
(-0.00039456 0.000438659 0)
(-0.00064157 0.00068732 0)
(-0.000959235 0.000956898 0)
(-0.0013501 0.00123763 0)
(-0.00181531 0.00152181 0)
(-0.0023546 0.00180345 0)
(-0.00296668 0.00207788 0)
(-0.00364934 0.00234147 0)
(-0.00439952 0.00259146 0)
(-0.0052136 0.00282572 0)
(-0.0060874 0.00304264 0)
(-0.00701634 0.00324106 0)
(-0.00799553 0.00342013 0)
(-0.00901984 0.00357931 0)
(-0.010084 0.00371826 0)
(-0.0111825 0.00383685 0)
(-0.0123099 0.00393509 0)
(-0.0134608 0.0040131 0)
(-0.0146295 0.00407113 0)
(-0.0158108 0.00410949 0)
(-0.0169991 0.0041286 0)
(-0.0181892 0.0041289 0)
(-0.019376 0.0041109 0)
(-0.0205544 0.00407516 0)
(-0.0217195 0.00402224 0)
(-0.0228665 0.00395276 0)
(-0.0239908 0.00386735 0)
(-0.0250881 0.00376668 0)
(-0.0261541 0.0036514 0)
(-0.0271847 0.0035222 0)
(-0.0281761 0.00337978 0)
(-0.0291246 0.00322484 0)
(-0.0300268 0.00305809 0)
(-0.0308793 0.00288027 0)
(-0.0316791 0.00269209 0)
(-0.0324233 0.00249429 0)
(-0.0331094 0.00228761 0)
(-0.0337349 0.00207282 0)
(-0.0342975 0.00185065 0)
(-0.0347953 0.00162189 0)
(-0.0352265 0.00138729 0)
(-0.0355895 0.00114764 0)
(-0.0358831 0.000903725 0)
(-0.0361062 0.000656347 0)
(-0.0362578 0.000406314 0)
(-0.0363373 0.000154441 0)
(-0.0363444 -9.84445e-05 0)
(-0.0362789 -0.000351504 0)
(-0.036141 -0.000603889 0)
(-0.0359308 -0.000854739 0)
(-0.0356491 -0.00110319 0)
(-0.0352966 -0.00134836 0)
(-0.0348744 -0.00158936 0)
(-0.034384 -0.00182531 0)
(-0.0338267 -0.00205529 0)
(-0.0332046 -0.0022784 0)
(-0.0325197 -0.00249373 0)
(-0.0317744 -0.00270038 0)
(-0.0309712 -0.00289743 0)
(-0.0301131 -0.00308397 0)
(-0.0292032 -0.00325912 0)
(-0.0282448 -0.00342197 0)
(-0.0272415 -0.00357166 0)
(-0.0261972 -0.00370732 0)
(-0.025116 -0.00382812 0)
(-0.0240022 -0.00393326 0)
(-0.0228602 -0.00402194 0)
(-0.0216949 -0.00409343 0)
(-0.0205111 -0.00414702 0)
(-0.0193139 -0.00418206 0)
(-0.0181087 -0.00419796 0)
(-0.0169007 -0.00419416 0)
(-0.0156955 -0.00417022 0)
(-0.0144988 -0.00412574 0)
(-0.0133162 -0.00406042 0)
(-0.0121534 -0.00397407 0)
(-0.0110163 -0.00386661 0)
(-0.00991054 -0.00373808 0)
(-0.00884175 -0.00358871 0)
(-0.00781548 -0.00341887 0)
(-0.00683709 -0.00322915 0)
(-0.00591169 -0.0030204 0)
(-0.00504411 -0.00279374 0)
(-0.00423876 -0.00255065 0)
(-0.0034996 -0.00229305 0)
(-0.00282997 -0.00202336 0)
(-0.00223254 -0.00174465 0)
(-0.0017091 -0.0014608 0)
(-0.00126047 -0.00117666 0)
(-0.000886334 -0.000898324 0)
(-0.000585039 -0.000633407 0)
(-0.000353443 -0.000391434 0)
(-0.000186686 -0.000184282 0)
(-7.79104e-05 -2.66237e-05 0)
(-1.87807e-05 6.34631e-05 0)
(-2.73569e-07 6.21688e-05 0)
(-4.60835e-06 -3.36811e-05 0)
(-4.30497e-05 2.04819e-05 0)
(-0.000142816 0.000170769 0)
(-0.000307271 0.000397922 0)
(-0.000541847 0.000681145 0)
(-0.000851923 0.00100263 0)
(-0.00124099 0.0013482 0)
(-0.00171097 0.00170646 0)
(-0.00226243 0.00206845 0)
(-0.00289481 0.00242697 0)
(-0.00360642 0.00277636 0)
(-0.00439468 0.00311214 0)
(-0.00525625 0.00343081 0)
(-0.00618712 0.00372965 0)
(-0.00718274 0.00400659 0)
(-0.00823815 0.00426009 0)
(-0.00934801 0.00448898 0)
(-0.0105068 0.00469254 0)
(-0.0117086 0.00487025 0)
(-0.0129476 0.00502188 0)
(-0.0142178 0.0051474 0)
(-0.0155131 0.00524691 0)
(-0.0168276 0.00532068 0)
(-0.0181552 0.0053691 0)
(-0.01949 0.00539264 0)
(-0.0208262 0.00539187 0)
(-0.0221581 0.0053674 0)
(-0.0234801 0.00531993 0)
(-0.0247867 0.0052502 0)
(-0.0260727 0.00515896 0)
(-0.0273331 0.00504705 0)
(-0.0285629 0.00491528 0)
(-0.0297573 0.00476452 0)
(-0.030912 0.00459566 0)
(-0.0320225 0.00440958 0)
(-0.0330849 0.00420721 0)
(-0.0340953 0.00398946 0)
(-0.0350499 0.00375728 0)
(-0.0359455 0.00351161 0)
(-0.0367788 0.00325342 0)
(-0.0375468 0.00298366 0)
(-0.038247 0.00270332 0)
(-0.0388767 0.00241339 0)
(-0.0394339 0.00211486 0)
(-0.0399165 0.00180873 0)
(-0.0403227 0.00149604 0)
(-0.0406512 0.0011778 0)
(-0.0409007 0.000855072 0)
(-0.0410702 0.000528896 0)
(-0.0411591 0.000200343 0)
(-0.041167 -0.000129508 0)
(-0.0410935 -0.000459562 0)
(-0.040939 -0.000788711 0)
(-0.0407037 -0.00111584 0)
(-0.0403883 -0.00143981 0)
(-0.0399937 -0.00175949 0)
(-0.0395211 -0.00207372 0)
(-0.0389721 -0.00238133 0)
(-0.0383484 -0.00268116 0)
(-0.0376521 -0.00297202 0)
(-0.0368855 -0.00325275 0)
(-0.0360512 -0.00352216 0)
(-0.0351522 -0.00377906 0)
(-0.0341916 -0.00402229 0)
(-0.033173 -0.00425069 0)
(-0.0321 -0.00446311 0)
(-0.0309766 -0.00465842 0)
(-0.0298072 -0.00483551 0)
(-0.0285963 -0.00499331 0)
(-0.0273486 -0.00513077 0)
(-0.0260692 -0.0052469 0)
(-0.0247633 -0.00534075 0)
(-0.0234363 -0.00541141 0)
(-0.0220938 -0.00545806 0)
(-0.0207418 -0.00547994 0)
(-0.0193861 -0.00547638 0)
(-0.0180328 -0.00544679 0)
(-0.0166882 -0.00539071 0)
(-0.0153585 -0.00530777 0)
(-0.01405 -0.00519776 0)
(-0.012769 -0.00506061 0)
(-0.0115218 -0.00489643 0)
(-0.0103146 -0.00470554 0)
(-0.00915337 -0.00448847 0)
(-0.00804403 -0.00424604 0)
(-0.00699215 -0.00397938 0)
(-0.00600295 -0.00368998 0)
(-0.00508127 -0.00337977 0)
(-0.00423143 -0.00305123 0)
(-0.00345712 -0.00270744 0)
(-0.0027613 -0.00235226 0)
(-0.0021461 -0.00199049 0)
(-0.00161266 -0.00162803 0)
(-0.00116102 -0.0012722 0)
(-0.000789959 -0.000931987 0)
(-0.00049692 -0.00061843 0)
(-0.000277745 -0.00034507 0)
(-0.000126466 -0.000128373 0)
(-3.67092e-05 1.16766e-05 0)
(-3.24551e-06 4.92445e-05 0)
(-7.45985e-06 -8.12928e-06 0)
(-6.13741e-05 0.000105193 0)
(-0.000193468 0.000322036 0)
(-0.00040313 0.000622126 0)
(-0.000693429 0.000983309 0)
(-0.00106861 0.00138648 0)
(-0.00153115 0.00181593 0)
(-0.00208217 0.00225908 0)
(-0.00272163 0.00270566 0)
(-0.00344842 0.00314743 0)
(-0.00426041 0.00357776 0)
(-0.00515464 0.00399133 0)
(-0.00612736 0.00438393 0)
(-0.00717418 0.00475225 0)
(-0.00829016 0.00509371 0)
(-0.00946998 0.00540636 0)
(-0.0107079 0.00568877 0)
(-0.0119978 0.00593991 0)
(-0.0133336 0.00615914 0)
(-0.0147088 0.00634609 0)
(-0.0161171 0.00650065 0)
(-0.0175519 0.00662294 0)
(-0.0190066 0.00671322 0)
(-0.0204748 0.00677194 0)
(-0.0219501 0.00679965 0)
(-0.0234262 0.00679701 0)
(-0.0248968 0.00676478 0)
(-0.0263559 0.00670379 0)
(-0.0277976 0.00661494 0)
(-0.0292161 0.00649918 0)
(-0.0306059 0.0063575 0)
(-0.0319617 0.00619093 0)
(-0.0332783 0.00600055 0)
(-0.0345508 0.00578745 0)
(-0.0357746 0.00555274 0)
(-0.036945 0.00529757 0)
(-0.038058 0.0050231 0)
(-0.0391095 0.00473049 0)
(-0.0400958 0.00442094 0)
(-0.0410134 0.00409565 0)
(-0.0418592 0.00375584 0)
(-0.0426301 0.00340274 0)
(-0.0433234 0.00303758 0)
(-0.0439368 0.00266162 0)
(-0.044468 0.00227613 0)
(-0.0449152 0.00188239 0)
(-0.0452768 0.00148171 0)
(-0.0455514 0.00107539 0)
(-0.045738 0.000664759 0)
(-0.0458358 0.00025116 0)
(-0.0458444 -0.000164045 0)
(-0.0457636 -0.000579481 0)
(-0.0455934 -0.000993757 0)
(-0.0453344 -0.00140547 0)
(-0.0449873 -0.00181319 0)
(-0.044553 -0.00221549 0)
(-0.0440329 -0.00261092 0)
(-0.0434286 -0.00299801 0)
(-0.0427421 -0.00337531 0)
(-0.0419757 -0.00374134 0)
(-0.0411318 -0.00409462 0)
(-0.0402134 -0.00443368 0)
(-0.0392237 -0.00475703 0)
(-0.0381661 -0.00506322 0)
(-0.0370445 -0.0053508 0)
(-0.0358628 -0.00561834 0)
(-0.0346256 -0.00586442 0)
(-0.0333375 -0.00608767 0)
(-0.0320033 -0.00628676 0)
(-0.0306284 -0.00646039 0)
(-0.0292181 -0.00660733 0)
(-0.0277782 -0.00672639 0)
(-0.0263147 -0.00681648 0)
(-0.0248335 -0.00687656 0)
(-0.0233411 -0.00690573 0)
(-0.021844 -0.00690316 0)
(-0.0203486 -0.00686814 0)
(-0.0188618 -0.00680013 0)
(-0.0173904 -0.00669869 0)
(-0.0159412 -0.00656361 0)
(-0.0145209 -0.00639483 0)
(-0.0131364 -0.00619254 0)
(-0.0117944 -0.00595717 0)
(-0.0105013 -0.00568945 0)
(-0.00926353 -0.00539041 0)
(-0.00808703 -0.00506151 0)
(-0.00697749 -0.00470464 0)
(-0.00594012 -0.0043222 0)
(-0.00497962 -0.00391723 0)
(-0.00410007 -0.00349351 0)
(-0.00330479 -0.00305569 0)
(-0.00259629 -0.00260945 0)
(-0.00197613 -0.00216175 0)
(-0.00144484 -0.00172102 0)
(-0.00100178 -0.00129752 0)
(-0.000645114 -0.000903638 0)
(-0.000371569 -0.000554338 0)
(-0.000176242 -0.000267549 0)
(-5.48882e-05 -6.47016e-05 0)
(-6.18285e-06 2.70006e-05 0)
(-1.02547e-05 2.67602e-05 0)
(-7.96438e-05 0.000215304 0)
(-0.000244335 0.000512454 0)
(-0.000499813 0.000897232 0)
(-0.000846794 0.00134663 0)
(-0.00128822 0.00184037 0)
(-0.0018255 0.00236174 0)
(-0.00245883 0.00289695 0)
(-0.00318743 0.0034347 0)
(-0.00400954 0.00396576 0)
(-0.00492253 0.00448259 0)
(-0.00592293 0.00497909 0)
(-0.00700658 0.00545036 0)
(-0.00816867 0.00589249 0)
(-0.00940388 0.00630243 0)
(-0.0107064 0.00667779 0)
(-0.0120702 0.00701684 0)
(-0.0134887 0.00731829 0)
(-0.0149554 0.00758132 0)
(-0.0164634 0.00780542 0)
(-0.0180059 0.00799042 0)
(-0.0195758 0.0081364 0)
(-0.0211662 0.00824365 0)
(-0.0227702 0.00831264 0)
(-0.024381 0.00834402 0)
(-0.0259916 0.00833855 0)
(-0.0275955 0.00829713 0)
(-0.0291862 0.00822074 0)
(-0.0307574 0.00811043 0)
(-0.0323028 0.00796735 0)
(-0.0338165 0.00779269 0)
(-0.0352927 0.00758769 0)
(-0.036726 0.00735365 0)
(-0.0381109 0.00709188 0)
(-0.0394425 0.00680375 0)
(-0.040716 0.00649064 0)
(-0.0419268 0.00615395 0)
(-0.0430705 0.00579511 0)
(-0.0441432 0.00541558 0)
(-0.0451412 0.00501682 0)
(-0.0460608 0.00460032 0)
(-0.046899 0.00416757 0)
(-0.0476529 0.00372011 0)
(-0.0483197 0.00325945 0)
(-0.0488973 0.00278716 0)
(-0.0493835 0.00230481 0)
(-0.0497765 0.00181397 0)
(-0.0500751 0.00131627 0)
(-0.050278 0.00081331 0)
(-0.0503844 0.000306749 0)
(-0.0503939 -0.000201754 0)
(-0.0503061 -0.000710517 0)
(-0.0501214 -0.00121784 0)
(-0.04984 -0.001722 0)
(-0.0494629 -0.00222127 0)
(-0.048991 -0.00271389 0)
(-0.0484259 -0.00319808 0)
(-0.0477693 -0.00367209 0)
(-0.0470233 -0.0041341 0)
(-0.0461904 -0.00458234 0)
(-0.0452732 -0.005015 0)
(-0.044275 -0.00543027 0)
(-0.0431991 -0.00582638 0)
(-0.0420493 -0.00620153 0)
(-0.0408297 -0.00655398 0)
(-0.0395446 -0.00688198 0)
(-0.0381989 -0.00718382 0)
(-0.0367975 -0.00745783 0)
(-0.0353458 -0.00770241 0)
(-0.0338493 -0.00791598 0)
(-0.0323139 -0.00809706 0)
(-0.0307458 -0.00824422 0)
(-0.0291513 -0.00835615 0)
(-0.027537 -0.00843162 0)
(-0.0259096 -0.00846953 0)
(-0.0242762 -0.00846891 0)
(-0.0226439 -0.00842893 0)
(-0.0210197 -0.00834894 0)
(-0.019411 -0.00822848 0)
(-0.0178251 -0.00806729 0)
(-0.0162694 -0.00786537 0)
(-0.0147509 -0.00762297 0)
(-0.013277 -0.00734066 0)
(-0.0118545 -0.00701936 0)
(-0.0104901 -0.00666036 0)
(-0.00919047 -0.00626545 0)
(-0.00796151 -0.00583691 0)
(-0.0068089 -0.00537766 0)
(-0.00573774 -0.00489131 0)
(-0.0047525 -0.0043823 0)
(-0.00385695 -0.00385605 0)
(-0.00305403 -0.00331914 0)
(-0.00234584 -0.00277947 0)
(-0.00173346 -0.00224655 0)
(-0.00121696 -0.00173174 0)
(-0.000795353 -0.00124862 0)
(-0.000466366 -0.000813343 0)
(-0.00022626 -0.000444984 0)
(-7.29731e-05 -0.00016602 0)
(-9.04073e-06 -4.53797e-06 0)
(-1.29912e-05 7.08832e-05 0)
(-9.76522e-05 0.000350756 0)
(-0.000294841 0.000742171 0)
(-0.000596195 0.00122371 0)
(-0.00100016 0.00177172 0)
(-0.00150836 0.00236521 0)
(-0.00212103 0.00298653 0)
(-0.00283737 0.00362099 0)
(-0.00365576 0.00425637 0)
(-0.00457376 0.00488254 0)
(-0.00558809 0.00549115 0)
(-0.00669476 0.00607539 0)
(-0.00788914 0.00662968 0)
(-0.00916594 0.00714957 0)
(-0.0105194 0.00763148 0)
(-0.0119434 0.00807269 0)
(-0.0134313 0.00847108 0)
(-0.0149763 0.00882515 0)
(-0.0165714 0.00913385 0)
(-0.0182093 0.00939656 0)
(-0.0198828 0.00961303 0)
(-0.0215844 0.00978331 0)
(-0.0233067 0.00990768 0)
(-0.0250425 0.00998668 0)
(-0.0267844 0.010021 0)
(-0.0285252 0.0100116 0)
(-0.0302578 0.00995943 0)
(-0.0319755 0.00986564 0)
(-0.0336713 0.00973148 0)
(-0.0353387 0.00955828 0)
(-0.0369714 0.00934744 0)
(-0.0385633 0.00910043 0)
(-0.0401085 0.00881877 0)
(-0.0416013 0.00850404 0)
(-0.0430363 0.00815783 0)
(-0.0444084 0.00778179 0)
(-0.0457127 0.0073776 0)
(-0.0469447 0.00694696 0)
(-0.0481 0.0064916 0)
(-0.0491747 0.00601327 0)
(-0.050165 0.00551374 0)
(-0.0510676 0.00499481 0)
(-0.0518793 0.00445828 0)
(-0.0525973 0.00390601 0)
(-0.0532191 0.00333984 0)
(-0.0537426 0.00276165 0)
(-0.0541658 0.00217335 0)
(-0.0544874 0.00157684 0)
(-0.054706 0.000974082 0)
(-0.0548208 0.000367032 0)
(-0.0548312 -0.000242318 0)
(-0.0547371 -0.000851958 0)
(-0.0545386 -0.00145986 0)
(-0.0542362 -0.00206396 0)
(-0.0538307 -0.00266218 0)
(-0.0533232 -0.00325244 0)
(-0.0527154 -0.00383263 0)
(-0.0520091 -0.00440062 0)
(-0.0512065 -0.00495427 0)
(-0.0503102 -0.00549145 0)
(-0.0493233 -0.00601002 0)
(-0.048249 -0.00650782 0)
(-0.0470909 -0.00698274 0)
(-0.0458531 -0.00743264 0)
(-0.0445399 -0.00785545 0)
(-0.043156 -0.00824909 0)
(-0.0417064 -0.00861154 0)
(-0.0401966 -0.00894082 0)
(-0.0386321 -0.00923501 0)
(-0.0370189 -0.00949228 0)
(-0.0353633 -0.00971084 0)