/*--------------------------------*- C++ -*----------------------------------*\
  =========                 |
  \\      /  F ield         | OpenFOAM: The Open Source CFD Toolbox
   \\    /   O peration     | Website:  https://openfoam.org
    \\  /    A nd           | Version:  11
     \\/     M anipulation  |
\*---------------------------------------------------------------------------*/
FoamFile
{
    format      ascii;
    class       volScalarField;
    location    "8.9";
    object      p;
}
// * * * * * * * * * * * * * * * * * * * * * * * * * * * * * * * * * * * * * //

dimensions      [0 2 -2 0 0 0 0];

internalField   nonuniform List<scalar> 
10100
(
2.90235e-08
0.000100042
-0.000110271
-0.000678511
-0.00155637
-0.00268754
-0.0040163
-0.00548941
-0.00705856
-0.0086807
-0.0103179
-0.0119372
-0.0135095
-0.0150101
-0.0164173
-0.0177127
-0.0188806
-0.0199072
-0.0207813
-0.021493
-0.0220344
-0.0223994
-0.0225833
-0.0225829
-0.0223963
-0.0220224
-0.0214614
-0.0207142
-0.0197826
-0.0186694
-0.0173781
-0.0159129
-0.0142786
-0.0124808
-0.0105255
-0.00841934
-0.00616944
-0.00378342
-0.00126916
0.00136515
0.00411091
0.00695913
0.00990046
0.0129253
0.0160237
0.0191855
0.0224003
0.0256575
0.0289466
0.0322564
0.035576
0.0388941
0.0421996
0.0454811
0.0487276
0.0519275
0.0550698
0.0581433
0.0611372
0.064041
0.066844
0.0695362
0.0721077
0.0745489
0.0768507
0.0790044
0.0810017
0.0828348
0.0844966
0.085981
0.0872825
0.0883965
0.0893194
0.0900482
0.0905812
0.0909178
0.0910581
0.0910039
0.0907581
0.090325
0.0897104
0.0889218
0.0879681
0.0868606
0.0856122
0.0842382
0.0827565
0.0811873
0.0795539
0.0778825
0.0762031
0.0745494
0.07296
0.0714777
0.0701506
0.0690307
0.0681713
0.0676234
0.0674294
0.0675371
-8.73412e-05
1.4632e-05
-0.000189362
-0.000696167
-0.00145583
-0.00242913
-0.0035749
-0.00485109
-0.0062176
-0.00763746
-0.00907711
-0.0105066
-0.0118992
-0.0132315
-0.0144832
-0.0156366
-0.0166763
-0.017589
-0.0183635
-0.0189899
-0.0194604
-0.0197685
-0.0199094
-0.0198795
-0.0196765
-0.0192993
-0.0187475
-0.0180216
-0.0171232
-0.0160543
-0.0148181
-0.0134183
-0.0118594
-0.0101465
-0.00828497
-0.00628103
-0.00414133
-0.00187297
0.000516662
0.00301983
0.00562839
0.00833388
0.0111276
0.0140003
0.0169428
0.0199452
0.0229976
0.0260902
0.0292128
0.0323548
0.0355059
0.0386553
0.0417926
0.0449071
0.0479882
0.0510249
0.0540068
0.0569233
0.0597643
0.0625198
0.0651798
0.067735
0.070176
0.0724941
0.0746805
0.076727
0.078626
0.0803704
0.0819536
0.0833702
0.0846152
0.0856845
0.0865748
0.0872838
0.0878101
0.0881535
0.0883145
0.0882952
0.0880986
0.0877293
0.0871932
0.0864977
0.0856519
0.0846665
0.0835544
0.0823305
0.0810117
0.0796174
0.0781695
0.0766925
0.0752137
0.0737638
0.0723766
0.0710889
0.0699404
0.0689723
0.0682235
0.0677295
0.0675366
0.0676449
0.00014066
0.000236949
3.2166e-05
-0.000443492
-0.00113622
-0.00201376
-0.00304266
-0.00418773
-0.00541488
-0.00669187
-0.00798904
-0.00927924
-0.010538
-0.0117438
-0.0128772
-0.0139217
-0.0148624
-0.0156866
-0.0163831
-0.0169426
-0.0173571
-0.0176201
-0.0177268
-0.0176734
-0.0174576
-0.0170777
-0.0165333
-0.0158247
-0.014953
-0.0139201
-0.0127287
-0.0113821
-0.00988459
-0.00824071
-0.00645566
-0.00453518
-0.00248551
-0.000313314
0.00197445
0.0043704
0.00686675
0.00945549
0.0121284
0.0148767
0.0176914
0.0205633
0.0234829
0.0264407
0.0294271
0.0324319
0.0354452
0.0384569
0.0414569
0.044435
0.0473811
0.0502848
0.0531359
0.0559246
0.0586412
0.0612761
0.06382
0.0662639
0.0685992
0.0708173
0.0729101
0.07487
0.0766895
0.0783621
0.0798819
0.0812438
0.0824432
0.0834765
0.0843406
0.0850336
0.0855544
0.085903
0.0860803
0.0860883
0.0859303
0.085611
0.0851363
0.0845133
0.083751
0.08286
0.0818526
0.0807431
0.0795477
0.0782845
0.0769742
0.0756394
0.0743052
0.0729992
0.0717513
0.0705937
0.0695602
0.0686852
0.0680001
0.0675352
0.0673431
0.0674521
0.000727124
0.000762616
0.000525132
4.79986e-05
-0.000619378
-0.00144796
-0.0024087
-0.00347114
-0.00460555
-0.00578371
-0.00697911
-0.00816736
-0.00932629
-0.0104359
-0.0114785
-0.0124383
-0.0133014
-0.0140554
-0.0146898
-0.0151954
-0.0155646
-0.0157912
-0.0158702
-0.015798
-0.0155719
-0.0151903
-0.0146525
-0.0139586
-0.0131096
-0.0121071
-0.0109537
-0.00965231
-0.00820683
-0.00662158
-0.00490147
-0.00305196
-0.00107892
0.00101142
0.00321241
0.00551699
0.00791778
0.0104071
0.012977
0.0156192
0.0183251
0.0210857
0.0238921
0.0267352
0.0296055
0.0324935
0.0353896
0.0382842
0.0411676
0.0440299
0.0468613
0.0496521
0.0523924
0.0550729
0.0576842
0.0602172
0.062663
0.065013
0.0672589
0.0693929
0.0714068
0.0732936
0.0750463
0.0766587
0.0781253
0.0794412
0.0806024
0.0816054
0.0824474
0.0831268
0.0836426
0.0839951
0.0841852
0.0842151
0.084088
0.0838085
0.0833825
0.082817
0.0821207
0.0813037
0.0803779
0.0793569
0.0782557
0.0770917
0.0758837
0.0746527
0.0734215
0.0722152
0.0710605
0.0699856
0.06902
0.0681935
0.0675339
0.0670689
0.0668489
0.0669069
0.00162381
0.00154288
0.00123679
0.000729818
5.92769e-05
-0.000749307
-0.00167032
-0.00267763
-0.00374551
-0.00484921
-0.00596539
-0.00707226
-0.00814981
-0.0091799
-0.0101462
-0.0110341
-0.0118306
-0.0125242
-0.0131046
-0.0135633
-0.013893
-0.0140876
-0.0141424
-0.0140536
-0.0138189
-0.0134363
-0.0129051
-0.0122252
-0.0113975
-0.0104235
-0.00930534
-0.00804605
-0.00664901
-0.00511834
-0.00345869
-0.00167518
0.00022662
0.00224077
0.00436096
0.00658044
0.00889222
0.011289
0.0137631
0.0163065
0.0189109
0.021568
0.024269
0.0270053
0.0297677
0.0325469
0.035334
0.0381198
0.0408948
0.0436496
0.0463747
0.0490608
0.0516984
0.0542787
0.0567925
0.0592313
0.0615863
0.0638496
0.0660132
0.0680694
0.0700106
0.07183
0.0735211
0.0750781
0.0764957
0.0777694
0.0788954
0.0798703
0.0806918
0.0813582
0.081869
0.0822244
0.0824253
0.082474
0.0823736
0.0821286
0.0817448
0.081229
0.0805894
0.0798358
0.0789794
0.0780328
0.0770104
0.075928
0.0748031
0.0736548
0.0725038
0.0713726
0.0702849
0.0692656
0.0683402
0.0675346
0.0668734
0.0663816
0.066099
0.0660506
0.00277873
0.00254106
0.0021365
0.00157454
0.000875277
6.12618e-05
-0.000845202
-0.00182181
-0.00284657
-0.00389805
-0.00495569
-0.00600026
-0.00701391
-0.00798021
-0.00888431
-0.00971285
-0.0104538
-0.0110963
-0.0116311
-0.0120499
-0.0123458
-0.0125131
-0.0125472
-0.0124446
-0.0122028
-0.0118201
-0.0112956
-0.0106291
-0.00982132
-0.0088737
-0.00778834
-0.00656792
-0.00521566
-0.00373542
-0.00213165
-0.000409138
0.00142692
0.00337078
0.00541634
0.00755725
0.00978687
0.0120982
0.0144837
0.0169358
0.0194467
0.0220082
0.024612
0.0272497
0.0299124
0.0325915
0.0352782
0.0379637
0.0406389
0.0432947
0.0459221
0.0485119
0.0510553
0.0535435
0.0559679
0.0583202
0.0605922
0.0627762
0.0648644
0.0668496
0.0687243
0.0704822
0.0721171
0.0736235
0.0749965
0.0762316
0.0773252
0.0782744
0.0790767
0.079731
0.0802365
0.0805936
0.0808032
0.0808675
0.0807896
0.080574
0.0802259
0.079752
0.07916
0.0784592
0.0776601
0.0767746
0.0758159
0.0747986
0.0737386
0.0726533
0.0715613
0.0704828
0.0694387
0.0684508
0.0675411
0.0667316
0.0660443
0.0655014
0.0651266
0.0649315
0.00413963
0.00371909
0.0031934
0.00255535
0.00180562
0.000963685
4.9348e-05
-0.000918689
-0.00192182
-0.00294158
-0.00396008
-0.00496047
-0.00592685
-0.00684452
-0.00770018
-0.00848162
-0.00917783
-0.00977896
-0.0102762
-0.0106621
-0.0109301
-0.0110748
-0.0110921
-0.0109785
-0.0107315
-0.0103495
-0.00983174
-0.00917797
-0.00838882
-0.00746566
-0.0064104
-0.00522553
-0.0039142
-0.00248011
-0.000927354
0.000739518
0.0025155
0.00439516
0.00637268
0.00844196
0.0105966
0.0128299
0.0151346
0.0175035
0.0199291
0.0224035
0.0249187
0.0274665
0.0300385
0.0326264
0.0352217
0.037816
0.0404005
0.0429663
0.0455048
0.0480074
0.0504653
0.0528701
0.0552136
0.0574877
0.0596846
0.0617969
0.0638172
0.0657382
0.067553
0.0692555
0.0708398
0.0723007
0.0736334
0.0748338
0.0758981
0.0768237
0.0776085
0.0782512
0.0787513
0.079109
0.0793252
0.0794019
0.0793424
0.0791507
0.0788318
0.0783919
0.0778384
0.07718
0.0764265
0.0755889
0.0746793
0.073711
0.0726985
0.0716576
0.070605
0.0695585
0.0685365
0.0675579
0.0666416
0.0658064
0.0650717
0.0644569
0.0639674
0.0635989
0.00565739
0.00503794
0.00437494
0.00364416
0.00282635
0.00193812
0.000997129
1.87817e-05
-0.000981191
-0.00198707
-0.00298351
-0.00395568
-0.00488965
-0.00577249
-0.00659221
-0.00733783
-0.0079994
-0.00856795
-0.00903546
-0.00939497
-0.00964056
-0.00976734
-0.00977127
-0.00964922
-0.00939886
-0.00901862
-0.00850774
-0.00786614
-0.00709438
-0.00619373
-0.00516609
-0.00401379
-0.0027398
-0.00134769
0.000158637
0.00177489
0.0034963
0.00531761
0.00723328
0.0092375
0.0113241
0.0134865
0.0157179
0.0180112
0.0203594
0.0227548
0.0251896
0.0276559
0.0301457
0.0326509
0.0351636
0.0376754
0.0401777
0.0426623
0.0451206
0.0475444
0.0499252
0.0522549
0.0545255
0.0567293
0.0588588
0.0609068
0.062866
0.0647295
0.0664906
0.0681435
0.0696827
0.0711029
0.0723996
0.0735685
0.0746065
0.0755108
0.0762795
0.0769113
0.0774057
0.0777628
0.0779835
0.0780699
0.0780248
0.077852
0.0775562
0.0771431
0.0766196
0.0759939
0.0752752
0.0744735
0.0735999
0.0726662
0.0716857
0.0706726
0.069642
0.0686094
0.0675908
0.0666026
0.0656609
0.0647815
0.0639818
0.0632786
0.062658
0.0620997
0.00728829
0.00646138
0.00565011
0.00481408
0.0039142
0.00296486
0.00198164
0.000977272
-3.52632e-05
-0.0010427
-0.00203179
-0.00298979
-0.00390462
-0.00476487
-0.00555988
-0.00627991
-0.00691604
-0.00746014
-0.00790501
-0.00824435
-0.00847274
-0.00858575
-0.00857971
-0.00845166
-0.00819957
-0.00782205
-0.00731831
-0.00668833
-0.00593284
-0.00505299
-0.00405054
-0.00292789
-0.00168793
-0.000333925
0.00113041
0.0027009
0.00437287
0.00614139
0.00800122
0.00994669
0.0119718
0.0140701
0.0162353
0.0184605
0.0207388
0.0230629
0.0254251
0.027818
0.0302337
0.0326647
0.0351029
0.0375404
0.039969
0.0423805
0.044767
0.0471201
0.0494319
0.0516943
0.0538997
0.0560409
0.0581103
0.0601009
0.0620057
0.0638179
0.0655314
0.0671403
0.0686394
0.0700234
0.0712879
0.0724289
0.0734433
0.0743285
0.0750825
0.0757041
0.0761926
0.0765481
0.0767716
0.0768649
0.0768306
0.0766721
0.0763937
0.0760007
0.0754995
0.0748979
0.0742042
0.0734276
0.0725779
0.071666
0.0707039
0.0697042
0.0686802
0.0676457
0.0666145
0.0656007
0.0646178
0.0636792
0.0628003
0.061996
0.0612332
0.0604759
0.00899441
0.00795657
0.00699037
0.00603995
0.00504725
0.00402478
0.00298668
0.00194311
0.000904627
-0.000117499
-0.00111208
-0.00206826
-0.0029756
-0.00382414
-0.00460458
-0.00530827
-0.00592728
-0.00645439
-0.00688314
-0.00720793
-0.00742396
-0.00752713
-0.0075142
-0.00738256
-0.0071303
-0.00675626
-0.00625988
-0.00564116
-0.00490074
-0.00403993
-0.00306053
-0.0019648
-0.000755486
0.000564225
0.00199071
0.00351996
0.00514758
0.0068688
0.00867851
0.0105712
0.0125411
0.0145821
0.0166879
0.0188521
0.0210679
0.0233281
0.0256254
0.0279526
0.0303022
0.0326668
0.0350386
0.0374098
0.0397727
0.0421193
0.0444418
0.0467322
0.0489826
0.0511854
0.0533333
0.055419
0.0574353
0.0593752
0.061232
0.0629992
0.0646707
0.066241
0.0677049
0.0690571
0.0702932
0.0714096
0.0724032
0.0732715
0.0740122
0.0746242
0.0751067
0.0754599
0.0756847
0.0757825
0.0757556
0.0756071
0.0753409
0.0749619
0.0744763
0.0738909
0.0732133
0.0724519
0.0716155
0.070714
0.069758
0.0687588
0.0677282
0.0666781
0.0656206
0.0645676
0.0635305
0.0625204
0.0615514
0.0606365
0.0597244
0.058764
0.0107431
0.00949435
0.00836956
0.00729846
0.00620485
0.00509987
0.00399657
0.00290284
0.00182726
0.000779179
-0.000232059
-0.0011972
-0.00210728
-0.00295376
-0.00372861
-0.00442424
-0.00503364
-0.00555051
-0.0059691
-0.00628446
-0.00649248
-0.00658948
-0.00657247
-0.0064393
-0.00618841
-0.00581869
-0.00532969
-0.00472165
-0.00399533
-0.00315198
-0.00219338
-0.00112181
6.00302e-05
0.00134904
0.00274174
0.00423429
0.00582245
0.00750159
0.00926673
0.0111125
0.0130333
0.0150234
0.0170766
0.0191867
0.0213469
0.0235504
0.0257902
0.0280593
0.0303505
0.0326563
0.0349694
0.0372823
0.0395873
0.0418768
0.044143
0.0463783
0.0485749
0.0507256
0.0528232
0.0548605
0.0568304
0.0587261
0.0605411
0.0622692
0.0639044
0.0654413
0.0668745
0.0681991
0.0694108
0.0705059
0.0714815
0.0723349
0.0730638
0.0736669
0.0741437
0.0744941
0.0747188
0.0748189
0.0747963
0.0746539
0.0743953
0.0740251
0.0735487
0.0729723
0.0723029
0.0715479
0.0707153
0.069814
0.0688534
0.0678436
0.0667947
0.0657173
0.0646217
0.0635182
0.0624163
0.0613249
0.0602573
0.0592251
0.0581594
0.0569952
0.0125065
0.0110488
0.00976406
0.00856817
0.00736765
0.00617284
0.00499604
0.00384331
0.00272133
0.00163774
0.000600326
-0.000383083
-0.00130489
-0.00215785
-0.00293502
-0.00362994
-0.00423644
-0.00474901
-0.00516283
-0.00547355
-0.0056774
-0.00577135
-0.00575297
-0.00562028
-0.00537192
-0.00500708
-0.00452559
-0.00392774
-0.00321437
-0.00238679
-0.00144686
-0.000396834
0.000760637
0.00202251
0.00338541
0.00484563
0.00639908
0.00804122
0.00976716
0.0115717
0.0134495
0.0153949
0.0174019
0.0194644
0.0215759
0.0237298
0.0259194
0.0281377
0.0303778
0.0326324
0.0348944
0.0371564
0.0394111
0.041651
0.0438684
0.046056
0.0482062
0.050312
0.0523663
0.054362
0.056292
0.0581499
0.0599293
0.0616242
0.0632286
0.0647369
0.0661441
0.0674453
0.0686363
0.0697136
0.0706739
0.0715145
0.0722331
0.0728284
0.0732997
0.0736469
0.0738703
0.0739708
0.0739499
0.0738103
0.0735553
0.0731889
0.0727161
0.0721424
0.0714741
0.0707177
0.0698806
0.0689705
0.0679959
0.0669655
0.0658884
0.0647736
0.0636301
0.0624668
0.0612914
0.060111
0.0589383
0.0577841
0.0565629
0.0551963
0.0142604
0.0125971
0.0111524
0.00982925
0.00851766
0.00722741
0.00597053
0.00475153
0.0035754
0.00244832
0.00137675
0.000367148
-0.000574165
-0.00144107
-0.00222755
-0.0029281
-0.00353766
-0.00405142
-0.00446513
-0.00477522
-0.00497852
-0.00507241
-0.00505485
-0.00492425
-0.00467951
-0.00432012
-0.00384606
-0.00325776
-0.00255617
-0.00174273
-0.000819321
0.000211779
0.00134793
0.00258616
0.00392317
0.00535536
0.0068787
0.00848874
0.0101807
0.0119496
0.0137902
0.015697
0.0176641
0.0196855
0.021755
0.0238662
0.0260124
0.0281871
0.0303832
0.0325939
0.0348121
0.0370307
0.0392425
0.04144
0.043616
0.0457631
0.0478742
0.0499422
0.0519599
0.0539205
0.0558172
0.0576435
0.0593934
0.0610606
0.0626393
0.0641241
0.0655099
0.066792
0.0679662
0.0690288
0.0699765
0.0708065
0.0715166
0.0721052
0.0725716
0.0729153
0.0731365
0.0732357
0.0732144
0.0730748
0.0728198
0.072453
0.0719788
0.0714021
0.0707285
0.0699639
0.0691148
0.0681881
0.0671912
0.0661319
0.065018
0.0638574
0.0626579
0.0614269
0.0601709
0.0588955
0.057613
0.0563338
0.0549565
0.0533903
0.0159839
0.014119
0.0125154
0.0110636
0.009638
0.00824826
0.0069062
0.00561495
0.00437829
0.00320117
0.00208865
0.00104599
7.85999e-05
-0.000808444
-0.00161035
-0.00232232
-0.00294001
-0.00345957
-0.00387746
-0.00419056
-0.00439635
-0.00449272
-0.00447797
-0.00435085
-0.0041106
-0.00375697
-0.00329015
-0.0027107
-0.00201967
-0.00121864
-0.000309604
0.000705157
0.00182303
0.00304109
0.00435606
0.00576439
0.00726212
0.00884489
0.0105081
0.0122468
0.0140559
0.0159299
0.0178631
0.0198497
0.0218837
0.0239589
0.0260686
0.0282065
0.0303657
0.0325396
0.0347213
0.0369037
0.0390796
0.041242
0.0433837
0.0454976
0.0475764
0.0496133
0.0516012
0.0535332
0.0554029
0.0572039
0.05893
0.0605751
0.0621335
0.0635996
0.0649686
0.0662358
0.0673969
0.0684481
0.0693861
0.0702079
0.0709113
0.0714945
0.0719565
0.0722968
0.0725151
0.0726119
0.0725883
0.0724463
0.0721883
0.0718174
0.0713374
0.0707528
0.0700684
0.0692896
0.068422
0.0674718
0.0664455
0.06535
0.0641921
0.0629786
0.0617162
0.0604113
0.0590691
0.0576939
0.0562982
0.0548921
0.0533592
0.0515969
0.0176587
0.0155964
0.0138354
0.0122545
0.0107132
0.00922093
0.00778974
0.00642169
0.00511932
0.00388647
0.00272736
0.00164612
0.000646965
-0.000265798
-0.00108815
-0.00181632
-0.00244677
-0.00297623
-0.00340183
-0.0037211
-0.00393207
-0.0040331
-0.00402278
-0.00390025
-0.00366515
-0.00331747
-0.0028575
-0.00228601
-0.00160425
-0.000813924
8.29425e-05
0.00108402
0.00218667
0.00338795
0.00468466
0.00607324
0.0075498
0.00911008
0.0107495
0.0124633
0.0142464
0.0160933
0.0179987
0.0199568
0.0219617
0.0240073
0.0260872
0.0281951
0.0303244
0.0324684
0.0346204
0.0367735
0.0389207
0.0410551
0.0431695
0.0452571
0.0473105
0.0493229
0.0512875
0.0531976
0.0550466
0.0568282
0.0585363
0.0601649
0.0617081
0.0631606
0.0645175
0.065774
0.0669257
0.0679688
0.0689
0.069716
0.0704146
0.0709938
0.0714524
0.0717895
0.0720048
0.0720983
0.0720711
0.0719247
0.0716611
0.0712829
0.0707933
0.0701963
0.0694964
0.0686981
0.0678065
0.066827
0.0657652
0.0646273
0.0634192
0.0621469
0.060816
0.0594319
0.0579989
0.0565205
0.0550091
0.0534751
0.0517878
0.0498331
0.0192685
0.0170131
0.0150968
0.0133868
0.0117286
0.0101319
0.00860862
0.00716007
0.00578792
0.00449497
0.00328448
0.0021598
0.00112427
0.000181219
-0.000666064
-0.00141461
-0.00206161
-0.00260444
-0.00304086
-0.00336906
-0.00358749
-0.00369487
-0.00369029
-0.00357328
-0.00334376
-0.0030019
-0.00254824
-0.00198376
-0.00130988
-0.000528401
0.000358559
0.00134861
0.00243908
0.003627
0.00490916
0.00628207
0.00774187
0.00928436
0.010905
0.0125991
0.0143615
0.0161871
0.0180705
0.0200061
0.0219881
0.0240105
0.0260672
0.0281518
0.0302579
0.0323789
0.0345081
0.0366389
0.0387643
0.0408775
0.0429716
0.0450395
0.0470742
0.0490688
0.0510166
0.052911
0.0547455
0.0565138
0.0582097
0.0598272
0.0613605
0.0628044
0.0641537
0.0654037
0.06655
0.0675885
0.0685158
0.0693287
0.0700245
0.0706013
0.0710575
0.0713921
0.0716044
0.0716944
0.0716625
0.0715101
0.0712386
0.0708504
0.0703481
0.0697352
0.0690156
0.0681934
0.067273
0.0662591
0.0651567
0.0639711
0.0627076
0.0613713
0.0599672
0.0584998
0.0569724
0.0553879
0.0537593
0.052097
0.0502568
0.0481135
0.020799
0.0183547
0.0162851
0.0144467
0.0126711
0.0109683
0.00935095
0.00781918
0.00637389
0.00501724
0.00375161
0.00257954
0.00150366
0.000526502
-0.000349478
-0.00112191
-0.00178866
-0.00234781
-0.00279774
-0.0031371
-0.00336478
-0.00347994
-0.00348213
-0.00337125
-0.00314744
-0.0028111
-0.00236303
-0.00180446
-0.00113696
-0.000362393
0.000517028
0.00149879
0.00258011
0.00375804
0.0050294
0.00639071
0.00783813
0.00936742
0.0109741
0.0126535
0.0144007
0.0162106
0.0180779
0.0199969
0.0219622
0.0239678
0.0260077
0.0280756
0.0301651
0.0322697
0.0343829
0.0364982
0.0386086
0.0407075
0.0427879
0.0448428
0.0468653
0.0488487
0.0507863
0.0526713
0.0544975
0.0562583
0.0579478
0.0595598
0.0610886
0.0625287
0.0638751
0.0651229
0.0662676
0.067305
0.0682316
0.069044
0.0697395
0.0703157
0.0707709
0.0711038
0.0713136
0.0713998
0.0713627
0.071203
0.070922
0.0705215
0.0700039
0.0693721
0.0686295
0.0677797
0.0668264
0.0657738
0.0646263
0.0633886
0.0620653
0.0606609
0.0591795
0.0576252
0.0560007
0.0543082
0.0525612
0.0507706
0.048779
0.0464506
0.0222375
0.0196081
0.0173875
0.0154214
0.0135284
0.0117188
0.0100055
0.00838842
0.00686749
0.00544422
0.00412036
0.00289774
0.00177823
0.000763734
-0.000143994
-0.000943237
-0.00163245
-0.00221038
-0.00267599
-0.00302832
-0.00326666
-0.0033907
-0.00340042
-0.00329596
-0.0030777
-0.00274635
-0.00230304
-0.00174913
-0.00108632
-0.000316589
0.000557689
0.00153387
0.00260914
0.00378055
0.00504489
0.00639864
0.00783794
0.0093586
0.0109562
0.0126261
0.0143634
0.0161631
0.0180199
0.0199284
0.021883
0.0238781
0.0259074
0.027965
0.0300444
0.0321393
0.0342432
0.0363497
0.0384519
0.0405431
0.0426164
0.0446651
0.0466821
0.0486607
0.0505943
0.0524763
0.0543001
0.0560595
0.0577483
0.0593604
0.0608899
0.0623314
0.0636796
0.0649295
0.0660766
0.0671166
0.0680458
0.0688607
0.0695582
0.0701359
0.0705917
0.0709242
0.0711321
0.0712148
0.0711721
0.0710044
0.0707127
0.0702983
0.0697634
0.0691103
0.0683419
0.0674612
0.0664716
0.0653767
0.0641805
0.062887
0.0615002
0.060024
0.0584622
0.0568182
0.0550942
0.0532921
0.0514259
0.0495073
0.0473658
0.0448553
0.0235726
0.0207618
0.0183923
0.0162995
0.0142892
0.0123722
0.010562
0.00885787
0.0072593
0.00576714
0.00438253
0.00310674
0.00194097
0.000886478
-5.54852e-05
-0.00088389
-0.00159787
-0.00219664
-0.00267955
-0.00304614
-0.00329628
-0.00343003
-0.00344765
-0.00334956
-0.00313649
-0.0028095
-0.0023699
-0.00181919
-0.0011592
-0.00039216
0.000479419
0.00145283
0.00252524
0.00369363
0.0049547
0.00630491
0.0077404
0.00925703
0.0108504
0.0125159
0.0142485
0.0160435
0.0178955
0.0197993
0.0217494
0.02374
0.0257651
0.0278186
0.0298945
0.0319862
0.0340875
0.0361918
0.0382923
0.0403825
0.0424554
0.0445044
0.0465224
0.0485027
0.0504388
0.0523239
0.0541515
0.0559155
0.0576094
0.0592271
0.0607627
0.0622105
0.0635652
0.0648218
0.0659755
0.067022
0.0679572
0.0687776
0.0694799
0.0700613
0.0705197
0.0708531
0.0710602
0.0711398
0.0710916
0.0709157
0.0706125
0.0701832
0.0696294
0.068953
0.0681566
0.0672427
0.066214
0.0650739
0.0638258
0.0624734
0.06102
0.0594692
0.0578241
0.056088
0.0542627
0.0523498
0.0503639
0.0483173
0.0460273
0.0433376
0.0247941
0.0218049
0.0192885
0.0170701
0.0149428
0.0129182
0.0110103
0.00921793
0.00754013
0.00597731
0.00453001
0.00319887
0.00198474
0.000888234
-9.00256e-05
-0.000949592
-0.00169008
-0.00231116
-0.00281263
-0.00319457
-0.00345728
-0.00360114
-0.00362667
-0.00353468
-0.00332628
-0.00300278
-0.00256559
-0.00201641
-0.00135732
-0.000590722
0.000280749
0.00125433
0.00232711
0.00349598
0.00475757
0.00610831
0.00754434
0.00906153
0.0106555
0.0123215
0.0140548
0.0158505
0.0177034
0.0196083
0.0215598
0.023552
0.025579
0.027635
0.0297137
0.0318088
0.0339139
0.0360226
0.0381281
0.0402238
0.042303
0.0443588
0.0463843
0.0483728
0.0503176
0.0522121
0.0540497
0.0558242
0.057529
0.0591579
0.0607049
0.0621642
0.0635304
0.0647983
0.065963
0.0670199
0.0679649
0.068794
0.069504
0.0700918
0.0705548
0.070891
0.0710985
0.0711759
0.0711227
0.0709386
0.0706237
0.0701789
0.0696051
0.0689042
0.068078
0.0671288
0.0660589
0.0648713
0.0635688
0.0621549
0.0606324
0.0590044
0.0572739
0.0554439
0.0535157
0.0514908
0.0493847
0.0472103
0.0447729
0.0419062
0.0258925
0.0227277
0.0200661
0.017723
0.0154791
0.0133468
0.0113407
0.00945928
0.0077011
0.00606614
0.0045546
0.0031666
0.00190241
0.000762202
-0.000253969
-0.00114615
-0.00191441
-0.00255888
-0.00307987
-0.00347789
-0.00375355
-0.00390754
-0.00394076
-0.00385441
-0.0036499
-0.00332869
-0.00289243
-0.00234301
-0.00168275
-0.000914211
-4.01259e-05
0.000936644
0.00201309
0.003186
0.00445196
0.00580734
0.00724826
0.00877059
0.0103699
0.0120416
0.0137808
0.0155827
0.0174421
0.0193539
0.0213126
0.0233125
0.0253478
0.0274124
0.0295003
0.0316052
0.0337206
0.0358402
0.0379573
0.0400652
0.0421572
0.0442264
0.0462658
0.0482689
0.0502289
0.052139
0.0539929
0.0557837
0.0575053
0.0591511
0.0607149
0.062191
0.0635738
0.0648578
0.0660379
0.0671094
0.0680679
0.0689094
0.0696302
0.0702271
0.0706972
0.0710381
0.0712477
0.0713243
0.071267
0.0710752
0.0707489
0.0702883
0.0696941
0.0689677
0.0681105
0.0671245
0.0660117
0.0647747
0.063416
0.0619384
0.0603447
0.0586376
0.0568198
0.0548941
0.0528619
0.0507241
0.0484972
0.0461951
0.043611
0.0405691
0.0268591
0.023521
0.0207157
0.0182485
0.0158885
0.0136485
0.0115439
0.00957274
0.00773333
0.00602525
0.00444829
0.00300222
0.00168672
0.000501532
-0.000553749
-0.00147957
-0.00227648
-0.0029451
-0.0034862
-0.00390061
-0.00418921
-0.00435309
-0.00439356
-0.00431214
-0.00411044
-0.00379013
-0.00335309
-0.0028015
-0.00213786
-0.00136486
-0.000485331
0.000497756
0.00158125
0.00276184
0.00403604
0.00540019
0.0068504
0.00838249
0.00999205
0.0116744
0.0134248
0.0152383
0.0171099
0.0190343
0.0210061
0.0230198
0.0250694
0.027149
0.0292524
0.0313735
0.0335057
0.0356428
0.037778
0.0399046
0.042016
0.0441051
0.0461651
0.0481892
0.0501707
0.0521029
0.053979
0.0557924
0.0575366
0.059205
0.0607914
0.0622897
0.0636941
0.064999
0.0661992
0.0672897
0.0682659
0.0691235
0.0698586
0.0704676
0.0709475
0.0712954
0.0715091
0.0715865
0.0715265
0.0713281
0.0709909
0.0705147
0.0698999
0.0691475
0.0682586
0.0672348
0.066078
0.0647902
0.0633736
0.0618308
0.0601642
0.0583762
0.0564696
0.054447
0.0523094
0.0500579
0.0477098
0.0452798
0.0425495
0.0393333
0.0276854
0.0241757
0.0212279
0.0186375
0.0161618
0.0138141
0.0116107
0.00954944
0.00762818
0.00584625
0.00420306
0.00269798
0.00133029
9.9259e-05
-0.000995888
-0.00195602
-0.00278217
-0.00347539
-0.00403679
-0.00446748
-0.00476872
-0.00494202
-0.00498905
-0.00491155
-0.0047113
-0.00439024
-0.00395058
-0.00339474
-0.00272536
-0.00194521
-0.00105725
-6.46195e-05
0.00102938
0.00222133
0.00350771
0.00488484
0.00634878
0.00789533
0.00952001
0.0112181
0.0129849
0.0148154
0.0167047
0.0186475
0.0206384
0.0226718
0.0247419
0.0268427
0.028968
0.0311116
0.0332671
0.0354282
0.0375881
0.03974
0.0418773
0.043993
0.0460801
0.0481318
0.0501413
0.0521018
0.0540065
0.0558485
0.0576213
0.0593182
0.0609328
0.0624587
0.0638902
0.0652211
0.0664462
0.0675603
0.0685585
0.0694362
0.0701892
0.0708138
0.0713064
0.0716641
0.0718842
0.0719646
0.0719036
0.0716999
0.0713527
0.0708615
0.0702264
0.0694479
0.0685271
0.067465
0.0662633
0.0649237
0.0634482
0.0618388
0.0600979
0.0582278
0.0562311
0.0541102
0.0518663
0.0495002
0.0470303
0.0444721
0.0415957
0.0382058
0.0283632
0.0246833
0.0215939
0.0188809
0.0162897
0.0138345
0.0115322
0.00938059
0.00737712
0.00552082
0.00381084
0.00224612
0.00082565
-0.000451701
-0.00158713
-0.00258196
-0.00343761
-0.00415549
-0.00473697
-0.00518355
-0.00549691
-0.00567891
-0.00573147
-0.00565652
-0.00545611
-0.00513254
-0.00468827
-0.00412591
-0.0034482
-0.00265803
-0.00175855
-0.000753087
0.000354934
0.00156202
0.00286464
0.00425905
0.00574125
0.00730695
0.00895161
0.0106706
0.012459
0.014312
0.0162246
0.0181916
0.0202074
0.0222666
0.0243632
0.0264914
0.0286448
0.0308174
0.0330027
0.0351943
0.0373854
0.0395693
0.0417392
0.043888
0.0460088
0.0480947
0.0501387
0.052134
0.0540735
0.0559505
0.057758
0.0594894
0.0611379
0.0626973
0.0641611
0.0655234
0.0667785
0.0679209
0.0689456
0.0698477
0.0706227
0.0712664
0.0717752
0.0721458
0.0723751
0.0724608
0.0724009
0.0721936
0.0718378
0.0713326
0.0706778
0.0698738
0.068921
0.0678206
0.0665736
0.0651816
0.0636461
0.0619692
0.060153
0.0581996
0.0561117
0.0538916
0.0515403
0.0490588
0.0464663
0.0437795
0.0407567
0.0371931
0.0288844
0.0250354
0.0218051
0.0189698
0.0162635
0.0137009
0.0112997
0.00905749
0.00697158
0.00504065
0.00326351
0.00163885
0.000165323
-0.00115857
-0.00233446
-0.00336406
-0.00424909
-0.00499126
-0.00559233
-0.0060542
-0.0063789
-0.00656854
-0.00662524
-0.00655122
-0.00634892
-0.00602091
-0.00556985
-0.00499845
-0.00430961
-0.00350643
-0.00259226
-0.00157059
-0.00044491
0.000781253
0.00210428
0.00352035
0.00502536
0.00661491
0.00828446
0.0100293
0.0118447
0.0137257
0.0156672
0.0176641
0.0197107
0.0218016
0.023931
0.0260927
0.0282807
0.0304886
0.0327102
0.0349388
0.0371678
0.0393903
0.0415994
0.043788
0.0459492
0.0480759
0.050161
0.0521976
0.0541784
0.0560967
0.0579453
0.0597173
0.0614058
0.0630042
0.0645062
0.0659053
0.0671956
0.0683716
0.0694276
0.0703586
0.0711598
0.0718268
0.0723555
0.0727423
0.0729841
0.0730779
0.0730214
0.0728126
0.0724499
0.0719321
0.0712588
0.0704299
0.0694458
0.0683072
0.0670149
0.0655701
0.0639742
0.062229
0.0603366
0.0582992
0.0561191
0.0537988
0.0513392
0.0487412
0.0460254
0.0432091
0.0400393
0.0363014
0.0292412
0.0252238
0.021853
0.0188957
0.0160743
0.0134044
0.0109044
0.00857156
0.00640305
0.00439736
0.00255297
0.000868316
-0.000658325
-0.00202877
-0.00324501
-0.00430907
-0.00522301
-0.00598886
-0.00660881
-0.00708511
-0.00742003
-0.00761588
-0.00767509
-0.00760025
-0.00739414
-0.00705954
-0.00659922
-0.00601604
-0.00531314
-0.00449387
-0.00356174
-0.00252033
-0.00137316
-0.000123854
0.00122385
0.002666
0.00419837
0.00581653
0.00751595
0.00929191
0.0111396
0.013054
0.0150301
0.0170626
0.0191459
0.0212746
0.0234428
0.0256443
0.0278731
0.0301229
0.0323872
0.0346594
0.0369329
0.0392007
0.0414558
0.043691
0.0458993
0.0480734
0.0502064
0.0522908
0.0543196
0.0562856
0.0581817
0.0600006
0.0617352
0.0633788
0.0649247
0.0663663
0.0676975
0.0689122
0.0700047
0.0709696
0.0718016
0.0724961
0.0730489
0.0734559
0.0737135
0.0738186
0.0737683
0.0735604
0.0731928
0.0726643
0.071974
0.0711215
0.070107
0.0689308
0.0675933
0.0660956
0.064439
0.0626252
0.060656
0.0585338
0.0562607
0.0538393
0.0512703
0.048555
0.0457147
0.042768
0.0394502
0.035537
0.029426
0.0252402
0.0217291
0.01865
0.0157137
0.0129365
0.0103376
0.00791419
0.00566308
0.00358261
0.00167106
-7.35053e-05
-0.00165309
-0.00306982
-0.00432599
-0.00542393
-0.00636604
-0.00715477
-0.00779263
-0.00828214
-0.0086258
-0.00882621
-0.00888616
-0.0088086
-0.00859652
-0.00825285
-0.00778055
-0.00718272
-0.00646275
-0.00562418
-0.00467062
-0.0036057
-0.00243306
-0.00115643
0.000220252
0.00169291
0.00325729
0.00490894
0.00664328
0.00845557
0.0103409
0.0122943
0.0143105
0.0163844
0.0185104
0.0206829
0.022896
0.0251436
0.0274196
0.0297176
0.0320312
0.0343538
0.0366784
0.0389982
0.041306
0.0435946
0.0458567
0.0480852
0.0502727
0.0524119
0.0544953
0.0565158
0.0584658
0.0603381
0.0621253
0.0638203
0.0654162
0.0669063
0.0682841
0.0695432
0.0706776
0.0716814
0.0725493
0.0732761
0.0738574
0.0742887
0.074566
0.0746857
0.0746448
0.0744406
0.0740708
0.0735338
0.0728284
0.0719539
0.0709102
0.0696971
0.0683151
0.0667648
0.0650475
0.0631648
0.0611185
0.0589108
0.056544
0.0540205
0.0513412
0.0485073
0.0455414
0.0424632
0.038996
0.0349057
0.0294309
0.0250767
0.0214253
0.0182243
0.015173
0.0122884
0.00959071
0.00707674
0.00474313
0.00258799
0.000609447
-0.00119474
-0.00282686
-0.00428934
-0.00558474
-0.00671577
-0.00768516
-0.00849572
-0.0091502
-0.00965137
-0.010002
-0.0102052
-0.010264
-0.0101815
-0.00996098
-0.00960552
-0.00911836
-0.00850289
-0.00776269
-0.0069014
-0.00592271
-0.00483034
-0.00362812
-0.00231997
-0.000909936
0.000597797
0.00219894
0.00388904
0.00566344
0.0075173
0.00944568
0.0114435
0.0135057
0.0156268
0.0178014
0.0200238
0.022288
0.024588
0.0269175
0.0292703
0.0316398
0.0340192
0.0364018
0.0387803
0.0411476
0.0434965
0.0458194
0.048109
0.050358
0.0525588
0.0547039
0.0567856
0.0587964
0.0607287
0.062575
0.0643279
0.0659803
0.0675252
0.0689556
0.070265
0.071447
0.0724953
0.0734043
0.0741686
0.0747831
0.0752431
0.0755443
0.0756826
0.0756546
0.0754573
0.0750882
0.0745454
0.0738272
0.0729327
0.0718612
0.0706125
0.0691867
0.0675844
0.0658068
0.0638552
0.0617316
0.059438
0.0569766
0.0543501
0.0515593
0.0486057
0.0455129
0.0423016