/*--------------------------------*- C++ -*----------------------------------*\
  =========                 |
  \\      /  F ield         | OpenFOAM: The Open Source CFD Toolbox
   \\    /   O peration     | Website:  https://openfoam.org
    \\  /    A nd           | Version:  11
     \\/     M anipulation  |
\*---------------------------------------------------------------------------*/
FoamFile
{
    format      ascii;
    class       surfaceScalarField;
    location    "8.9";
    object      phi;
}
// * * * * * * * * * * * * * * * * * * * * * * * * * * * * * * * * * * * * * //

dimensions      [0 3 -1 0 0 0 0];

internalField   nonuniform List<scalar> 
19980
(
7.07485e-07
-7.07593e-07
2.42397e-06
-1.71647e-06
4.31031e-06
-1.88637e-06
5.78583e-06
-1.47545e-06
6.52114e-06
-7.35098e-07
6.33451e-06
1.86726e-07
5.1344e-06
1.20006e-06
2.887e-06
2.24737e-06
-4.05276e-07
3.29228e-06
-4.71616e-06
4.31089e-06
-1.00036e-05
5.28758e-06
-1.62154e-05
6.21178e-06
-2.32921e-05
7.07674e-06
-3.117e-05
7.87786e-06
-3.97823e-05
8.61236e-06
-4.90607e-05
9.27848e-06
-5.89362e-05
9.8755e-06
-6.93396e-05
1.04034e-05
-8.02022e-05
1.08626e-05
-9.14559e-05
1.12537e-05
-0.000103034
1.1578e-05
-0.00011487
1.18366e-05
-0.000126902
1.20312e-05
-0.000139065
1.21636e-05
-0.000151301
1.22353e-05
-0.000163549
1.22485e-05
-0.000175754
1.22053e-05
-0.000187862
1.21073e-05
-0.000199818
1.19564e-05
-0.000211573
1.1755e-05
-0.000223078
1.15052e-05
-0.000234287
1.12089e-05
-0.000245155
1.08682e-05
-0.000255641
1.04857e-05
-0.000265704
1.00634e-05
-0.000275308
9.60342e-06
-0.000284416
9.10809e-06
-0.000292996
8.57966e-06
-0.000301016
8.02027e-06
-0.000308448
7.432e-06
-0.000315265
6.81702e-06
-0.000321442
6.17763e-06
-0.000326959
5.51614e-06
-0.000331793
4.83476e-06
-0.000335929
4.13573e-06
-0.00033935
3.42135e-06
-0.000342044
2.69397e-06
-0.000344
1.95581e-06
-0.000345209
1.20923e-06
-0.000345666
4.5681e-07
-0.000345367
-2.98947e-07
-0.000344312
-1.0555e-06
-0.000342502
-1.81021e-06
-0.000339941
-2.56056e-06
-0.000336637
-3.30403e-06
-0.000332599
-4.0379e-06
-0.00032784
-4.75943e-06
-0.000322374
-5.46591e-06
-0.000316219
-6.15457e-06
-0.000309397
-6.82262e-06
-0.000301929
-7.46725e-06
-0.000293844
-8.08562e-06
-0.000285169
-8.67492e-06
-0.000275937
-9.2324e-06
-0.000266181
-9.75532e-06
-0.00025594
-1.02409e-05
-0.000245254
-1.06865e-05
-0.000234165
-1.10891e-05
-0.000222719
-1.14461e-05
-0.000210964
-1.17548e-05
-0.000198951
-1.20129e-05
-0.000186733
-1.22178e-05
-0.000174366
-1.23671e-05
-0.000161907
-1.24587e-05
-0.000149417
-1.24905e-05
-0.000136956
-1.24606e-05
-0.000124589
-1.23672e-05
-0.00011238
-1.22086e-05
-0.000100397
-1.19835e-05
-8.87064e-05
-1.16906e-05
-7.73775e-05
-1.1329e-05
-6.64795e-05
-1.0898e-05
-5.6082e-05
-1.03975e-05
-4.62547e-05
-9.82736e-06
-3.70664e-05
-9.18828e-06
-2.8585e-05
-8.48141e-06
-2.08763e-05
-7.70871e-06
-1.40034e-05
-6.87304e-06
-8.02495e-06
-5.97847e-06
-2.99416e-06
-5.03078e-06
1.04406e-06
-4.0382e-06
4.05651e-06
-3.01246e-06
6.02695e-06
-1.97045e-06
6.96408e-06
-9.37111e-07
6.91433e-06
4.9776e-08
5.98253e-06
9.31762e-07
4.36451e-06
1.61794e-06
2.40192e-06
1.96255e-06
6.75626e-07
1.72628e-06
6.75576e-07
1.73178e-06
-2.43948e-06
4.74563e-06
-4.73014e-06
7.62532e-06
-4.76619e-06
9.3562e-06
-3.2067e-06
9.2335e-06
-6.12662e-07
6.80487e-06
2.61546e-06
1.80656e-06
6.19843e-06
-5.89025e-06
9.94425e-06
-1.63181e-05
1.372e-05
-2.94413e-05
1.74341e-05
-4.5176e-05
2.10222e-05
-6.34037e-05
2.44395e-05
-8.39816e-05
2.76547e-05
-0.00010675
3.06462e-05
-0.000131537
3.33993e-05
-0.000158163
3.59047e-05
-0.000186444
3.81568e-05
-0.000216194
4.0153e-05
-0.000247224
4.18929e-05
-0.000279349
4.33784e-05
-0.000312383
4.46121e-05
-0.000346144
4.5598e-05
-0.000380454
4.63413e-05
-0.000415138
4.68476e-05
-0.000450026
4.71229e-05
-0.000484952
4.71742e-05
-0.000519755
4.70086e-05
-0.000554281
4.6633e-05
-0.00058838
4.60551e-05
-0.000621907
4.52827e-05
-0.000654725
4.43233e-05
-0.000686702
4.31852e-05
-0.00071771
4.18765e-05
-0.00074763
4.04054e-05
-0.000776347
3.87805e-05
-0.000803753
3.70099e-05
-0.000829748
3.51023e-05
-0.000854234
3.30661e-05
-0.000877123
3.09096e-05
-0.000898333
2.86413e-05
-0.000917785
2.62698e-05
-0.000935412
2.38038e-05
-0.000951147
2.12519e-05
-0.000964936
1.8623e-05
-0.000976726
1.59261e-05
-0.000986475
1.317e-05
-0.000994145
1.03638e-05
-0.000999706
7.51655e-06
-0.00100313
4.63751e-06
-0.00100441
1.73621e-06
-0.00100353
-1.17752e-06
-0.0010005
-4.09379e-06
-0.000995304
-7.00263e-06
-0.000987971
-9.89399e-06
-0.000978517
-1.27578e-05
-0.000966971
-1.55839e-05
-0.000953368
-1.83618e-05
-0.000937753
-2.1081e-05
-0.000920177
-2.37308e-05
-0.000900699
-2.63006e-05
-0.000879387
-2.87794e-05
-0.000856316
-3.11565e-05
-0.00083157
-3.3421e-05
-0.00080524
-3.55624e-05
-0.000777425
-3.75701e-05
-0.000748233
-3.94336e-05
-0.000717777
-4.11422e-05
-0.000686181
-4.26855e-05
-0.000653573
-4.40535e-05
-0.000620092
-4.52364e-05
-0.00058588
-4.62245e-05
-0.000551089
-4.70088e-05
-0.000515876
-4.75804e-05
-0.000480403
-4.79313e-05
-0.00044484
-4.80536e-05
-0.000409361
-4.79403e-05
-0.000374143
-4.75851e-05
-0.000339369
-4.69822e-05
-0.000305226
-4.61269e-05
-0.000271901
-4.50154e-05
-0.000239585
-4.3645e-05
-0.000208469
-4.20143e-05
-0.000178743
-4.01233e-05
-0.000150597
-3.79737e-05
-0.000124215
-3.55697e-05
-9.97789e-05
-3.29176e-05
-7.74603e-05
-3.00274e-05
-5.74206e-05
-2.69126e-05
-3.98065e-05
-2.35926e-05
-2.47439e-05
-2.00933e-05
-1.23315e-05
-1.64507e-05
-2.6304e-06
-1.27137e-05
4.34963e-06
-8.9505e-06
8.66912e-06
-5.25657e-06
1.04861e-05
-1.76718e-06
1.00937e-05
1.32415e-06
7.97074e-06
3.74088e-06
4.84161e-06
5.09167e-06
1.7255e-06
4.8423e-06
2.40103e-06
1.91655e-06
-4.35606e-06
4.8333e-06
-7.64684e-06
7.00337e-06
-6.93597e-06
7.20275e-06
-3.40591e-06
4.54431e-06
2.0458e-06
-1.57771e-06
8.73729e-06
-1.15423e-05
1.6163e-05
-2.55534e-05
2.39556e-05
-4.3682e-05
3.18488e-05
-6.58982e-05
3.96503e-05
-9.20968e-05
4.72208e-05
-0.000122117
5.44594e-05
-0.000155756
6.12936e-05
-0.000192781
6.76714e-05
-0.000232938
7.35565e-05
-0.000275957
7.89242e-05
-0.000321559
8.37586e-05
-0.000369457
8.80511e-05
-0.000419363
9.17982e-05
-0.000470985
9.50009e-05
-0.000524037
9.76636e-05
-0.000578232
9.97932e-05
-0.00063329
0.000101399
-0.000688934
0.000102492
-0.000744896
0.000103085
-0.000800913
0.000103191
-0.000856729
0.000102825
-0.000912098
0.000102002
-0.00096678
0.000100738
-0.00102055
9.90488e-05
-0.00107318
9.69522e-05
-0.00112445
9.44648e-05
-0.00117418
9.16044e-05
-0.00122217
8.83886e-05
-0.00126822
8.48356e-05
-0.00131217
8.09634e-05
-0.00135386
7.67906e-05
-0.00139313
7.23353e-05
-0.00142984
6.76163e-05
-0.00146385
6.2652e-05
-0.00149504
5.74613e-05
-0.0015233
5.20632e-05
-0.00154853
4.6477e-05
-0.00157062
4.07221e-05
-0.00158952
3.48179e-05
-0.00160513
2.87843e-05
-0.00161741
2.26413e-05
-0.0016263
1.64091e-05
-0.00163177
1.01082e-05
-0.00163379
3.75948e-06
-0.00163236
-2.61567e-06
-0.00162745
-8.99568e-06
-0.0016191
-1.53588e-05
-0.00160731
-2.16829e-05
-0.00159212
-2.79457e-05
-0.00157358
-3.41248e-05
-0.00155175
-4.01973e-05
-0.00152669
-4.61403e-05
-0.00149849
-5.19305e-05
-0.00146724
-5.75446e-05
-0.00143306
-6.2959e-05
-0.00139607
-6.81502e-05
-0.0013564
-7.30948e-05
-0.00131419
-7.77695e-05
-0.00126961
-8.21512e-05
-0.00122282
-8.6217e-05
-0.00117402
-8.99443e-05
-0.0011234
-9.33106e-05
-0.00107116
-9.62942e-05
-0.00101752
-9.88739e-05
-0.000962714
-0.000101029
-0.000906982
-0.000102741
-0.000850572
-0.00010399
-0.000793744
-0.000104759
-0.000736765
-0.000105033
-0.00067991
-0.000104795
-0.000623461
-0.000104034
-0.000567707
-0.000102736
-0.00051294
-0.000100895
-0.000459454
-9.8501e-05
-0.000407548
-9.55509e-05
-0.000357519
-9.2043e-05
-0.000309663
-8.79794e-05
-0.000264271
-8.33661e-05
-0.000221627
-7.82142e-05
-0.000182004
-7.25409e-05
-0.00014566
-6.63705e-05
-0.000112836
-5.97371e-05
-8.37425e-05
-5.26861e-05
-5.85572e-05
-4.52786e-05
-3.74116e-05
-3.75963e-05
-2.03769e-05
-2.97484e-05
-7.44561e-06
-2.18818e-05
1.49264e-06
-1.41949e-05
6.68276e-06
-6.95735e-06
8.54357e-06
-5.36659e-07
7.71565e-06
4.56878e-06
5.11205e-06
7.69518e-06
1.96772e-06
7.98653e-06
4.36873e-06
1.52836e-06
-5.88448e-06
3.33937e-06
-9.45796e-06
3.58962e-06
-7.18624e-06
9.72353e-07
-7.88871e-07
-5.47127e-06
8.48962e-06
-1.64166e-05
1.96825e-05
-3.23023e-05
3.20487e-05
-5.3376e-05
4.50293e-05
-7.97332e-05
5.8206e-05
-0.000111348
7.12657e-05
-0.000148103
8.39757e-05
-0.000189806
9.61624e-05
-0.00023621
0.000107697
-0.000287026
0.000118487
-0.000341932
0.000128463
-0.000400587
0.000137579
-0.000462629
0.000145801
-0.00052769
0.000153112
-0.000595392
0.0001595
-0.000665356
0.000164965
-0.000737203
0.000169511
-0.000810556
0.000173146
-0.000885043
0.000175886
-0.000960298
0.000177747
-0.00103596
0.000178748
-0.00111168
0.000178913
-0.00118712
0.000178264
-0.00126195
0.000176827
-0.00133584
0.000174629
-0.00140849
0.000171697
-0.00147959
0.000168059
-0.00154887
0.000163746
-0.00161606
0.000158787
-0.00168088
0.000153212
-0.0017431
0.000147052
-0.00180247
0.000140338
-0.00185878
0.000133103
-0.00191183
0.000125378
-0.0019614
0.000117194
-0.00200734
0.000108585
-0.00204946
9.95835e-05
-0.00208762
9.02218e-05
-0.00212168
8.05336e-05
-0.00215151
7.05526e-05
-0.002177
6.03131e-05
-0.00219807
4.98495e-05
-0.00221462
3.91966e-05
-0.0022266
2.83899e-05
-0.00223396
1.74651e-05
-0.00223666
6.45861e-06
-0.00223468
-4.59265e-06
-0.00222803
-1.56512e-05
-0.00221671
-2.66792e-05
-0.00220075
-3.76385e-05
-0.00218021
-4.84903e-05
-0.00215514
-5.91955e-05
-0.00212562
-6.97145e-05
-0.00209175
-8.00076e-05
-0.00205365
-9.00346e-05
-0.00201144
-9.97551e-05
-0.00196527
-0.000109129
-0.0019153
-0.000118115
-0.00186172
-0.000126673
-0.00180473
-0.000134762
-0.00174454
-0.000142345
-0.00168138
-0.000149379
-0.00161549
-0.000155828
-0.00154715
-0.000161652
-0.00147663
-0.000166815
-0.00140422
-0.00017128
-0.00133024
-0.000175013
-0.001255
-0.000177981
-0.00117884
-0.000180151
-0.0011021
-0.000181496
-0.00102515
-0.000181987
-0.000948341
-0.000181601
-0.000872059
-0.000180316
-0.000796683
-0.000178112
-0.000722601
-0.000174977
-0.000650203
-0.000170899
-0.00057988
-0.000165873
-0.000512025
-0.000159899
-0.000447022
-0.000152982
-0.000385252
-0.000145136
-0.000327081
-0.000136385
-0.000272861
-0.000126761
-0.000222921
-0.000116311
-0.000177561
-0.000105097
-0.000137046
-9.32014e-05
-0.00010159
-8.07344e-05
-7.13484e-05
-6.7838e-05
-4.63979e-05
-5.4699e-05
-2.67178e-05
-4.15619e-05
-1.21645e-05
-2.87482e-05
-2.44095e-06
-1.66809e-05
2.93923e-06
-5.91685e-06
4.69381e-06
2.81415e-06
3.81747e-06
8.57148e-06
1.64035e-06
1.01636e-05
6.00909e-06
8.12548e-07
-6.69697e-06
8.18739e-07
-9.46431e-06
-1.72979e-06
-4.63764e-06
-8.11435e-06
5.59576e-06
-1.92887e-05
1.96641e-05
-3.5936e-05
3.63298e-05
-5.85089e-05
5.46215e-05
-8.72685e-05
7.37888e-05
-0.000122316
9.32536e-05
-0.000163624
0.000112573
-0.000211058
0.00013141
-0.0002644
0.000149505
-0.000323368
0.000166665
-0.000387626
0.000182745
-0.000456798
0.000197636
-0.00053048
0.000211261
-0.000608245
0.000223566
-0.000689651
0.000234517
-0.000774246
0.000244095
-0.000861573
0.000252292
-0.000951172
0.00025911
-0.00104259
0.000264561
-0.00113536
0.000268663
-0.00122906
0.000271439
-0.00132322
0.000272916
-0.00141744
0.000273126
-0.00151128
0.000272103
-0.00160434
0.000269885
-0.00169622
0.000266511
-0.00178654
0.000262022
-0.00187494
0.000256459
-0.00196106
0.000249868
-0.00204457
0.000242293
-0.00212514
0.00023378
-0.00220246
0.000224375
-0.00227625
0.000214126
-0.00234623
0.00020308
-0.00241214
0.000191287
-0.00247374
0.000178794
-0.0025308
0.000165652
-0.00258313
0.00015191
-0.00263053
0.000137619
-0.00267282
0.00012283
-0.00270986
0.000107595
-0.00274152
9.1965e-05
-0.00276766
7.59939e-05
-0.0027882
5.97351e-05
-0.00280305
4.32425e-05
-0.00281216
2.6571e-05
-0.00281548
9.77621e-06
-0.00281298
-7.08526e-06
-0.00280468
-2.39564e-05
-0.00279058
-4.07795e-05
-0.00277072
-5.74959e-05
-0.00274516
-7.40468e-05
-0.00271399
-9.03722e-05
-0.00267729
-0.000106412
-0.00263519
-0.000122106
-0.00258783
-0.000137392
-0.00253538
-0.000152209
-0.00247801
-0.000166496
-0.00241594
-0.000180192
-0.00234937
-0.000193234
-0.00227857
-0.000205563
-0.0022038
-0.000217117
-0.00212534
-0.000227837
-0.00204351
-0.000237665
-0.00195862
-0.000246543
-0.00187102
-0.000254414
-0.00178107
-0.000261226
-0.00168916
-0.000266926
-0.00159567
-0.000271465
-0.00150103
-0.000274795
-0.00140565
-0.000276874
-0.00130998
-0.000277661
-0.00121446
-0.000277122
-0.00111955
-0.000275223
-0.00102572
-0.000271941
-0.000933443
-0.000267254
-0.000843192
-0.00026115
-0.000755443
-0.000253622
-0.000670667
-0.000244674
-0.000589331
-0.000234318
-0.000511889
-0.000222579
-0.00043878
-0.000209494
-0.000370421
-0.00019512
-0.0003072
-0.000179531
-0.00024947
-0.000162827
-0.000197536
-0.000145135
-0.000151645
-0.000126625
-0.000111973
-0.00010751
-7.86053e-05
-8.8067e-05
-5.15175e-05
-6.86496e-05
-3.05532e-05
-4.97124e-05
-1.53955e-05
-3.18387e-05
-5.53595e-06
-1.57764e-05
-2.40065e-07
-2.48175e-06
1.49295e-06
6.83844e-06
9.83322e-07
1.06733e-05
6.99243e-06
-8.43286e-08
-6.61257e-06
-2.33441e-06
-7.2142e-06
-8.29175e-06
1.31963e-06
-1.91292e-05
1.64329e-05
-3.57346e-05
3.62696e-05
-5.87522e-05
5.93473e-05
-8.86121e-05
8.44816e-05
-0.00012556
0.000110737
-0.000169686
0.000137379
-0.000220946
0.000163833
-0.000279187
0.00018965
-0.000344164
0.000214482
-0.00041556
0.000238062
-0.000492999
0.000260184
-0.00057606
0.000280696
-0.000664284
0.000299484
-0.000757186
0.000316468
-0.000854262
0.000331594
-0.000954994
0.000344828
-0.00105886
0.000356155
-0.00116532
0.000365576
-0.00127386
0.0003731
-0.00138395
0.00037875
-0.00149506
0.000382553
-0.00160669
0.000384546
-0.00171834
0.000384771
-0.00182951
0.000383272
-0.00193972
0.000380102
-0.00204852
0.000375312
-0.00215546
0.00036896
-0.00226011
0.000361103
-0.00236204
0.000351802
-0.00246087
0.000341119
-0.0025562
0.000329119
-0.00264769
0.000315865
-0.00273499
0.000301424
-0.00281778
0.000285864
-0.00289574
0.000269251
-0.0029686
0.000251654
-0.00303609
0.000233144
-0.00309797
0.00021379
-0.00315402
0.000193664
-0.00320403
0.000172837
-0.00324781
0.000151383
-0.00328522
0.000129374
-0.00331612
0.000106887
-0.00334038
8.39949e-05
-0.00335791
6.07756e-05
-0.00336864
3.73062e-05
-0.00337253
1.36652e-05
-0.00336955
-1.00681e-05
-0.00335969
-3.3813e-05
-0.00334298
-5.74884e-05
-0.00331947
-8.10119e-05
-0.00328922
-0.0001043
-0.00325232
-0.00012727
-0.0032089
-0.000149835
-0.00315909
-0.000171912
-0.00310307
-0.000193414
-0.00304102
-0.000214255
-0.00297317
-0.00023435
-0.00289975
-0.000253611
-0.00282103
-0.000271954
-0.0027373
-0.000289293
-0.00264887
-0.000305545
-0.00255608
-0.000320624
-0.00245929
-0.000334451
-0.00235889
-0.000346946
-0.00225528
-0.00035803
-0.00214887
-0.000367628
-0.00204013
-0.00037567
-0.00192951
-0.000382086
-0.00181749
-0.000386812
-0.00170458
-0.00038979
-0.00159128
-0.000390964
-0.00147811
-0.000390288
-0.00136562
-0.000387718
-0.00125433
-0.000383222
-0.00114482
-0.000376774
-0.00103761
-0.000368358
-0.000933261
-0.000357969
-0.00083232
-0.000345616
-0.000735318
-0.00033132
-0.000642777
-0.000315119
-0.000555198
-0.000297074
-0.000473055
-0.000277264
-0.000396787
-0.000255799
-0.000326793
-0.000232821
-0.000263414
-0.000208514
-0.000206929
-0.00018311
-0.000157534
-0.000156905
-0.000115331
-0.00013027
-8.03051e-05
-0.000103675
-5.23069e-05
-7.77107e-05
-3.10272e-05
-5.31183e-05
-1.5973e-05
-3.08306e-05
-6.43894e-06
-1.20158e-05
-1.47739e-06
1.87685e-06
1.40471e-07
9.05546e-06
7.13291e-06
-1.07423e-06
-5.53833e-06
-5.85487e-06
-2.43354e-06
-1.56212e-05
1.10861e-05
-3.1384e-05
3.21958e-05
-5.39224e-05
5.88078e-05
-8.38037e-05
8.92287e-05
-0.000121406
0.000122083
-0.000166935
0.000156267
-0.000220451
0.000190895
-0.000281881
0.000225264
-0.000351045
0.000258814
-0.000427668
0.000291105
-0.000511399
0.000321793
-0.000601824
0.000350609
-0.000698476
0.000377349
-0.000800852
0.00040186
-0.000908414
0.00042403
-0.0010206
0.000443783
-0.00113684
0.000461069
-0.00125655
0.000475863
-0.00137913
0.000488158
-0.001504
0.000497964
-0.00163055
0.000505305
-0.00175821
0.000510215
-0.00188641
0.000512738
-0.00201456
0.000512926
-0.00214213
0.000510837
-0.00226856
0.000506535
-0.00239334
0.00050009
-0.00251595
0.000491574
-0.00263591
0.000481063
-0.00275275
0.000468636
-0.002866
0.000454375
-0.00297525
0.000438363
-0.00308007
0.000420687
-0.00318008
0.000401433
-0.0032749
0.00038069
-0.0033642
0.000358547
-0.00344764
0.000335097
-0.00352493
0.000310432
-0.00359579
0.000284645
-0.00365995
0.00025783
-0.0037172
0.000230084
-0.00376732
0.000201504
-0.00381013
0.000172187
-0.00384548
0.000142234
-0.00387323
0.000111745
-0.00389328
8.08222e-05
-0.00390554
4.95681e-05
-0.00390996
1.80875e-05
-0.00390652
-1.35135e-05
-0.0038952
-4.51281e-05
-0.00387604
-7.66478e-05
-0.00384909
-0.000107963
-0.00381443
-0.000138964
-0.00377216
-0.000169537
-0.00372242
-0.000199572
-0.00366538
-0.000228955
-0.00360122
-0.000257571
-0.00353017
-0.000285307
-0.00345247
-0.00031205
-0.0033684
-0.000337684
-0.00327826
-0.000362096
-0.00318238
-0.000385174
-0.00308111
-0.000406807
-0.00297485
-0.000426885
-0.00286401
-0.000445299
-0.00274901
-0.000461946
-0.00263031
-0.000476723
-0.00250841
-0.000489532
-0.0023838
-0.000500279
-0.00225701
-0.000508875
-0.00212859
-0.000515236
-0.00199909
-0.000519285
-0.0018691
-0.000520954
-0.00173921
-0.000520179
-0.00161002
-0.00051691
-0.00148214
-0.000511103
-0.00135618
-0.000502728
-0.00123277
-0.000491768
-0.00111252
-0.000478221
-0.000996035
-0.0004621
-0.000883914
-0.00044344
-0.000776737
-0.000422296
-0.00067506
-0.000398751
-0.000579408
-0.000372916
-0.000490267
-0.00034494
-0.000408076
-0.000315012
-0.000333214
-0.000283376
-0.00026599
-0.000250334
-0.000206628
-0.000216267
-0.000155254
-0.000181645
-0.000111876
-0.000147054
-7.63688e-05
-0.000113217
-4.84567e-05
-8.10303e-05
-2.76912e-05
-5.15961e-05
-1.34326e-05
-2.62745e-05
-4.83002e-06
-6.72569e-06
-8.009e-07
5.02637e-06
6.33202e-06
-2.10413e-06
-3.43428e-06
-9.56608e-06
5.02833e-06
-2.33866e-05
2.49068e-05
-4.43843e-05
5.31935e-05
-7.31976e-05
8.76211e-05
-0.000110292
0.000126323
-0.000155967
0.000167758
-0.000210371
0.000210671
-0.000273516
0.00025404
-0.000345289
0.000297037
-0.000425474
0.000338998
-0.000513759
0.00037939
-0.000609756
0.00041779
-0.000713013
0.000453866
-0.000823023
0.000487359
-0.000939236
0.000518073
-0.00106107
0.000545863
-0.00118791
0.000570627
-0.00131914
0.000592295
-0.00145411
0.000610832
-0.00159217
0.000626222
-0.00173268
0.000638473
-0.00187499
0.000647611
-0.00201845
0.000653673
-0.00216242
0.000656714
-0.00230629
0.000656794
-0.00244944
0.000653985
-0.00259127
0.000648366
-0.0027312
0.000640022
-0.00286867
0.000629044
-0.00300313
0.000615527
-0.00313407
0.00059957
-0.00326097
0.000581276
-0.00338336
0.000560751
-0.00350077
0.000538103
-0.00361278
0.000513442
-0.00371897
0.000486882
-0.00381896
0.000458537
-0.00391239
0.000428522
-0.00399891
0.000396956
-0.00407822
0.000363958
-0.00415004
0.00032965
-0.00421411
0.000294153
-0.0042702
0.000257591
-0.0043181
0.000220091
-0.00435765
0.000181779
-0.00438869
0.000142784
-0.0044111
0.000103237
-0.0044248
6.32692e-05
-0.00442973
2.30144e-05
-0.00442585
-1.7392e-05
-0.00441317
-5.78133e-05
-0.0043917
-9.8111e-05
-0.00436152
-0.000138145
-0.00432271
-0.000177775
-0.00427539
-0.000216858
-0.00421971
-0.00025525
-0.00415586
-0.000292808
-0.00408404
-0.000329386
-0.00400451
-0.00036484
-0.00391754
-0.000399023
-0.00382343
-0.000431792
-0.00372252
-0.000463002
-0.00361519
-0.000492511
-0.00350182
-0.000520176
-0.00338284
-0.000545859
-0.00325872
-0.000569424
-0.00312993
-0.000590738
-0.00299698
-0.000609673
-0.0028604
-0.000626104
-0.00272077
-0.000639914
-0.00257865
-0.00065099
-0.00243466
-0.000659229
-0.00228941
-0.000664534
-0.00214355
-0.00066682
-0.00199772
-0.00066601
-0.00185258
-0.000662041
-0.00170883
-0.000654862
-0.00156712
-0.000644438
-0.00142813
-0.000630751
-0.00129255
-0.000613803
-0.00116104
-0.000593614
-0.00103424
-0.000570234
-0.000912802
-0.000543737
-0.000797322
-0.000514232
-0.000688374
-0.000481864
-0.000586489
-0.000446825
-0.000492146
-0.000409355
-0.000405761
-0.00036976
-0.000327678
-0.000328417
-0.000258155
-0.00028579
-0.000197348
-0.000242451
-0.000145304
-0.000199098
-0.000101939
-0.000156582
-6.70294e-05
-0.00011594
-4.01952e-05
-7.84304e-05
-2.08893e-05
-4.55803e-05
-8.3884e-06
-1.92266e-05
-1.78709e-06
-1.57491e-06
4.54496e-06
-3.14214e-06
-2.91998e-07
-1.33543e-05
1.52403e-05
-3.13622e-05
4.29148e-05
-5.77787e-05
7.961e-05
-9.30851e-05
0.000122927
-0.000137624
0.000170862
-0.0001916
0.000221735
-0.000255087
0.000274158
-0.000328034
0.000326987
-0.000410278
0.000379281
-0.000501554
0.000430275
-0.000601512
0.000479348
-0.000709722
0.000526
-0.00082569
0.000569834
-0.000948868
0.000610537
-0.00107866
0.000647869
-0.00121445
0.000681648
-0.00135557
0.000711745
-0.00150134
0.000738072
-0.00165109
0.000760575
-0.0018041
0.000779234
-0.00195968
0.000794052
-0.00211712
0.000805055
-0.00227574
0.000812287
-0.00243483
0.000815806
-0.00259372
0.000815687
-0.00275175
0.000812014
-0.00290827
0.000804881
-0.00306264
0.000794391
-0.00321424
0.000780653
-0.0033625
0.000763782
-0.00350683
0.0007439
-0.00364669
0.000721133
-0.00378154
0.000695609
-0.0039109
0.000667462
-0.00403429
0.000636827
-0.00415125
0.000603843
-0.00426136
0.000568652
-0.00436424
0.000531396
-0.00445951
0.000492222
-0.00454682
0.000451277
-0.00462589
0.000408711
-0.00469641
0.000364675
-0.00475814
0.000319323
-0.00481086
0.000272811
-0.00485438
0.000225295
-0.00488853
0.000176936
-0.00491319
0.000127896
-0.00492825
7.8337e-05
-0.00493366
2.84253e-05
-0.00492938
-2.16716e-05
-0.00491541
-7.17843e-05
-0.00489178
-0.000121742
-0.00485856
-0.00017137
-0.00481584
-0.000220496
-0.00476375
-0.000268943
-0.00470247
-0.000316533
-0.00463219
-0.000363089
-0.00455314
-0.000408432
-0.0044656
-0.000452382
-0.00436986
-0.00049476
-0.00426627
-0.000535388
-0.00415518
-0.000574089
-0.00403701
-0.000610686
-0.00391217
-0.000645006
-0.00378116
-0.000676878
-0.00364444
-0.000706136
-0.00350257
-0.000732615
-0.00335608
-0.000756159
-0.00320557
-0.000776617
-0.00305164
-0.000793843
-0.00289493
-0.000807703
-0.00273609
-0.000818069
-0.00257579
-0.000824826
-0.00241474
-0.00082787
-0.00225365
-0.000827109
-0.00209322
-0.000822469
-0.00193419
-0.000813891
-0.00177729
-0.000801335
-0.00162326
-0.000784783
-0.00147282
-0.000764239
-0.0013267
-0.000739737
-0.0011856
-0.000711339
-0.00105019
-0.000679141
-0.000921142
-0.000643281
-0.000799065
-0.000603941
-0.000684535
-0.000561355
-0.000578071
-0.00051582
-0.000480129
-0.000467702
-0.000391092
-0.000417454
-0.000311258
-0.000365625
-0.000240826
-0.000312883
-0.000179889
-0.000260035
-0.000128421
-0.00020805
-8.62662e-05
-0.000158095
-5.3131e-05
-0.000111566
-2.85804e-05
-7.01308e-05
-1.20366e-05
-3.57704e-05
-2.78564e-06
-1.08258e-05
1.75934e-06
-4.17006e-06
3.87809e-06
-1.71466e-05
2.82168e-05
-3.93959e-05
6.5164e-05
-7.13236e-05
0.000111538
-0.000113244
0.000164848
-0.000165367
0.000222984
-0.000227788
0.000284156
-0.000300492
0.000346862
-0.000383356
0.000409851
-0.000476155
0.00047208
-0.000578571
0.000532691
-0.000690202
0.00059098
-0.000810576
0.000646373
-0.000939153
0.000698411
-0.00107534
0.000746728
-0.00121851
0.000791037
-0.00136799
0.000831122
-0.00152307
0.000866825
-0.00168303
0.000898035
-0.00184714
0.000924686
-0.00201465
0.000946746
-0.00218481
0.000964216
-0.00235688
0.00097712
-0.0025301
0.000985507
-0.00270374
0.000989444
-0.00287707
0.000989016
-0.00304937
0.00098432
-0.00321996
0.000975466
-0.00338814
0.000962575
-0.00355326
0.000945777
-0.00371469
0.000925209
-0.00387181
0.000901014
-0.00402401
0.000873343
-0.00417076
0.000842349
-0.00431149
0.000808193
-0.0044457
0.000771037
-0.0045729
0.000731048
-0.00469265
0.000688396
-0.0048045
0.000643254
-0.00490808
0.000595796
-0.005003
0.000546202
-0.00508894
0.000494652
-0.0051656
0.000441328
-0.00523269
0.000386417
-0.00528999
0.000330106
-0.00533728
0.000272587
-0.00537439
0.00021405
-0.00540119
0.000154693
-0.00541756
9.47121e-05
-0.00542345
3.43076e-05
-0.0054188
-2.63182e-05
-0.00540362
-8.69606e-05
-0.00537795
-0.000147413
-0.00534186
-0.000207466
-0.00529544
-0.00026691
-0.00523885
-0.000325532
-0.00517227
-0.000383118
-0.00509591
-0.000439454
-0.00501001
-0.000494323
-0.00491488
-0.000547512
-0.00481084
-0.000598803
-0.00469825
-0.000647983
-0.0045775
-0.000694838
-0.00444903
-0.000739156
-0.0043133
-0.00078073
-0.00417083
-0.000819354
-0.00402213
-0.000854829
-0.00386779
-0.000886958
-0.00370839
-0.000915555
-0.00354457
-0.000940438
-0.00337698
-0.000961435
-0.0032063
-0.000978384
-0.00303323
-0.000991136
-0.0028585
-0.000999553
-0.00268286
-0.00100351
-0.00250706
-0.00100291
-0.00233188
-0.000997654
-0.00215809
-0.000987681
-0.00198648
-0.000972945
-0.00181783
-0.000953428
-0.00165293
-0.000929141
-0.00149254
-0.000900126
-0.00133742
-0.000866462
-0.00118829
-0.000828269
-0.00104586
-0.000785714
-0.000910783
-0.000739016
-0.000783683
-0.000688455
-0.000665122
-0.000634381
-0.000555598
-0.000577226
-0.000455538
-0.000517514
-0.000365286
-0.000455877
-0.000285093
-0.000393076
-0.00021511
-0.000330018
-0.000155378
-0.000267782
-0.000105823
-0.000207651
-6.62508e-05
-0.000151138
-3.6351e-05
-0.000100031
-1.56999e-05
-5.64216e-05
-3.77729e-06
-2.27483e-05
-2.01795e-06
-5.17759e-06
9.05586e-06
-2.08983e-05
4.39375e-05
-4.73885e-05
9.16541e-05
-8.48527e-05
0.000149002
-0.000133437
0.000213432
-0.00019321
0.000282757
-0.000264152
0.000355098
-0.000346149
0.00042886
-0.000438996
0.000502698
-0.000542397
0.000575481
-0.000655973
0.000646267
-0.000779268
0.000714275
-0.000911758
0.000778863
-0.00105286
0.000839511
-0.00120193
0.000895801
-0.0013583
0.000947404
-0.00152124
0.000994068
-0.00169002
0.0010356
-0.00186387
0.00107188
-0.00204201
0.00110282
-0.00222365
0.00112838
-0.00240798
0.00114855
-0.00259423
0.00116336
-0.00278159
0.00117287
-0.00296929
0.00117714
-0.00315654
0.00117627
-0.00334261
0.00117038
-0.00352673
0.00115959
-0.00370819
0.00114404
-0.00388629
0.00112388
-0.00406035
0.00109927
-0.00422972
0.00107038
-0.00439376
0.00103738
-0.00455187
0.00100046
-0.00470347
0.000959799
-0.00484803
0.000915594
-0.00498502
0.000868039
-0.00511396
0.000817335
-0.00523439
0.000763685
-0.00534589
0.000707298
-0.00544807
0.000648384
-0.00554058
0.000587156
-0.00562308
0.000523831
-0.00569529
0.000458628
-0.00575695
0.000391771
-0.00580785
0.000323485
-0.0058478
0.000253998
-0.00587665
0.000183541
-0.00589428
0.000112348
-0.00590063
4.06559e-05
-0.00589565
-3.12956e-05
-0.00587935
-0.000103264
-0.00585176
-0.000175006
-0.00581295
-0.000246273
-0.00576304
-0.000316817
-0.00570219
-0.000386387
-0.00563058
-0.000454729
-0.00554844
-0.000521591
-0.00545605
-0.000586718
-0.0053537
-0.000649855
-0.00524176
-0.000710748
-0.0051206
-0.000769144
-0.00499064
-0.000824791
-0.00485236
-0.000877441
-0.00470624
-0.000926848
-0.00455283
-0.000972771
-0.00439268
-0.00101497
-0.00422641
-0.00105323
-0.00405465
-0.00108732
-0.00387806
-0.00111702
-0.00369736
-0.00114214
-0.00351324
-0.0011625
-0.00332648
-0.0011779
-0.00313783
-0.0011882
-0.0029481
-0.00119325
-0.00275807
-0.00119293
-0.00256858
-0.00118714
-0.00238046
-0.00117581
-0.00219453
-0.00115888
-0.00201162
-0.00113633
-0.00183258
-0.00110819
-0.0016582
-0.0010745
-0.00148929
-0.00103537
-0.00132663
-0.000990931
-0.00117096
-0.000941384
-0.00102299
-0.000886986
-0.000883381
-0.000828063
-0.000752743
-0.00076502
-0.000631621
-0.000698348
-0.000520491
-0.000628643
-0.000419751
-0.000556617
-0.00032971
-0.000483116
-0.000250586
-0.000409142
-0.000182496
-0.000335872
-0.000125458
-0.000264689
-7.93857e-05
-0.00019721
-4.4099e-05
-0.000135317
-1.93313e-05
-8.11892e-05
-4.751e-06
-3.73285e-05
-6.76896e-06
-6.15936e-06
1.52152e-05
-2.45825e-05
6.23606e-05
-5.52773e-05
0.000122349
-9.82568e-05
0.000191981
-0.000153502
0.000268677
-0.000220938
0.000350193
-0.000300423
0.000434583
-0.000391741
0.000520178
-0.000494596
0.000605553
-0.000608616
0.0006895
-0.000733352
0.000771003
-0.000868288
0.000849211
-0.00101285
0.000923421
-0.00116639
0.000993054
-0.00132823
0.00105765
-0.00149765
0.00111682
-0.00167389
0.0011703
-0.00185615
0.00121787
-0.00204364
0.00125937
-0.00223552
0.0012947
-0.00243096
0.00132382
-0.00262913
0.00134672
-0.00282918
0.00136342
-0.00303029
0.00137398
-0.00323163
0.00137848
-0.00343239
0.00137703
-0.00363176
0.00136975
-0.00382897
0.0013568
-0.00402325
0.00133832
-0.00421387
0.00131449
-0.0044001
0.0012855
-0.00458125
0.00125153
-0.00475666
0.00121279
-0.00492569
0.00116949
-0.00508774
0.00112185
-0.00524223
0.00107008
-0.0053886
0.00101441
-0.00552635
0.000955088
-0.005655
0.000892335
-0.0057741
0.000826397
-0.00588324
0.000757519
-0.00598203
0.000685949
-0.00607014
0.000611939
-0.00614726
0.000535746
-0.00621311
0.000457628
-0.00626748
0.000377848
-0.00631015
0.000296671
-0.00634098
0.000214368
-0.00635984
0.000131209
-0.00636666
4.74722e-05
-0.00636139
-3.65651e-05
-0.00634403
-0.000120621
-0.00631463
-0.00020441
-0.00627325
-0.000287645
-0.00622003
-0.000370036
-0.00615513
-0.000451292
-0.00607874
-0.000531119
-0.00599111
-0.000609222
-0.00589252
-0.000685306
-0.0057833
-0.000759074
-0.00566382
-0.000830232
-0.00553447
-0.000898485
-0.00539572
-0.000963543
-0.00524805
-0.00102512
-0.00509197
-0.00108292
-0.00492807
-0.00113668
-0.00475693
-0.00118611
-0.0045792
-0.00123096
-0.00439554
-0.00127097
-0.00420667
-0.0013059
-0.00401331
-0.0013355
-0.00381623
-0.00135958
-0.00361622
-0.00137791
-0.00341409
-0.00139033
-0.00321068
-0.00139666
-0.00300683
-0.00139678
-0.00280341
-0.00139056
-0.0026013
-0.00137792
-0.00240137
-0.00135881
-0.0022045
-0.0013332
-0.00201156
-0.00130113
-0.00182342
-0.00126265
-0.00164091
-0.00121787
-0.00146487
-0.00116698
-0.00129607
-0.00111018
-0.00113529
-0.00104777
-0.000983219
-0.000980133
-0.000840522
-0.000907716
-0.000707796
-0.000831074
-0.00058557
-0.000750869
-0.000474301
-0.000667886
-0.000374364
-0.000583054
-0.000286049
-0.000497457
-0.000209559
-0.000412362
-0.000145008
-0.000329241
-9.24242e-05
-0.000249793
-5.17598e-05
-0.000175982