/*--------------------------------*- C++ -*----------------------------------*\
  =========                 |
  \\      /  F ield         | OpenFOAM: The Open Source CFD Toolbox
   \\    /   O peration     | Website:  https://openfoam.org
    \\  /    A nd           | Version:  11
     \\/     M anipulation  |
\*---------------------------------------------------------------------------*/
FoamFile
{
    format      ascii;
    class       volVectorField;
    location    "8.9";
    object      U;
}
// * * * * * * * * * * * * * * * * * * * * * * * * * * * * * * * * * * * * * //

dimensions      [0 1 -1 0 0 0 0];

internalField   nonuniform List<vector> 
10100
(
(3.07718e-06 -2.98602e-06 0)
(1.49852e-05 -7.68098e-06 0)
(3.39702e-05 -8.86535e-06 0)
(5.1753e-05 -7.6203e-06 0)
(6.34005e-05 -5.11464e-06 0)
(6.64646e-05 -1.99573e-06 0)
(5.96931e-05 1.38135e-06 0)
(4.25117e-05 4.81083e-06 0)
(1.4798e-05 8.18011e-06 0)
(-2.32819e-05 1.14148e-05 0)
(-7.13724e-05 1.44813e-05 0)
(-0.000128988 1.73513e-05 0)
(-0.000195569 2.00128e-05 0)
(-0.000270489 2.24623e-05 0)
(-0.000353094 2.46923e-05 0)
(-0.00044271 2.67037e-05 0)
(-0.000538641 2.84988e-05 0)
(-0.000640198 3.00783e-05 0)
(-0.000746691 3.14458e-05 0)
(-0.000857431 3.2607e-05 0)
(-0.000971748 3.35667e-05 0)
(-0.00108898 3.43287e-05 0)
(-0.00120847 3.49014e-05 0)
(-0.00132959 3.52906e-05 0)
(-0.00145173 3.55003e-05 0)
(-0.00157429 3.55376e-05 0)
(-0.00169669 3.54094e-05 0)
(-0.00181838 3.51208e-05 0)
(-0.00193882 3.46774e-05 0)
(-0.0020575 3.40875e-05 0)
(-0.00217392 3.33585e-05 0)
(-0.0022876 3.24945e-05 0)
(-0.00239809 3.15015e-05 0)
(-0.00250496 3.03871e-05 0)
(-0.0026078 2.91589e-05 0)
(-0.00270622 2.78232e-05 0)
(-0.00279986 2.63862e-05 0)
(-0.00288838 2.4855e-05 0)
(-0.00297145 2.32352e-05 0)
(-0.00304878 2.15316e-05 0)
(-0.00312009 1.97507e-05 0)
(-0.00318512 1.78997e-05 0)
(-0.00324364 1.5986e-05 0)
(-0.00329544 1.40164e-05 0)
(-0.00334033 1.19963e-05 0)
(-0.00337815 9.93131e-06 0)
(-0.00340875 7.82815e-06 0)
(-0.00343203 5.693e-06 0)
(-0.00344787 3.5325e-06 0)
(-0.00345621 1.35432e-06 0)
(-0.003457 -8.3433e-07 0)
(-0.00345023 -3.02606e-06 0)
(-0.00343589 -5.21262e-06 0)
(-0.00341403 -7.38668e-06 0)
(-0.00338468 -9.54171e-06 0)
(-0.00334794 -1.16704e-05 0)
(-0.00330393 -1.37649e-05 0)
(-0.00325276 -1.58173e-05 0)
(-0.00319461 -1.78191e-05 0)
(-0.00312967 -1.97619e-05 0)
(-0.00305816 -2.16372e-05 0)
(-0.00298033 -2.34367e-05 0)
(-0.00289645 -2.51525e-05 0)
(-0.00280683 -2.67767e-05 0)
(-0.00271181 -2.83016e-05 0)
(-0.00261173 -2.97197e-05 0)
(-0.002507 -3.10225e-05 0)
(-0.00239801 -3.2201e-05 0)
(-0.00228522 -3.32462e-05 0)
(-0.0021691 -3.41504e-05 0)
(-0.00205013 -3.49066e-05 0)
(-0.00192885 -3.55076e-05 0)
(-0.00180579 -3.59463e-05 0)
(-0.00168152 -3.62158e-05 0)
(-0.00155662 -3.63095e-05 0)
(-0.00143172 -3.62208e-05 0)
(-0.00130742 -3.59439e-05 0)
(-0.00118439 -3.54738e-05 0)
(-0.00106327 -3.48056e-05 0)
(-0.000944732 -3.39342e-05 0)
(-0.00082947 -3.28557e-05 0)
(-0.000718171 -3.15674e-05 0)
(-0.000611529 -3.00673e-05 0)
(-0.000510242 -2.83535e-05 0)
(-0.000415004 -2.64247e-05 0)
(-0.000326501 -2.42812e-05 0)
(-0.000245402 -2.19254e-05 0)
(-0.000172356 -1.93619e-05 0)
(-0.000107975 -1.65977e-05 0)
(-5.28233e-05 -1.36444e-05 0)
(-7.39904e-06 -1.05205e-05 0)
(2.78972e-05 -7.2541e-06 0)
(5.28026e-05 -3.89009e-06 0)
(6.72571e-05 -5.01109e-07 0)
(7.15039e-05 2.79092e-06 0)
(6.625e-05 5.77499e-06 0)
(5.28906e-05 8.08581e-06 0)
(3.39757e-05 9.07612e-06 0)
(1.45844e-05 7.64951e-06 0)
(2.81928e-06 2.81877e-06 0)
(7.86637e-06 -1.50241e-05 0)
(3.15891e-05 -3.13286e-05 0)
(6.32847e-05 -3.33936e-05 0)
(8.85972e-05 -2.54296e-05 0)
(9.80366e-05 -1.13093e-05 0)
(8.61186e-05 6.35889e-06 0)
(4.94529e-05 2.58999e-05 0)
(-1.38229e-05 4.62033e-05 0)
(-0.000104444 6.65443e-05 0)
(-0.000222338 8.64423e-05 0)
(-0.000366864 0.00010557 0)
(-0.000536989 0.000123709 0)
(-0.000731377 0.000140714 0)
(-0.000948509 0.000156486 0)
(-0.00118671 0.000170962 0)
(-0.00144422 0.000184106 0)
(-0.00171921 0.000195896 0)
(-0.00200982 0.000206327 0)
(-0.00231418 0.000215407 0)
(-0.00263041 0.000223147 0)
(-0.00295665 0.000229567 0)
(-0.00329107 0.000234692 0)
(-0.00363186 0.000238553 0)
(-0.00397726 0.000241181 0)
(-0.00432553 0.000242611 0)
(-0.004675 0.000242882 0)
(-0.00502403 0.000242031 0)
(-0.00537105 0.000240094 0)
(-0.00571454 0.000237113 0)
(-0.00605302 0.000233127 0)
(-0.00638508 0.00022818 0)
(-0.00670937 0.000222311 0)
(-0.0070246 0.000215564 0)
(-0.00732953 0.000207984 0)
(-0.00762299 0.000199612 0)
(-0.00790386 0.000190493 0)
(-0.00817111 0.000180672 0)
(-0.00842375 0.000170192 0)
(-0.00866084 0.000159095 0)
(-0.00888153 0.000147425 0)
(-0.00908502 0.000135225 0)
(-0.00927058 0.000122539 0)
(-0.00943754 0.000109413 0)
(-0.00958529 9.58929e-05 0)
(-0.0097133 8.20227e-05 0)
(-0.0098211 6.7848e-05 0)
(-0.00990828 5.34149e-05 0)
(-0.00997449 3.87693e-05 0)
(-0.0100195 2.39578e-05 0)
(-0.0100431 9.02982e-06 0)
(-0.0100451 -5.96384e-06 0)
(-0.0100255 -2.09724e-05 0)
(-0.00998431 -3.59443e-05 0)
(-0.00992164 -5.08284e-05 0)
(-0.00983764 -6.55733e-05 0)
(-0.00973256 -8.01266e-05 0)
(-0.00960672 -9.44348e-05 0)
(-0.00946052 -0.000108444 0)
(-0.00929442 -0.000122099 0)
(-0.009109 -0.000135344 0)
(-0.00890487 -0.000148123 0)
(-0.00868276 -0.00016038 0)
(-0.00844346 -0.000172059 0)
(-0.00818784 -0.000183105 0)
(-0.00791686 -0.000193465 0)
(-0.00763155 -0.000203084 0)
(-0.00733302 -0.000211907 0)
(-0.00702245 -0.000219879 0)
(-0.0067011 -0.000226947 0)
(-0.00637031 -0.000233058 0)
(-0.00603148 -0.000238164 0)
(-0.00568608 -0.000242216 0)
(-0.00533567 -0.000245168 0)
(-0.00498183 -0.000246977 0)
(-0.00462623 -0.000247602 0)
(-0.00427058 -0.000247005 0)
(-0.00391665 -0.00024515 0)
(-0.00356624 -0.000242008 0)
(-0.0032212 -0.000237549 0)
(-0.00288339 -0.000231753 0)
(-0.00255472 -0.000224601 0)
(-0.00223709 -0.000216083 0)
(-0.00193242 -0.000206194 0)
(-0.0016426 -0.000194938 0)
(-0.00136952 -0.000182329 0)
(-0.001115 -0.000168394 0)
(-0.000880821 -0.000153176 0)
(-0.000668657 -0.000136734 0)
(-0.000480061 -0.000119158 0)
(-0.000316411 -0.000100567 0)
(-0.00017885 -8.11364e-05 0)
(-6.82035e-05 -6.11079e-05 0)
(1.5134e-05 -4.08294e-05 0)
(7.13626e-05 -2.08052e-05 0)
(0.000101506 -1.78159e-06 0)
(0.00010773 1.51222e-05 0)
(9.36976e-05 2.82201e-05 0)
(6.51397e-05 3.497e-05 0)
(3.16921e-05 3.16855e-05 0)
(7.64334e-06 1.45724e-05 0)
(9.08866e-06 -3.41964e-05 0)
(3.39454e-05 -6.3219e-05 0)
(6.2344e-05 -6.15647e-05 0)
(7.70508e-05 -3.83099e-05 0)
(6.66009e-05 -6.70835e-07 0)
(2.38672e-05 4.60321e-05 0)
(-5.58613e-05 9.79331e-05 0)
(-0.000175411 0.00015233 0)
(-0.00033606 0.000207297 0)
(-0.000537951 0.000261487 0)
(-0.000780353 0.000313942 0)
(-0.00106189 0.000363983 0)
(-0.00138072 0.000411132 0)
(-0.00173464 0.000455051 0)
(-0.00212119 0.000495514 0)
(-0.00253775 0.000532366 0)
(-0.00298156 0.000565518 0)
(-0.00344977 0.000594925 0)
(-0.0039395 0.000620571 0)
(-0.00444785 0.000642477 0)
(-0.00497193 0.00066068 0)
(-0.00550887 0.000675233 0)
(-0.00605582 0.000686207 0)
(-0.00661001 0.000693685 0)
(-0.0071687 0.000697753 0)
(-0.00772923 0.000698511 0)
(-0.00828902 0.00069606 0)
(-0.00884555 0.000690506 0)
(-0.00939638 0.000681957 0)
(-0.00993919 0.000670528 0)
(-0.0104717 0.000656334 0)
(-0.0109918 0.000639492 0)
(-0.0114973 0.000620123 0)
(-0.0119863 0.00059835 0)
(-0.0124569 0.000574296 0)
(-0.0129074 0.000548082 0)
(-0.013336 0.000519836 0)
(-0.0137412 0.000489682 0)
(-0.0141214 0.000457744 0)
(-0.0144753 0.000424149 0)
(-0.0148016 0.000389024 0)
(-0.0150991 0.000352497 0)
(-0.0153668 0.000314697 0)
(-0.0156036 0.000275756 0)
(-0.0158088 0.000235805 0)
(-0.0159814 0.000194978 0)
(-0.016121 0.000153409 0)
(-0.016227 0.000111234 0)
(-0.0162989 6.85913e-05 0)
(-0.0163364 2.56215e-05 0)
(-0.0163394 -1.75312e-05 0)
(-0.0163076 -6.07202e-05 0)
(-0.0162413 -0.000103797 0)
(-0.0161405 -0.000146614 0)
(-0.0160055 -0.00018902 0)
(-0.0158368 -0.000230864 0)
(-0.0156347 -0.000271992 0)
(-0.0154001 -0.000312246 0)
(-0.0151335 -0.000351471 0)
(-0.0148361 -0.000389507 0)
(-0.0145087 -0.000426195 0)
(-0.0141525 -0.000461374 0)
(-0.0137688 -0.000494886 0)
(-0.013359 -0.000526572 0)
(-0.0129247 -0.000556276 0)
(-0.0124674 -0.000583841 0)
(-0.011989 -0.000609114 0)
(-0.0114914 -0.000631941 0)
(-0.0109765 -0.000652172 0)
(-0.0104466 -0.000669664 0)
(-0.00990376 -0.000684275 0)
(-0.00935047 -0.000695871 0)
(-0.00878913 -0.000704323 0)
(-0.00822229 -0.000709513 0)
(-0.00765258 -0.000711326 0)
(-0.00708272 -0.000709661 0)
(-0.0065155 -0.000704424 0)
(-0.00595377 -0.000695534 0)
(-0.00540043 -0.000682921 0)
(-0.00485843 -0.000666535 0)
(-0.00433074 -0.000646337 0)
(-0.00382034 -0.000622311 0)
(-0.00333019 -0.000594462 0)
(-0.00286324 -0.000562822 0)
(-0.00242237 -0.000527456 0)
(-0.00201037 -0.000488469 0)
(-0.00162993 -0.000446014 0)
(-0.00128354 -0.000400306 0)
(-0.000973468 -0.00035164 0)
(-0.000701696 -0.000300416 0)
(-0.000469793 -0.000247176 0)
(-0.000278813 -0.000192661 0)
(-0.000129126 -0.000137883 0)
(-2.02094e-05 -8.42428e-05 0)
(4.96334e-05 -3.36872e-05 0)
(8.36275e-05 1.10574e-05 0)
(8.68671e-05 4.61913e-05 0)
(6.67881e-05 6.65117e-05 0)
(3.50988e-05 6.51608e-05 0)
(9.08913e-06 3.39664e-05 0)
(7.93681e-06 -5.24426e-05 0)
(2.63761e-05 -8.91087e-05 0)
(3.99955e-05 -7.64955e-05 0)
(3.11794e-05 -2.92023e-05 0)
(-1.20953e-05 4.20295e-05 0)
(-9.76932e-05 0.000128933 0)
(-0.000231019 0.000225294 0)
(-0.000415398 0.000326486 0)
(-0.000652475 0.000429127 0)
(-0.00094252 0.000530722 0)
(-0.00128475 0.00062945 0)
(-0.00167759 0.000723971 0)
(-0.00211879 0.000813314 0)
(-0.00260564 0.000896776 0)
(-0.00313507 0.000973856 0)
(-0.00370375 0.00104421 0)
(-0.00430814 0.00110762 0)
(-0.00494458 0.00116396 0)
(-0.00560933 0.00121316 0)
(-0.0062986 0.00125523 0)
(-0.00700859 0.00129022 0)
(-0.00773552 0.0013182 0)
(-0.00847564 0.00133931 0)
(-0.00922525 0.00135366 0)
(-0.00998073 0.00136144 0)
(-0.0107385 0.0013628 0)
(-0.0114952 0.00135794 0)
(-0.0122473 0.00134705 0)
(-0.0129917 0.00133035 0)
(-0.0137251 0.00130805 0)
(-0.0144446 0.00128036 0)
(-0.0151472 0.00124752 0)
(-0.0158302 0.00120975 0)
(-0.0164909 0.00116729 0)
(-0.0171267 0.00112037 0)
(-0.0177352 0.00106923 0)
(-0.0183142 0.00101412 0)
(-0.0188614 0.000955281 0)
(-0.019375 0.000892951 0)
(-0.019853 0.00082738 0)
(-0.0202937 0.000758817 0)
(-0.0206954 0.000687514 0)
(-0.0210568 0.000613725 0)
(-0.0213766 0.000537706 0)
(-0.0216534 0.000459715 0)
(-0.0218865 0.000380015 0)
(-0.0220747 0.000298871 0)
(-0.0222176 0.000216552 0)
(-0.0223144 0.000133329 0)
(-0.0223647 4.94777e-05 0)
(-0.0223683 -3.4719e-05 0)
(-0.0223252 -0.000118976 0)
(-0.0222352 -0.000203006 0)
(-0.0220988 -0.000286518 0)
(-0.0219161 -0.000369218 0)
(-0.0216879 -0.000450806 0)
(-0.0214147 -0.000530982 0)
(-0.0210975 -0.000609442 0)
(-0.0207374 -0.00068588 0)
(-0.0203355 -0.000759988 0)
(-0.0198932 -0.000831456 0)
(-0.0194121 -0.000899974 0)
(-0.0188939 -0.000965233 0)
(-0.0183405 -0.00102693 0)
(-0.017754 -0.00108475 0)
(-0.0171367 -0.0011384 0)
(-0.0164908 -0.00118758 0)
(-0.015819 -0.001232 0)
(-0.015124 -0.00127136 0)
(-0.0144086 -0.0013054 0)
(-0.0136758 -0.00133384 0)
(-0.0129289 -0.00135644 0)
(-0.0121711 -0.00137293 0)
(-0.0114057 -0.00138311 0)
(-0.0106363 -0.00138675 0)
(-0.00986662 -0.00138367 0)
(-0.00910024 -0.0013737 0)
(-0.00834099 -0.00135668 0)
(-0.00759273 -0.0013325 0)
(-0.00685936 -0.00130107 0)
(-0.00614478 -0.00126234 0)
(-0.00545293 -0.0012163 0)
(-0.00478769 -0.00116298 0)
(-0.0041529 -0.00110248 0)
(-0.00355231 -0.00103494 0)
(-0.00298951 -0.000960612 0)
(-0.00246792 -0.000879828 0)
(-0.00199073 -0.000793051 0)
(-0.00156076 -0.000700897 0)
(-0.00118044 -0.000604189 0)
(-0.000851668 -0.000504014 0)
(-0.000575633 -0.000401816 0)
(-0.000352678 -0.000299513 0)
(-0.000182047 -0.000199669 0)
(-6.1615e-05 -0.000105717 0)
(1.24496e-05 -2.22569e-05 0)
(4.59876e-05 4.45749e-05 0)
(4.72584e-05 8.67509e-05 0)
(2.868e-05 9.40076e-05 0)
(8.16304e-06 5.29956e-05 0)
(5.52591e-06 -6.47272e-05 0)
(1.27125e-05 -9.95923e-05 0)
(3.3595e-06 -6.68465e-05 0)
(-3.84215e-05 1.37674e-05 0)
(-0.000124185 0.000128069 0)
(-0.00026191 0.000264978 0)
(-0.000457136 0.000415901 0)
(-0.000713364 0.000574282 0)
(-0.00103232 0.000735139 0)
(-0.0014143 0.000894713 0)
(-0.00185845 0.00105016 0)
(-0.00236295 0.00119936 0)
(-0.00292528 0.0013407 0)
(-0.00354229 0.00147302 0)
(-0.00421041 0.00159546 0)
(-0.00492572 0.00170741 0)
(-0.00568403 0.00180845 0)
(-0.006481 0.00189832 0)
(-0.00731213 0.00197689 0)
(-0.00817288 0.00204411 0)
(-0.00905865 0.00210004 0)
(-0.00996485 0.00214477 0)
(-0.0108869 0.00217847 0)
(-0.0118204 0.00220133 0)
(-0.0127608 0.00221359 0)
(-0.0137037 0.00221551 0)
(-0.014645 0.00220739 0)
(-0.0155805 0.00218954 0)
(-0.0165062 0.00216228 0)
(-0.0174181 0.00212594 0)
(-0.0183127 0.00208088 0)
(-0.0191861 0.00202746 0)
(-0.0200351 0.00196604 0)
(-0.0208563 0.001897 0)
(-0.0216465 0.00182072 0)
(-0.0224027 0.00173759 0)
(-0.0231222 0.00164799 0)
(-0.0238023 0.00155233 0)
(-0.0244404 0.00145098 0)
(-0.0250342 0.00134437 0)
(-0.0255817 0.00123289 0)
(-0.0260808 0.00111696 0)
(-0.0265296 0.000996981 0)
(-0.0269267 0.000873378 0)
(-0.0272705 0.000746575 0)
(-0.0275597 0.000616998 0)
(-0.0277934 0.000485081 0)
(-0.0279705 0.000351262 0)
(-0.0280904 0.000215985 0)
(-0.0281526 7.97015e-05 0)
(-0.0281568 -5.71306e-05 0)
(-0.0281028 -0.000194048 0)
(-0.0279907 -0.000330582 0)
(-0.0278208 -0.000466259 0)
(-0.0275935 -0.000600599 0)
(-0.0273096 -0.000733117 0)
(-0.02697 -0.000863325 0)
(-0.0265757 -0.00099073 0)
(-0.026128 -0.00111483 0)
(-0.0256285 -0.00123514 0)
(-0.025079 -0.00135114 0)
(-0.0244812 -0.00146235 0)
(-0.0238374 -0.00156825 0)
(-0.02315 -0.00166836 0)
(-0.0224214 -0.00176218 0)
(-0.0216545 -0.00184922 0)
(-0.0208523 -0.00192902 0)
(-0.0200178 -0.00200109 0)
(-0.0191545 -0.00206498 0)
(-0.0182658 -0.00212024 0)
(-0.0173556 -0.00216646 0)
(-0.0164276 -0.00220322 0)
(-0.0154859 -0.00223013 0)
(-0.0145347 -0.00224685 0)
(-0.0135783 -0.00225303 0)
(-0.0126212 -0.00224838 0)
(-0.0116679 -0.00223265 0)
(-0.0107231 -0.00220561 0)
(-0.00979137 -0.00216708 0)
(-0.00887755 -0.00211695 0)
(-0.00798637 -0.00205515 0)
(-0.00712258 -0.0019817 0)
(-0.00629088 -0.00189669 0)
(-0.00549588 -0.00180029 0)
(-0.00474206 -0.0016928 0)
(-0.00403372 -0.00157466 0)
(-0.00337489 -0.00144644 0)
(-0.00276932 -0.00130894 0)
(-0.00222031 -0.00116321 0)
(-0.00173066 -0.00101059 0)
(-0.00130252 -0.000852863 0)
(-0.00093724 -0.000692308 0)
(-0.000635176 -0.000531902 0)
(-0.000395494 -0.000375507 0)
(-0.000215893 -0.000228152 0)
(-9.23234e-05 -9.63679e-05 0)
(-1.87103e-05 1.13872e-05 0)
(1.34143e-05 8.43287e-05 0)
(1.61313e-05 0.000108848 0)
(5.96466e-06 6.6703e-05 0)
(2.50543e-06 -6.86902e-05 0)
(-4.49506e-06 -8.92186e-05 0)
(-4.23114e-05 -2.5521e-05 0)
(-0.000123775 9.84829e-05 0)
(-0.000259091 0.0002655 0)
(-0.00045588 0.000461869 0)
(-0.000719443 0.000676746 0)
(-0.00105308 0.000901682 0)
(-0.0014584 0.0011301 0)
(-0.00193558 0.00135689 0)
(-0.00248358 0.00157816 0)
(-0.00310037 0.00179086 0)
(-0.00378311 0.00199271 0)
(-0.00452828 0.00218197 0)
(-0.00533188 0.00235734 0)
(-0.00618947 0.0025179 0)
(-0.00709633 0.00266297 0)
(-0.0080475 0.00279212 0)
(-0.00903784 0.0029051 0)
(-0.0100621 0.00300181 0)
(-0.0111151 0.00308225 0)
(-0.0121914 0.00314655 0)
(-0.0132859 0.00319489 0)
(-0.0143932 0.00322755 0)
(-0.0155081 0.00324483 0)
(-0.0166257 0.00324711 0)
(-0.017741 0.00323477 0)
(-0.0188491 0.00320827 0)
(-0.0199453 0.00316804 0)
(-0.0210251 0.00311459 0)
(-0.0220841 0.0030484 0)
(-0.023118 0.00297 0)
(-0.0241228 0.00287992 0)
(-0.0250945 0.00277869 0)
(-0.0260295 0.00266687 0)
(-0.0269243 0.00254501 0)
(-0.0277755 0.00241369 0)
(-0.02858 0.00227349 0)
(-0.0293348 0.00212497 0)
(-0.0300372 0.00196873 0)
(-0.0306846 0.00180537 0)
(-0.0312748 0.00163548 0)
(-0.0318055 0.00145967 0)
(-0.0322749 0.00127856 0)
(-0.0326813 0.00109277 0)
(-0.0330231 0.000902917 0)
(-0.0332991 0.000709651 0)
(-0.0335083 0.000513612 0)
(-0.0336498 0.000315453 0)
(-0.033723 0.000115835 0)
(-0.0337276 -8.45689e-05 0)
(-0.0336633 -0.000285081 0)
(-0.0335304 -0.000485014 0)
(-0.0333292 -0.000683672 0)
(-0.0330601 -0.000880355 0)
(-0.0327241 -0.00107435 0)
(-0.0323222 -0.00126494 0)
(-0.0318556 -0.00145142 0)
(-0.031326 -0.00163304 0)
(-0.0307352 -0.00180909 0)
(-0.0300851 -0.00197883 0)
(-0.0293781 -0.00214154 0)
(-0.0286167 -0.00229649 0)
(-0.0278037 -0.00244295 0)
(-0.0269421 -0.00258022 0)
(-0.0260352 -0.00270758 0)
(-0.0250864 -0.00282435 0)
(-0.0240994 -0.00292984 0)
(-0.0230783 -0.00302339 0)
(-0.0220272 -0.00310436 0)
(-0.0209503 -0.00317215 0)
(-0.0198523 -0.00322616 0)
(-0.0187379 -0.00326586 0)
(-0.017612 -0.00329072 0)
(-0.0164796 -0.00330028 0)
(-0.0153459 -0.00329413 0)
(-0.0142163 -0.0032719 0)
(-0.0130961 -0.00323329 0)
(-0.0119907 -0.00317809 0)
(-0.0109057 -0.00310613 0)
(-0.00984655 -0.00301737 0)
(-0.00881877 -0.00291185 0)
(-0.00782774 -0.00278975 0)
(-0.00687875 -0.00265136 0)
(-0.00597694 -0.00249716 0)
(-0.00512719 -0.00232784 0)
(-0.00433409 -0.00214428 0)
(-0.00360186 -0.00194769 0)
(-0.00293421 -0.00173961 0)
(-0.0023343 -0.00152203 0)
(-0.00180452 -0.00129748 0)
(-0.00134642 -0.00106919 0)
(-0.000960469 -0.000841272 0)
(-0.000645909 -0.00061895 0)
(-0.000400504 -0.000408862 0)
(-0.000220312 -0.000219433 0)
(-9.94261e-05 -6.13338e-05 0)
(-2.96496e-05 5.20835e-05 0)
(-4.17767e-08 0.000104175 0)
(3.13448e-06 7.26531e-05 0)
(-7.72745e-07 -6.30705e-05 0)
(-2.361e-05 -5.45779e-05 0)
(-9.33969e-05 5.23203e-05 0)
(-0.000219035 0.000230526 0)
(-0.000408889 0.000460191 0)
(-0.000669807 0.000725326 0)
(-0.0010065 0.00101309 0)
(-0.00142184 0.00131322 0)
(-0.00191709 0.00161762 0)
(-0.00249214 0.00191986 0)
(-0.00314569 0.00221491 0)
(-0.00387541 0.00249882 0)
(-0.00467814 0.00276854 0)
(-0.00555001 0.00302171 0)
(-0.00648661 0.00325656 0)
(-0.00748305 0.00347176 0)
(-0.00853411 0.00366635 0)
(-0.00963428 0.0038397 0)
(-0.0107779 0.00399139 0)
(-0.0119591 0.00412124 0)
(-0.013172 0.0042292 0)
(-0.0144107 0.00431539 0)
(-0.0156693 0.00438003 0)
(-0.0169418 0.00442344 0)
(-0.0182225 0.00444602 0)
(-0.0195056 0.00444823 0)
(-0.0207856 0.0044306 0)
(-0.0220569 0.0043937 0)
(-0.0233143 0.00433813 0)
(-0.0245525 0.00426453 0)
(-0.0257665 0.00417358 0)
(-0.0269517 0.00406597 0)
(-0.0281032 0.0039424 0)
(-0.0292168 0.00380363 0)
(-0.0302881 0.00365038 0)
(-0.0313132 0.00348342 0)
(-0.0322883 0.00330353 0)
(-0.0332097 0.00311148 0)
(-0.0340742 0.00290808 0)
(-0.0348786 0.00269411 0)
(-0.03562 0.0024704 0)
(-0.0362957 0.00223777 0)
(-0.0369033 0.00199705 0)
(-0.0374406 0.00174908 0)
(-0.0379057 0.00149471 0)
(-0.0382969 0.0012348 0)
(-0.0386126 0.000970241 0)
(-0.0388519 0.000701899 0)
(-0.0390136 0.000430674 0)
(-0.0390971 0.000157474 0)
(-0.039102 -0.000116781 0)
(-0.0390282 -0.000391164 0)
(-0.0388757 -0.000664733 0)
(-0.038645 -0.000936539 0)
(-0.0383367 -0.00120562 0)
(-0.0379517 -0.001471 0)
(-0.0374913 -0.00173172 0)
(-0.036957 -0.00198678 0)
(-0.0363505 -0.00223519 0)
(-0.0356739 -0.00247596 0)
(-0.0349295 -0.0027081 0)
(-0.0341199 -0.00293062 0)
(-0.033248 -0.00314253 0)
(-0.032317 -0.00334284 0)
(-0.0313304 -0.0035306 0)
(-0.0302918 -0.00370483 0)
(-0.0292052 -0.0038646 0)
(-0.0280748 -0.00400899 0)
(-0.0269052 -0.00413711 0)
(-0.025701 -0.00424811 0)
(-0.0244671 -0.00434115 0)
(-0.0232088 -0.00441546 0)
(-0.0219314 -0.00447029 0)
(-0.0206403 -0.00450498 0)
(-0.0193415 -0.00451891 0)
(-0.0180406 -0.00451153 0)
(-0.0167436 -0.00448237 0)
(-0.0154567 -0.00443105 0)
(-0.014186 -0.0043573 0)
(-0.0129377 -0.00426094 0)
(-0.0117178 -0.00414193 0)
(-0.0105326 -0.00400039 0)
(-0.00938816 -0.00383658 0)
(-0.00829025 -0.00365098 0)
(-0.00724463 -0.00344427 0)
(-0.00625672 -0.00321741 0)
(-0.0053316 -0.00297169 0)
(-0.00447392 -0.00270875 0)
(-0.00368779 -0.00243071 0)
(-0.0029767 -0.00214024 0)
(-0.00234333 -0.00184071 0)
(-0.00178947 -0.00153634 0)
(-0.00131584 -0.00123239 0)
(-0.000921906 -0.000935459 0)
(-0.000605705 -0.000653743 0)
(-0.000363673 -0.000397462 0)
(-0.000190394 -0.000179312 0)
(-7.83237e-05 -1.49283e-05 0)
(-1.82227e-05 7.64745e-05 0)
(2.56263e-08 6.95355e-05 0)
(-4.11736e-06 -4.72589e-05 0)
(-4.36165e-05 6.35992e-06 0)
(-0.000147402 0.000169789 0)
(-0.00032009 0.000413727 0)
(-0.000567804 0.000716255 0)
(-0.000896368 0.00105949 0)
(-0.00130966 0.00142879 0)
(-0.00180987 0.00181228 0)
(-0.00239775 0.00220042 0)
(-0.00307276 0.00258552 0)
(-0.00383321 0.00296145 0)
(-0.00467644 0.00332334 0)
(-0.0055989 0.00366734 0)
(-0.00659637 0.00399047 0)
(-0.00766403 0.00429041 0)
(-0.00879656 0.00456542 0)
(-0.00998828 0.00481422 0)
(-0.0112332 0.00503592 0)
(-0.0125251 0.00522994 0)
(-0.0138577 0.00539596 0)
(-0.0152245 0.0055339 0)
(-0.016619 0.00564383 0)
(-0.0180347 0.005726 0)
(-0.0194651 0.00578079 0)
(-0.0209038 0.00580867 0)
(-0.0223446 0.00581021 0)
(-0.0237812 0.00578607 0)
(-0.0252076 0.00573694 0)
(-0.0266178 0.00566361 0)
(-0.0280062 0.00556688 0)
(-0.0293672 0.00544762 0)
(-0.0306955 0.0053067 0)
(-0.0319859 0.00514504 0)
(-0.0332335 0.00496359 0)
(-0.0344336 0.00476331 0)
(-0.0355818 0.00454519 0)
(-0.0366738 0.00431022 0)
(-0.0377056 0.00405943 0)
(-0.0386736 0.00379384 0)
(-0.0395741 0.00351449 0)
(-0.040404 0.00322246 0)
(-0.0411604 0.0029188 0)
(-0.0418404 0.00260461 0)
(-0.0424417 0.00228098 0)
(-0.0429622 0.00194903 0)
(-0.0433998 0.00160988 0)
(-0.0437531 0.00126466 0)
(-0.0440206 0.000914544 0)
(-0.0442014 0.00056069 0)
(-0.0442946 0.000204283 0)
(-0.0442999 -0.000153477 0)
(-0.044217 -0.000511381 0)
(-0.0440462 -0.000868201 0)
(-0.0437878 -0.0012227 0)
(-0.0434426 -0.00157362 0)
(-0.0430116 -0.00191971 0)
(-0.0424961 -0.00225968 0)
(-0.041898 -0.00259227 0)
(-0.0412191 -0.00291619 0)
(-0.0404617 -0.00323014 0)
(-0.0396284 -0.00353283 0)
(-0.0387222 -0.00382299 0)
(-0.0377463 -0.00409933 0)
(-0.0367041 -0.00436057 0)
(-0.0355995 -0.00460547 0)
(-0.0344367 -0.00483279 0)
(-0.0332201 -0.00504131 0)
(-0.0319542 -0.00522985 0)
(-0.0306442 -0.00539727 0)
(-0.0292953 -0.00554245 0)
(-0.0279128 -0.00566434 0)
(-0.0265026 -0.00576195 0)
(-0.0250705 -0.00583433 0)
(-0.0236227 -0.00588064 0)
(-0.0221655 -0.00590008 0)
(-0.0207054 -0.00589197 0)
(-0.0192489 -0.00585574 0)
(-0.0178028 -0.00579092 0)
(-0.0163738 -0.00569719 0)
(-0.0149686 -0.00557436 0)
(-0.0135941 -0.00542242 0)
(-0.012257 -0.00524156 0)
(-0.0109638 -0.00503217 0)
(-0.00972112 -0.00479491 0)
(-0.00853504 -0.00453073 0)
(-0.00741152 -0.0042409 0)
(-0.0063561 -0.00392711 0)
(-0.00537384 -0.00359152 0)
(-0.00446925 -0.00323686 0)
(-0.00364616 -0.00286651 0)
(-0.0029076 -0.00248472 0)
(-0.00225569 -0.00209669 0)
(-0.00169148 -0.00170884 0)
(-0.0012148 -0.00132909 0)
(-0.000824177 -0.000967099 0)
(-0.000516629 -0.000634737 0)
(-0.000287485 -0.000346498 0)
(-0.000130129 -0.000119954 0)
(-3.7383e-05 2.36194e-05 0)
(-3.16554e-06 5.66852e-05 0)
(-7.4189e-06 -2.10478e-05 0)
(-6.38838e-05 9.46169e-05 0)
(-0.000202697 0.000328703 0)
(-0.000424058 0.000650457 0)
(-0.000731695 0.00103644 0)
(-0.0011302 0.0014672 0)
(-0.00162243 0.00192659 0)
(-0.00220973 0.00240132 0)
(-0.00289218 0.00288052 0)
(-0.00366867 0.00335534 0)
(-0.00453704 0.00381861 0)
(-0.0054942 0.00426454 0)
(-0.00653619 0.00468851 0)
(-0.00765838 0.00508688 0)
(-0.00885554 0.00545678 0)
(-0.0101219 0.00579605 0)
(-0.0114514 0.00610304 0)
(-0.0128376 0.0063766 0)
(-0.0142738 0.00661595 0)
(-0.0157531 0.00682064 0)
(-0.0172687 0.00699051 0)
(-0.0188134 0.0071256 0)
(-0.0203802 0.00722617 0)
(-0.0219622 0.00729263 0)
(-0.0235525 0.00732556 0)
(-0.0251441 0.00732562 0)
(-0.0267303 0.00729359 0)
(-0.0283047 0.00723033 0)
(-0.0298606 0.00713679 0)
(-0.031392 0.00701395 0)
(-0.0328928 0.00686288 0)
(-0.0343571 0.00668466 0)
(-0.0357794 0.00648044 0)
(-0.0371543 0.00625139 0)
(-0.0384766 0.00599871 0)
(-0.0397414 0.00572363 0)
(-0.0409443 0.00542739 0)
(-0.0420807 0.00511128 0)
(-0.0431466 0.00477658 0)
(-0.0441381 0.00442461 0)
(-0.0450519 0.00405669 0)
(-0.0458845 0.00367417 0)
(-0.0466331 0.00327843 0)
(-0.047295 0.00287083 0)
(-0.0478677 0.00245279 0)
(-0.0483494 0.00202571 0)
(-0.0487381 0.00159103 0)
(-0.0490324 0.0011502 0)
(-0.0492312 0.0007047 0)
(-0.0493337 0.000256015 0)
(-0.0493394 -0.00019435 0)
(-0.0492482 -0.000644868 0)
(-0.04906 -0.001094 0)
(-0.0487755 -0.00154018 0)
(-0.0483955 -0.00198185 0)
(-0.0479211 -0.00241742 0)
(-0.0473538 -0.00284529 0)
(-0.0466955 -0.00326385 0)
(-0.0459482 -0.0036715 0)
(-0.0451145 -0.00406662 0)
(-0.0441974 -0.00444759 0)
(-0.0431998 -0.00481281 0)
(-0.0421254 -0.00516067 0)
(-0.0409781 -0.00548958 0)
(-0.0397619 -0.00579798 0)
(-0.0384815 -0.00608433 0)
(-0.0371416 -0.00634711 0)
(-0.0357473 -0.00658485 0)
(-0.034304 -0.00679613 0)
(-0.0328175 -0.00697957 0)
(-0.0312938 -0.00713387 0)
(-0.029739 -0.00725779 0)
(-0.0281595 -0.00735018 0)
(-0.0265622 -0.00740998 0)
(-0.0249537 -0.00743626 0)
(-0.0233412 -0.00742817 0)
(-0.0217317 -0.00738502 0)
(-0.0201326 -0.00730626 0)
(-0.0185512 -0.00719152 0)
(-0.0169947 -0.00704062 0)
(-0.0154706 -0.00685359 0)
(-0.013986 -0.0066307 0)
(-0.0125481 -0.00637248 0)
(-0.0111639 -0.00607981 0)
(-0.00984004 -0.0057539 0)
(-0.00858292 -0.00539639 0)
(-0.00739852 -0.00500941 0)
(-0.00629232 -0.00459563 0)
(-0.00526924 -0.00415841 0)
(-0.0043335 -0.00370191 0)
(-0.00348852 -0.00323119 0)
(-0.00273681 -0.00275247 0)
(-0.00207988 -0.00227328 0)
(-0.00151808 -0.00180275 0)
(-0.00105052 -0.00135193 0)
(-0.000675004 -0.000934134 0)
(-0.000387798 -0.000565409 0)
(-0.0001834 -0.00026492 0)
(-5.68803e-05 -5.55098e-05 0)
(-6.33358e-06 3.38497e-05 0)
(-1.06339e-05 1.55312e-05 0)
(-8.40306e-05 0.000210554 0)
(-0.000258204 0.00052992 0)
(-0.000528988 0.000942034 0)
(-0.00089764 0.00142237 0)
(-0.00136742 0.00195026 0)
(-0.00194004 0.00250831 0)
(-0.00261585 0.00308201 0)
(-0.00339413 0.00365935 0)
(-0.00427313 0.00423039 0)
(-0.0052501 0.00478699 0)
(-0.00632144 0.0053225 0)
(-0.00748273 0.00583155 0)
(-0.0087289 0.00630984 0)
(-0.0100543 0.00675398 0)
(-0.0114527 0.00716134 0)
(-0.0129176 0.00752993 0)
(-0.0144422 0.0078583 0)
(-0.0160192 0.00814547 0)
(-0.0176414 0.00839085 0)
(-0.0193014 0.00859416 0)
(-0.0209917 0.00875542 0)
(-0.0227047 0.00887491 0)
(-0.0244329 0.00895306 0)
(-0.0261691 0.00899053 0)
(-0.0279057 0.0089881 0)
(-0.0296356 0.00894667 0)
(-0.0313518 0.00886726 0)
(-0.0330473 0.008751 0)
(-0.0347155 0.00859907 0)
(-0.0363498 0.00841273 0)
(-0.037944 0.00819331 0)
(-0.0394921 0.00794218 0)
(-0.0409882 0.00766076 0)
(-0.0424269 0.00735049 0)
(-0.0438028 0.00701288 0)
(-0.0451111 0.00664945 0)
(-0.0463469 0.00626174 0)
(-0.047506 0.00585133 0)
(-0.0485841 0.00541982 0)
(-0.0495774 0.00496884 0)
(-0.0504826 0.00450003 0)
(-0.0512962 0.00401506 0)
(-0.0520156 0.00351562 0)
(-0.0526381 0.00300342 0)
(-0.0531615 0.0024802 0)
(-0.0535839 0.0019477 0)
(-0.0539038 0.00140772 0)
(-0.0541199 0.000862047 0)
(-0.0542313 0.000312503 0)
(-0.0542375 -0.000239068 0)
(-0.0541384 -0.000790802 0)
(-0.053934 -0.00134081 0)
(-0.0536249 -0.0018872 0)
(-0.0532121 -0.00242805 0)
(-0.0526967 -0.00296141 0)
(-0.0520803 -0.00348535 0)
(-0.051365 -0.0039979 0)
(-0.050553 -0.0044971 0)
(-0.0496472 -0.00498097 0)
(-0.0486504 -0.00544757 0)
(-0.0475663 -0.00589491 0)
(-0.0463985 -0.00632106 0)
(-0.0451513 -0.00672409 0)
(-0.0438291 -0.00710209 0)
(-0.0424368 -0.00745318 0)
(-0.0409796 -0.00777555 0)
(-0.039463 -0.00806739 0)
(-0.0378928 -0.008327 0)
(-0.0362751 -0.00855271 0)
(-0.0346163 -0.00874294 0)
(-0.0329232 -0.00889621 0)
(-0.0312027 -0.00901115 0)
(-0.0294619 -0.00908648 0)
(-0.0277082 -0.00912108 0)
(-0.0259491 -0.00911396 0)
(-0.0241922 -0.00906432 0)
(-0.0224454 -0.00897151 0)
(-0.0207164 -0.00883513 0)
(-0.0190132 -0.00865499 0)
(-0.0173435 -0.00843117 0)
(-0.0157152 -0.00816403 0)
(-0.0141358 -0.00785428 0)
(-0.0126127 -0.00750301 0)
(-0.0111532 -0.00711173 0)
(-0.00976406 -0.00668244 0)
(-0.00845172 -0.00621773 0)
(-0.00722208 -0.00572081 0)
(-0.00608049 -0.00519569 0)
(-0.00503161 -0.00464725 0)
(-0.0040793 -0.00408141 0)
(-0.00322657 -0.00350532 0)
(-0.00247544 -0.00292757 0)
(-0.0018269 -0.00235844 0)
(-0.0012808 -0.00181019 0)
(-0.000835838 -0.00129743 0)
(-0.00048934 -0.000837486 0)
(-0.000237039 -0.0004508 0)
(-7.63204e-05 -0.000161355 0)
(-9.42375e-06 1.0245e-06 0)
(-1.37333e-05 6.23096e-05 0)
(-0.00010384 0.000354106 0)
(-0.000313248 0.000773655 0)
(-0.00063357 0.00128899 0)
(-0.00106362 0.00187484 0)
(-0.00160528 0.00250964 0)
(-0.00225902 0.003175 0)
(-0.00302412 0.0038554 0)
(-0.00389898 0.0045378 0)
(-0.00488106 0.00521132 0)
(-0.005967 0.00586693 0)
(-0.00715258 0.00649718 0)
(-0.00843289 0.00709599 0)
(-0.00980237 0.00765844 0)
(-0.0112549 0.00818061 0)
(-0.0127838 0.00865942 0)
(-0.0143822 0.00909253 0)
(-0.0160427 0.0094782 0)
(-0.0177578 0.00981522 0)
(-0.0195197 0.0101029 0)
(-0.0213206 0.0103408 0)
(-0.0231524 0.0105289 0)
(-0.0250073 0.0106675 0)
(-0.0268773 0.010757 0)
(-0.0287545 0.0107983 0)
(-0.0306312 0.0107922 0)
(-0.0324997 0.0107397 0)
(-0.0343524 0.010642 0)
(-0.0361821 0.0105005 0)
(-0.0379817 0.0103164 0)
(-0.0397442 0.0100914 0)
(-0.0414629 0.00982694 0)
(-0.0431314 0.00952464 0)
(-0.0447436 0.0091862 0)
(-0.0462936 0.00881334 0)
(-0.0477758 0.00840784 0)
(-0.0491847 0.0079715 0)
(-0.0505156 0.00750617 0)
(-0.0517635 0.00701373 0)
(-0.0529242 0.00649609 0)
(-0.0539935 0.00595519 0)
(-0.0549678 0.00539299 0)
(-0.0558436 0.00481149 0)
(-0.0566179 0.00421272 0)
(-0.0572878 0.00359871 0)
(-0.0578512 0.00297154 0)
(-0.0583058 0.00233331 0)
(-0.0586501 0.00168615 0)
(-0.0588828 0.0010322 0)
(-0.0590028 0.000373661 0)
(-0.0590097 -0.000287281 0)
(-0.0589033 -0.000948393 0)
(-0.0586836 -0.00160742 0)
(-0.0583514 -0.0022621 0)
(-0.0579075 -0.00291012 0)
(-0.0573533 -0.00354919 0)
(-0.0566904 -0.00417698 0)
(-0.055921 -0.00479114 0)
(-0.0550477 -0.00538934 0)
(-0.0540732 -0.00596923 0)
(-0.0530008 -0.00652846 0)
(-0.0518343 -0.00706471 0)
(-0.0505776 -0.00757565 0)
(-0.0492352 -0.00805899 0)
(-0.0478119 -0.00851247 0)
(-0.0463129 -0.00893385 0)
(-0.0447436 -0.00932098 0)
(-0.04311 -0.00967172 0)
(-0.0414182 -0.00998405 0)
(-0.0396747 -0.010256 0)
(-0.0378865 -0.0104857 0)
(-0.0360606 -0.0106714 0)
(-0.0342043 -0.0108115 0)
(-0.0323253 -0.0109045 0)