/*--------------------------------*- C++ -*----------------------------------*\
  =========                 |
  \\      /  F ield         | OpenFOAM: The Open Source CFD Toolbox
   \\    /   O peration     | Website:  https://openfoam.org
    \\  /    A nd           | Version:  11
     \\/     M anipulation  |
\*---------------------------------------------------------------------------*/
FoamFile
{
    format      ascii;
    class       volScalarField;
    location    "4.2";
    object      p;
}
// * * * * * * * * * * * * * * * * * * * * * * * * * * * * * * * * * * * * * //

dimensions      [0 2 -2 0 0 0 0];

internalField   nonuniform List<scalar> 
10100
(
-1.04006e-07
5.4198e-05
-0.000207172
-0.000849963
-0.00179417
-0.00296102
-0.0042878
-0.00572037
-0.0072137
-0.00872792
-0.01023
-0.0116926
-0.0130908
-0.0144036
-0.0156138
-0.0167053
-0.0176656
-0.0184864
-0.0191601
-0.0196809
-0.0200446
-0.0202465
-0.020283
-0.0201519
-0.0198532
-0.019388
-0.0187565
-0.0179594
-0.0169985
-0.0158762
-0.0145955
-0.01316
-0.0115747
-0.00984504
-0.00797615
-0.00597337
-0.00384297
-0.00159227
0.0007714
0.00324109
0.00580944
0.00846813
0.0112086
0.0140223
0.0169008
0.0198352
0.0228155
0.0258323
0.0288761
0.0319377
0.0350074
0.0380754
0.0411318
0.0441669
0.0471716
0.0501359
0.0530495
0.0559021
0.0586842
0.0613869
0.0640016
0.0665199
0.0689327
0.0712314
0.0734079
0.0754548
0.0773647
0.0791303
0.0807446
0.0822022
0.0834987
0.0846305
0.0855947
0.0863885
0.0870096
0.0874568
0.0877306
0.0878328
0.0877664
0.0875351
0.0871429
0.0865954
0.0858993
0.0850634
0.0840981
0.0830154
0.0818293
0.0805561
0.0792149
0.0778278
0.0764203
0.0750209
0.0736623
0.0723816
0.0712211
0.0702289
0.0694555
0.0689513
0.0687611
0.0688492
-7.73371e-05
-0.000112017
-0.000409876
-0.00100078
-0.00182432
-0.00282674
-0.00396664
-0.00520327
-0.00649887
-0.00782039
-0.00913851
-0.0104263
-0.0116611
-0.0128239
-0.0138964
-0.0148645
-0.0157168
-0.0164426
-0.0170343
-0.0174858
-0.0177923
-0.0179498
-0.0179542
-0.0178027
-0.0174944
-0.0170294
-0.016408
-0.0156311
-0.0147008
-0.013619
-0.0123877
-0.0110105
-0.00949144
-0.00783559
-0.00604768
-0.00413287
-0.00209763
5.10538e-05
0.0023068
0.00466341
0.00711386
0.00965004
0.0122636
0.0149469
0.0176921
0.0204901
0.0233315
0.0262074
0.029109
0.0320275
0.0349537
0.0378781
0.0407914
0.0436845
0.0465487
0.0493744
0.0521513
0.05487
0.0575217
0.0600982
0.0625911
0.0649922
0.0672931
0.0694858
0.0715629
0.0735175
0.0753427
0.0770311
0.0785764
0.079974
0.0812201
0.0823117
0.0832457
0.0840195
0.0846314
0.0850807
0.0853683
0.0854965
0.0854681
0.0852868
0.0849567
0.0844833
0.083874
0.0831378
0.082285
0.0813272
0.0802774
0.0791511
0.0779668
0.0767455
0.0755108
0.0742885
0.073107
0.0719986
0.0709988
0.0701462
0.0694785
0.0690313
0.0688494
0.0689382
9.07099e-05
-2.93446e-06
-0.000326375
-0.000891464
-0.00164505
-0.00254651
-0.00356644
-0.00467146
-0.00582969
-0.00701464
-0.00819832
-0.00935697
-0.0104701
-0.0115179
-0.0124847
-0.0133571
-0.0141237
-0.0147747
-0.015302
-0.0156984
-0.0159593
-0.0160807
-0.0160586
-0.0158905
-0.0155748
-0.0151104
-0.0144974
-0.0137372
-0.0128315
-0.0117819
-0.0105904
-0.00926034
-0.00779552
-0.00619986
-0.00447775
-0.00263462
-0.000676994
0.00138862
0.00355661
0.00582118
0.00817529
0.0106112
0.0131214
0.0156985
0.0183348
0.0210213
0.0237492
0.0265103
0.0292962
0.0320982
0.0349071
0.0377142
0.0405108
0.0432885
0.0460386
0.0487515
0.0514172
0.0540268
0.0565727
0.0590469
0.0614414
0.063748
0.0659585
0.0680657
0.0700626
0.0719429
0.0736997
0.075326
0.0768159
0.0781654
0.0793713
0.0804307
0.0813407
0.0820986
0.0827029
0.0831537
0.0834523
0.0836009
0.0836025
0.0834602
0.0831783
0.0827624
0.0822204
0.0815613
0.0807952
0.0799327
0.0789861
0.0779701
0.0769022
0.0758024
0.0746922
0.0735946
0.0725347
0.0715405
0.0706431
0.0698754
0.069268
0.0688503
0.0686695
0.0687523
0.000498525
0.000335809
-2.25311e-05
-0.000582262
-0.00129949
-0.0021432
-0.0030875
-0.00410506
-0.00517032
-0.00625703
-0.00734248
-0.0084054
-0.00942567
-0.010386
-0.0112711
-0.012068
-0.012766
-0.0133565
-0.0138313
-0.0141837
-0.0144078
-0.0144993
-0.014455
-0.0142726
-0.0139503
-0.0134865
-0.0128813
-0.0121356
-0.0112506
-0.0102277
-0.00906953
-0.00777902
-0.00635963
-0.00481473
-0.00314847
-0.00136643
0.000525204
0.00252063
0.00461452
0.00680099
0.00907317
0.0114238
0.0138461
0.0163331
0.0188769
0.0214687
0.0241
0.0267636
0.0294516
0.0321549
0.0348643
0.0375717
0.0402692
0.0429492
0.0456029
0.0482204
0.050792
0.0533098
0.0557666
0.0581547
0.0604664
0.0626934
0.0648284
0.0668641
0.068794
0.0706121
0.0723116
0.073886
0.0753298
0.0766395
0.0778124
0.0788454
0.0797353
0.0804799
0.0810779
0.08153
0.0818375
0.0820026
0.0820278
0.0819163
0.0816724
0.0813022
0.0808134
0.0802149
0.079516
0.0787268
0.0778586
0.0769255
0.075944
0.0749325
0.0739107
0.072899
0.0719197
0.0709976
0.0701602
0.0694363
0.0688525
0.0684352
0.0682275
0.0682575
0.0011311
0.000873192
0.000461118
-0.000112221
-0.000819359
-0.00163036
-0.00252526
-0.00348171
-0.00447627
-0.00548779
-0.00649587
-0.00748044
-0.00842387
-0.00931095
-0.0101274
-0.0108605
-0.0115002
-0.012038
-0.0124667
-0.0127799
-0.0129718
-0.0130373
-0.0129736
-0.0127783
-0.0124494
-0.0119859
-0.0113879
-0.0106557
-0.00978988
-0.00879196
-0.0076646
-0.00641065
-0.00503281
-0.00353442
-0.00191989
-0.000194607
0.00163579
0.00356623
0.00559163
0.00770579
0.00990189
0.0121736
0.0145146
0.0169181
0.019376
0.0218798
0.0244219
0.0269956
0.0295928
0.0322044
0.0348217
0.0374371
0.0400433
0.0426328
0.0451971
0.0477264
0.0502114
0.0526448
0.0550196
0.0573287
0.0595639
0.0617177
0.0637831
0.0657533
0.067622
0.069383
0.0710299
0.0725568
0.0739587
0.0752325
0.0763752
0.0773839
0.0782552
0.0789871
0.0795791
0.0800322
0.0803475
0.0805268
0.0805721
0.0804869
0.0802757
0.079945
0.0795023
0.0789556
0.0783135
0.0775853
0.076782
0.0759169
0.0750052
0.0740638
0.07311
0.0721624
0.0712407
0.0703669
0.0695648
0.0688594
0.0682741
0.0678324
0.0675665
0.0674961
0.00196628
0.00159119
0.00110713
0.000499099
-0.000219113
-0.00102191
-0.00189122
-0.0028088
-0.00375524
-0.00471238
-0.00566181
-0.00658543
-0.00746773
-0.00829505
-0.00905484
-0.00973535
-0.0103266
-0.0108205
-0.0112102
-0.0114895
-0.011653
-0.0116965
-0.0116165
-0.0114102
-0.0110758
-0.0106129
-0.0100213
-0.00930096
-0.00845254
-0.00747783
-0.00637911
-0.00515864
-0.0038187
-0.00236276
-0.000795719
0.000877402
0.00265194
0.00452308
0.00648537
0.00853275
0.0106592
0.0128588
0.0151254
0.0174519
0.0198307
0.022254
0.0247147
0.027206
0.0297198
0.0322472
0.0347799
0.0373111
0.039834
0.0423409
0.0448233
0.0472716
0.0496774
0.0520339
0.0543343
0.0565712
0.0587367
0.0608237
0.0628258
0.0647366
0.0665495
0.0682585
0.0698577
0.0713415
0.0727056
0.073947
0.0750625
0.0760487
0.0769026
0.0776225
0.0782087
0.0786621
0.0789838
0.0791748
0.079237
0.0791739
0.0789905
0.0786932
0.078289
0.0777853
0.0771896
0.0765108
0.0757593
0.0749477
0.0740902
0.0732018
0.0722979
0.0713947
0.07051
0.0696629
0.0688742
0.0681651
0.0675562
0.0670683
0.0667184
0.0665137
0.00296978
0.00245861
0.00188541
0.00122654
0.000478452
-0.000336574
-0.00120157
-0.00210083
-0.00301902
-0.00394013
-0.00484809
-0.0057276
-0.00656436
-0.00734568
-0.00806022
-0.00869829
-0.00925068
-0.00970907
-0.0100669
-0.0103181
-0.010458
-0.0104828
-0.0103888
-0.0101733
-0.0098351
-0.00937344
-0.00878781
-0.00807804
-0.00724537
-0.00629187
-0.00521904
-0.00402844
-0.00272274
-0.00130575
0.000218192
0.00184461
0.00356888
0.00538619
0.00729125
0.00927828
0.0113417
0.0134762
0.0156754
0.0179321
0.0202392
0.0225896
0.0249769
0.0273939
0.0298322
0.032283
0.0347391
0.0371945
0.0396423
0.0420747
0.044483
0.0468584
0.049193
0.0514803
0.0537136
0.0558854
0.0579881
0.0600151
0.0619605
0.0638179
0.0655807
0.067243
0.0687993
0.0702449
0.0715755
0.0727879
0.0738786
0.0748442
0.0756819
0.0763908
0.0769714
0.0774246
0.0777508
0.0779509
0.0780268
0.077982
0.0778216
0.0775515
0.0771781
0.0767082
0.0761487
0.0755079
0.0747958
0.074024
0.0732058
0.0723544
0.0714835
0.070607
0.0697402
0.0689003
0.068105
0.0673725
0.0667213
0.0661689
0.0657158
0.0653549
0.0041058
0.00344388
0.00276803
0.00204436
0.00125048
0.000407086
-0.000470542
-0.00136952
-0.00227639
-0.00317732
-0.00405903
-0.00490863
-0.00571315
-0.006461
-0.00714214
-0.00774746
-0.00826904
-0.00869938
-0.00903175
-0.0092606
-0.00938168
-0.00939108
-0.00928528
-0.00906248
-0.00872165
-0.00826142
-0.00768115
-0.00698148
-0.00616359
-0.00522898
-0.00417913
-0.00301548
-0.00174061
-0.000358565
0.00112649
0.00271087
0.00439026
0.00615933
0.0080127
0.00994538
0.0119525
0.0140286
0.0161668
0.0183605
0.0206033
0.0228887
0.0252101
0.02756
0.02993
0.0323121
0.0346999
0.0370874
0.0394677
0.041833
0.0441748
0.0464851
0.0487561
0.0509815
0.0531546
0.055268
0.0573145
0.0592881
0.061183
0.0629926
0.0647105
0.0663311
0.0678495
0.0692613
0.0705623
0.0717486
0.0728168
0.0737634
0.0745864
0.0752852
0.0758604
0.0763126
0.0766418
0.0768487
0.0769353
0.0769052
0.0767631
0.0765143
0.0761645
0.07572
0.0751874
0.0745744
0.0738905
0.0731464
0.0723541
0.0715257
0.0706727
0.0698071
0.0689421
0.0680924
0.0672739
0.066502
0.065793
0.0651619
0.0645919
0.0640618
0.00533873
0.00451817
0.00372969
0.00292757
0.00207642
0.00119129
0.000286574
-0.000626329
-0.00153627
-0.00243131
-0.00330024
-0.00413201
-0.00491572
-0.00564101
-0.00629891
-0.00688093
-0.00737964
-0.0077884
-0.00810104
-0.00831271
-0.00841907
-0.00841622
-0.00830146
-0.00807319
-0.00773037
-0.00727175
-0.0066967
-0.00600628
-0.00520202
-0.00428462
-0.00325496
-0.00211511
-0.000868217
0.000482344
0.0019332
0.00348056
0.00511965
0.00684527
0.0086527
0.0105374
0.0124944
0.014518
0.0166016
0.0187391
0.0209249
0.0231526
0.0254151
0.0277049
0.0300139
0.032335
0.0346621
0.0369893
0.0393095
0.0416147
0.0438975
0.04615
0.0483648
0.0505353
0.0526547
0.0547161
0.0567129
0.0586392
0.0604894
0.0622566
0.0639347
0.0655184
0.0670036
0.0683858
0.0696605
0.0708236
0.0718715
0.072801
0.0736107
0.0743002
0.0748702
0.0753207
0.0756516
0.0758633
0.0759579
0.0759387
0.0758103
0.0755772
0.0752446
0.074818
0.0743038
0.0737096
0.0730439
0.072317
0.0715392
0.070721
0.0698724
0.0690037
0.0681263
0.0672532
0.066398
0.0655737
0.0647947
0.0640739
0.063378
0.0626719
0.00663793
0.00565379
0.00474455
0.00385657
0.00293674
0.00199862
0.00105545
0.000116987
-0.000807851
-0.00170946
-0.00257767
-0.0034028
-0.00417578
-0.00488804
-0.00553139
-0.00609828
-0.00658146
-0.00697487
-0.0072733
-0.00747231
-0.00756747
-0.00755525
-0.00743407
-0.00720239
-0.00685825
-0.00640098
-0.00583131
-0.00514997
-0.00435753
-0.00345486
-0.00244337
-0.00132517
-0.000102955
0.00122022
0.00264109
0.00415568
0.0057591
0.00744645
0.00921355
0.011056
0.0129688
0.0149458
0.016981
0.0190692
0.0212051
0.023382
0.0255924
0.0278289
0.0300841
0.0323515
0.0346255
0.0368996
0.0391666
0.0414191
0.04365
0.0458519
0.0480173
0.0501395
0.0522118
0.0542277
0.056181
0.058066
0.0598769
0.0616069
0.0632501
0.064802
0.0662584
0.0676148
0.0688664
0.0700088
0.0710387
0.0719532
0.0727511
0.0734324
0.0739973
0.0744457
0.0747771
0.0749916
0.0750913
0.0750795
0.0749603
0.0747379
0.0744166
0.0740014
0.0734984
0.0729148
0.0722588
0.0715394
0.0707656
0.0699464
0.0690901
0.0682061
0.0673044
0.0663965
0.0654938
0.0646067
0.0637481
0.0629296
0.062102
0.0612173
0.00797553
0.00682575
0.0057927
0.00481159
0.00381446
0.00281445
0.00182356
0.000849315
-0.000100934
-0.00101912
-0.00189668
-0.00272533
-0.00349716
-0.00420507
-0.00484181
-0.00540028
-0.00587426
-0.0062585
-0.00654795
-0.00673784
-0.00682498
-0.00680694
-0.00668148
-0.006447
-0.00610247
-0.00564763
-0.00508309
-0.0044096
-0.00362762
-0.00273801
-0.00174248
-0.000643249
0.000557423
0.00185692
0.00325185
0.0047379
0.00631019
0.00796435
0.0096966
0.0115024
0.0133764
0.0153127
0.017306
0.0193516
0.0214443
0.0235769
0.0257417
0.0279318
0.0301405
0.0323617
0.0345894
0.0368173
0.039038
0.0412448
0.043431
0.0455892
0.0477119
0.049792
0.0518236
0.0538004
0.0557163
0.0575657
0.0593426
0.0610406
0.0626539
0.0641785
0.0656104
0.0669447
0.0681762
0.0693007
0.0703149
0.0712165
0.0720044
0.0726785
0.0732387
0.0736846
0.0740152
0.0742306
0.0743327
0.0743251
0.0742113
0.0739949
0.0736796
0.07327
0.0727719
0.072192
0.0715379
0.0708172
0.0700379
0.0692074
0.0683331
0.0674235
0.0664876
0.0655355
0.0645764
0.0636183
0.0626729
0.0617509
0.0607883
0.059725
0.00932782
0.0080134
0.00685438
0.00577497
0.00469486
0.00362599
0.00257903
0.00156007
0.000575574
-0.000367874
-0.00126352
-0.00210442
-0.00288383
-0.00359502
-0.00423197
-0.00478864
-0.00525937
-0.0056393
-0.00592395
-0.00610891
-0.00619139
-0.00616979
-0.00604194
-0.00580599
-0.00546174
-0.00500975
-0.00445033
-0.0037837
-0.00301061
-0.00213246
-0.00115105
-6.81528e-05
0.00111441
0.00239394
0.00376661
0.005228
0.00677371
0.00839986
0.0101026
0.0118768
0.0137172
0.0156187
0.0175765
0.0195863
0.0216421
0.0237365
0.0258622
0.0280128
0.0301823
0.0323643
0.0345526
0.0367407
0.038922
0.0410899
0.0432383
0.0453596
0.0474459
0.0494905
0.0514877
0.0534314
0.0553158
0.0571352
0.0588836
0.0605545
0.0621429
0.0636447
0.0650561
0.0663718
0.0675865
0.0686957
0.0696966
0.0705874
0.0713671
0.0720354
0.0725915
0.0730343
0.0733629
0.0735773
0.0736797
0.0736735
0.0735617
0.0733472
0.0730332
0.072624
0.0721253
0.0715431
0.0708838
0.0701541
0.0693605
0.0685097
0.0676088
0.0666651
0.0656871
0.0646831
0.0636602
0.0626244
0.0615868
0.0605574
0.0594585
0.0582184
0.0106764
0.00919802
0.00791128
0.00673147
0.00556352
0.00441956
0.00331002
0.00223934
0.00121288
0.000236225
-0.000685201
-0.0015457
-0.00233979
-0.00306136
-0.00370472
-0.00426517
-0.00473809
-0.0051184
-0.00540164
-0.00558504
-0.00566651
-0.00564363
-0.0055144
-0.00527825
-0.00493558
-0.00448673
-0.00393166
-0.00327083
-0.00250558
-0.0016376
-0.000668257
0.000401243
0.00156903
0.00283189
0.00418569
0.0056264
0.00715023
0.00875332
0.0104313
0.0121789
0.0139911
0.0158637
0.0177924
0.0197723
0.0217973
0.0238597
0.0259528
0.0280709
0.030208
0.0323574
0.0345127
0.0366677
0.0388162
0.0409522
0.0430695
0.0451602
0.0472165
0.0492318
0.0512007
0.0531176
0.0549764
0.0567713
0.0584962
0.0601452
0.0617133
0.063197
0.064592
0.0658927
0.0670935
0.0681901
0.0691804
0.0700629
0.0708365
0.0715001
0.0720524
0.0724919
0.0728175
0.0730297
0.0731308
0.0731237
0.0730108
0.0727945
0.0724777
0.0720646
0.0715602
0.0709701
0.0702995
0.0695537
0.0687384
0.06786
0.0669252
0.0659408
0.064914
0.0638515
0.0627586
0.0616399
0.0605061
0.059367
0.0581317
0.0567179
0.0120048
0.0103629
0.00894907
0.0076664
0.00640674
0.00518269
0.00400512
0.00287691
0.00180198
0.000785404
-0.000168588
-0.00105554
-0.00186999
-0.0026074
-0.00326326
-0.00383308
-0.00431216
-0.00469634
-0.00498232
-0.00516774
-0.00525031
-0.00522768
-0.00509879
-0.00486401
-0.00452371
-0.00407773
-0.00352628
-0.0028706
-0.00211239
-0.00125297
-0.00029317
0.000765856
0.00192173
0.00317083
0.00450927
0.00593356
0.00744007
0.00902459
0.0106823
0.0124081
0.0141976
0.0160473
0.0179528
0.0199087
0.0219084
0.023945
0.0260121
0.0281044
0.0302157
0.0323388
0.0344675
0.0365959
0.0387183
0.0408292
0.0429219
0.0449883
0.0470206
0.0490127
0.0509597
0.0528559
0.0546948
0.0564705
0.0581771
0.0598092
0.0613623
0.0628325
0.0642151
0.0655042
0.0666941
0.0677812
0.0687638
0.0696406
0.0704101
0.0710702
0.0716191
0.0720551
0.0723775
0.072587
0.0726856
0.0726757
0.0725591
0.0723377
0.0720145
0.0715935
0.0710792
0.0704761
0.0697884
0.0690206
0.0681776
0.0672657
0.0662912
0.0652603
0.064179
0.0630524
0.0618844
0.0606786
0.0594457
0.0581957
0.0568251
0.0552413
0.0132977
0.0114947
0.00995282
0.00856597
0.00721225
0.00590395
0.00465352
0.00346294
0.00233418
0.00127144
0.000279197
-0.000639142
-0.0014796
-0.00223828
-0.00291131
-0.0034945
-0.00398368
-0.00437561
-0.00466787
-0.00485791
-0.00494322
-0.00492253
-0.00479588
-0.00456364
-0.00422572
-0.00378217
-0.00323407
-0.00258314
-0.00183082
-0.000977848
-2.49475e-05
0.00102619
0.00217267
0.00341098
0.00473781
0.00615
0.00764352
0.00921355
0.0108552
0.0125641
0.0143366
0.0161693
0.0180571
0.0199943
0.0219744
0.0239913
0.0260391
0.0281123
0.0302038
0.0323067
0.0344148
0.0365232
0.0386265
0.0407188
0.042793
0.0448411
0.0468556
0.0488309
0.0507623
0.0526437
0.0544682
0.0562299
0.0579235
0.0595442
0.0610874
0.0625487
0.0639228
0.0652036
0.066386
0.067467
0.068445
0.0693188
0.0700857
0.0707434
0.0712895
0.0717226
0.0720421
0.0722489
0.0723442
0.0723298
0.0722071
0.0719779
0.0716452
0.0712128
0.0706847
0.0700644
0.0693549
0.06856
0.0676845
0.0667341
0.0657149
0.0646324
0.0634914
0.0622959
0.0610489
0.0597529
0.058419
0.0570575
0.055553
0.053803
0.0145427
0.0125799
0.0109092
0.00941663
0.00796714
0.00657238
0.00524492
0.00398698
0.00280019
0.00168713
0.000651535
-0.000303081
-0.00117429
-0.00195871
-0.00265278
-0.00325276
-0.0037557
-0.00415906
-0.0044602
-0.00465653
-0.00474643
-0.00472973
-0.00460671
-0.00437728
-0.00404145
-0.00360022
-0.00305538
-0.00240846
-0.00166029
-0.000811384
0.000137012
0.0011825
0.00232211
0.00355295
0.00487219
0.00627638
0.00776073
0.00932013
0.0109503
0.0126476
0.0144087
0.0162296
0.0181048
0.0200283
0.0219948
0.0239984
0.0260333
0.0280932
0.0301709
0.0322593
0.0343535
0.0364487
0.0385394
0.0406192
0.0426808
0.0447167
0.0467198
0.0486848
0.0506067
0.0524788
0.0542942
0.0560473
0.0577336
0.0593485
0.0608868
0.0623436
0.0637131
0.0649893
0.0661678
0.0672461
0.0682228
0.0690957
0.0698617
0.0705179
0.0710623
0.0714936
0.0718113
0.0720154
0.0721067
0.0720864
0.0719556
0.0717163
0.0713715
0.0709249
0.0703797
0.0697383
0.069003
0.0681769
0.0672645
0.0662714
0.065203
0.0640643
0.0628591
0.0615907
0.0602613
0.0588728
0.0574367
0.0559637
0.0543269
0.0524142
0.0157276
0.0136055
0.0118063
0.0102066
0.00865945
0.00717578
0.00576868
0.00444006
0.00319114
0.00202409
0.000941487
-5.3876e-05
-0.000959799
-0.00177347
-0.00249177
-0.00311206
-0.00363213
-0.00404944
-0.00436115
-0.00456542
-0.00466196
-0.00465091
-0.00453198
-0.00430513
-0.0039714
-0.00353268
-0.00299069
-0.0023463
-0.00160004
-0.000752995
0.000192801
0.00123477
0.00237052
0.00359771
0.00491328
0.00631298
0.00779161
0.00934444
0.010968
0.0126591
0.014414
0.0162279
0.0180952
0.0200108
0.0219696
0.0239662
0.0259939
0.0280461
0.0301156
0.032196
0.0342829
0.0363715
0.0384558
0.0405288
0.0425839
0.0446139
0.0466121
0.048573
0.050491
0.0523592
0.054171
0.0559214
0.0576062
0.0592207
0.060759
0.0622155
0.0635843
0.0648599
0.0660384
0.0671177
0.0680958
0.06897
0.0697367
0.070393
0.0709372
0.0713681
0.0716848
0.0718866
0.0719734
0.071946
0.0718055
0.0715543
0.0711955
0.0707321
0.0701668
0.0695012
0.0687366
0.0678757
0.0669228
0.065883
0.0647614
0.0635622
0.062289
0.0609443
0.0595298
0.058047
0.0565079
0.0549237
0.0531559
0.0510836
0.0168385
0.0145608
0.0126332
0.0109246
0.00927821
0.00770399
0.00621483
0.00481271
0.00349866
0.00227431
0.00114144
0.000101858
-0.000841768
-0.00168748
-0.00243314
-0.00307694
-0.00361659
-0.00404935
-0.00437314
-0.0045874
-0.00469226
-0.00468737
-0.00457232
-0.0043481
-0.00401689
-0.0035806
-0.00304018
-0.00239618
-0.00164977
-0.000802961
0.000142006
0.00118315
0.00231865
0.00354595
0.00486118
0.00625952
0.00773608
0.00928698
0.0109092
0.0125992
0.0143523
0.0161636
0.0180282
0.0199415
0.0218989
0.0238941
0.0259201
0.0279699
0.0300371
0.0321161
0.0342023
0.0362905
0.038374
0.0404463
0.042501
0.0445315
0.0465312
0.048494
0.0504137
0.0522835
0.0540974
0.055851
0.0575402
0.0591595
0.0607024
0.0621628
0.0635351
0.0648145
0.0659973
0.067081
0.0680634
0.068941
0.0697103
0.0703686
0.0709144
0.0713465
0.0716633
0.071863
0.0719449
0.0719095
0.0717583
0.071494
0.0711195
0.0706375
0.0700497
0.0693569
0.0685599
0.067661
0.0666642
0.0655742
0.0643958
0.0631328
0.0617881
0.0603642
0.0588622
0.0572835
0.0556408
0.0539456
0.0520481
0.0498189
0.0178649
0.0154332
0.0133788
0.011561
0.00981328
0.00814686
0.00657396
0.0050962
0.00371455
0.00242992
0.0012438
0.000157848
-0.000825971
-0.00170646
-0.00248242
-0.00315182
-0.00371226
-0.00416182
-0.00449967
-0.00472566
-0.00483935
-0.00484027
-0.00472918
-0.00450823
-0.00417966
-0.00374464
-0.00320378
-0.00255829
-0.00181035
-0.000962231
-1.56536e-05
0.00102801
0.00216682
0.00339741
0.00471518
0.00611551
0.00759429
0.00914823
0.010774
0.0124671
0.0142227
0.0160363
0.0179037
0.0198206
0.021782
0.023781
0.0258103
0.0278636
0.0299349
0.0320188
0.0341103
0.0362038
0.0382924
0.0403699
0.0424307
0.0444683
0.0464756
0.0484458
0.0503726
0.0522497
0.0540718
0.0558347
0.0575339
0.059163
0.060715
0.0621839
0.0635645
0.0648523
0.0660436
0.0671355
0.0681249
0.0690084
0.0697827
0.0704454
0.070995
0.0714299
0.0717475
0.0719454
0.0720223
0.0719787
0.0718165
0.0715385
0.0711473
0.070645
0.0700325
0.0693099
0.0684776
0.0675377
0.066494
0.0653509
0.0641128
0.062783
0.0613641
0.0598581
0.0582664
0.0565904
0.0548435
0.0530373
0.0510113
0.0486274
0.0187976
0.0162124
0.014032
0.0121054
0.0102552
0.00849486
0.00683702
0.00528195
0.0038303
0.00248325
0.00124194
0.000107771
-0.000918741
-0.00183659
-0.00264454
-0.00334055
-0.00392297
-0.00439116
-0.00474469
-0.00498284
-0.00510504
-0.0051119
-0.00500546
-0.00478804
-0.00446109
-0.00402544
-0.0034824
-0.00283424
-0.00208347
-0.00123185
-0.000280466
0.000769172
0.00191427
0.00315073
0.00447409
0.00588045
0.00736623
0.00892788
0.0105613
0.0122616
0.0140242
0.0158453
0.0177211
0.0196471
0.0216175
0.0236252
0.0256632
0.0277259
0.0298076
0.0319025
0.0340051
0.0361093
0.0382087
0.0402979
0.0423713
0.0444222
0.0464426
0.0484258
0.0503655
0.0522562
0.0540927
0.0558708
0.0575851
0.0592289
0.0607948
0.062277
0.0636709
0.064972
0.0661763
0.06728
0.0682797
0.0691721
0.0699542
0.0706239
0.0711796
0.0716189
0.0719383
0.0721349
0.0722072
0.0721559
0.0719831
0.0716912
0.0712826
0.0707585
0.0701192
0.0693643
0.0684943
0.0675109
0.0664179
0.0652195
0.0639193
0.0625201
0.0610243
0.0594339
0.0577505
0.0559758
0.0541238
0.0522066
0.0500528
0.0475157
0.0196285
0.0168898
0.014583
0.0125476
0.0105951
0.00873958
0.00699513
0.00536117
0.00383804
0.00242718
0.00112919
-5.55155e-05
-0.00112666
-0.00208325
-0.00292397
-0.00364769
-0.00425386
-0.00474212
-0.00511164
-0.00536161
-0.00549246
-0.00550606
-0.00540466
-0.00518984
-0.00486266
-0.00442472
-0.00387848
-0.00322658
-0.002471
-0.00161285
-0.000653342
0.000405106
0.00155891
0.00280405
0.00413676
0.00555366
0.00705099
0.00862444
0.0102694
0.0119811
0.0137556
0.0155897
0.0174793
0.0194192
0.0214033
0.0234247
0.0254772
0.0275554
0.0296534
0.0317649
0.0338839
0.0360045
0.038121
0.0402282
0.0423204
0.0443903
0.0464296
0.0484314
0.0503902
0.0523007
0.0541578
0.0559567
0.0576913
0.0593546
0.0609393
0.0624401
0.0638526
0.0651721
0.0663937
0.0675131
0.0685268
0.0694316
0.0702248
0.0709045
0.0714686
0.0719139
0.0722363
0.0724326
0.0725014
0.0724435
0.0722608
0.0719554
0.0715288
0.0709815
0.0703135
0.0695243
0.0686144
0.0675858
0.0664418
0.0651861
0.0638216
0.0623507
0.0607756
0.0590987
0.057322
0.0554473
0.0534894
0.0514606
0.0491791
0.0464896
0.0203506
0.0174576
0.0150236
0.0128793
0.0108242
0.00887248
0.00703984
0.00532593
0.00373059
0.00225447
0.000897984
-0.000338998
-0.00145569
-0.00245161
-0.00332617
-0.00407918
-0.00471039
-0.005219
-0.00560413
-0.00586602
-0.00600633
-0.00602714
-0.0059299
-0.00571586
-0.00538689
-0.00494577
-0.00439541
-0.00373791
-0.00297459
-0.00210672
-0.00113641
-6.68946e-05
0.00109824
0.0023556
0.00370197
0.00513381
0.00664664
0.00823558
0.0098961
0.011624
0.0134158
0.0152681
0.0171763
0.0191346
0.0211372
0.0231778
0.0252507
0.0273503
0.0294702
0.0316035
0.0337442
0.0358872
0.0380271
0.0401585
0.0422755
0.04437
0.0464338
0.0484603
0.0504445
0.0523812
0.0542649
0.0560899
0.0578499
0.0595376
0.0611465
0.0626715
0.064108
0.0654508
0.0666943
0.0678337
0.0688655
0.0697867
0.0705947
0.0712874
0.0718622
0.0723154
0.0726425
0.0728401
0.072907
0.0728439
0.0726525
0.0723339
0.0718888
0.0713171
0.0706189
0.0697939
0.0688429
0.0677679
0.0665716
0.0652568
0.063826
0.0622812
0.0606246
0.0588595
0.0569881
0.0550121
0.0529472
0.0508061
0.0483962
0.0455543
0.0209562
0.0179086
0.0153466
0.0130923
0.0109336
0.00888518
0.00696364
0.00516888
0.00350009
0.00195734
0.000540973
-0.000748885
-0.00191182
-0.002948
-0.00385781
-0.00464124
-0.00529765
-0.00582625
-0.00622715
-0.00650175
-0.00665195
-0.00667908
-0.00658426
-0.00636951
-0.00603795
-0.00559286
-0.00503662
-0.00437068
-0.00359652
-0.00271633
-0.00173308
-0.000650047
0.000529762
0.0018035
0.0031678
0.00461843
0.00615034
0.00775868
0.0094394
0.0111887
0.013003
0.0148783
0.0168095
0.018791
0.0208174
0.0228832
0.0249823
0.0271088
0.0292557
0.031416
0.0335843
0.0357559
0.0379253
0.040087
0.0422343
0.044359
0.0464533
0.0485109
0.050527
0.0524962
0.0544121
0.0562685
0.0580589
0.0597766
0.0614153
0.0629702
0.0644361
0.0658072
0.0670772
0.0682412
0.0692956
0.0702375
0.0710643
0.0717734
0.0723615
0.0728248
0.0731587
0.0733599
0.0734271
0.0733607
0.0731615
0.07283
0.072366
0.0717693
0.07104
0.0701785
0.0691858
0.0680634
0.0668136
0.0654382
0.0639391
0.0623183
0.0605788
0.0587241
0.0567565
0.054678
0.0525046
0.0502498
0.0477106
0.0447154
0.0214371
0.0182353
0.0155444
0.0131787
0.0109157
0.00877012
0.00675906
0.0048823
0.00313861
0.0015283
5.1515e-05
-0.00129162
-0.00250186
-0.00357975
-0.00452575
-0.00533962
-0.00602087
-0.00656968
-0.00698716
-0.00727487
-0.00743408
-0.00746584
-0.00737201
-0.00715586
-0.00682102
-0.00637027
-0.00580541
-0.00512804
-0.00434054
-0.00344598
-0.00244745
-0.0013477
-0.000149215
0.00114505
0.00253105
0.00400398
0.00555875
0.007191
0.00889705
0.0106729
0.0125145
0.0144173
0.0163763
0.0183862
0.0204423
0.022539
0.02467
0.0268286
0.0290077
0.0312007
0.0334028
0.0356092
0.0378144
0.040012
0.0421952
0.0443561
0.0464871
0.0485824
0.0506368
0.0526443
0.054598
0.0564912
0.0583177
0.0600711
0.0617456
0.0633361
0.0648368
0.0662411
0.0675425
0.0687359
0.0698178
0.0707852
0.071635
0.072364
0.0729686
0.0734448
0.0737882
0.0739955
0.0740654
0.0739974
0.0737916
0.0734476
0.0729647
0.072343
0.0715827
0.0706847
0.0696498
0.0684793
0.0671746
0.0657369
0.0641679
0.0624698
0.0606461
0.0587005
0.0566354
0.0544527
0.0521691
0.0497988
0.0471287
0.0439789
0.0217854
0.0184297
0.0156095
0.0131314
0.0107634
0.00851984
0.00641816
0.00445816
0.00263887
0.000960474
-0.000577228
-0.00197484
-0.00323353
-0.00435392
-0.00533618
-0.00618025
-0.00688657
-0.00745628
-0.00789067
-0.00819071
-0.00835734
-0.00839238
-0.00829892
-0.00808076
-0.00774108
-0.00728206
-0.00670564
-0.00601438
-0.00521159
-0.00430047
-0.00328359
-0.00216322
-0.000941993
0.0003765
0.00178764
0.00328656
0.00486861
0.00652981
0.00826636
0.0100737
0.0119472
0.0138823
0.0158742
0.0179184
0.0200101
0.0221434
0.0243116
0.0265076
0.0287246
0.0309565
0.0331987
0.0354463
0.037693
0.0399322
0.0421572
0.0443604
0.0465348
0.0486743
0.0507733
0.0528249
0.0548219
0.0567576
0.0586261
0.0604215
0.0621378
0.0637694
0.0653101
0.0667527
0.0680906
0.0693186
0.0704331
0.0714307
0.0723078
0.0730607
0.0736854
0.0741778
0.0745338
0.0747502
0.0748251
0.0747575
0.0745464
0.0741907
0.0736897
0.0730436
0.072253
0.0713187
0.0702414
0.0690219
0.0676608
0.0661594
0.0645192
0.0627429
0.0608339
0.0587962
0.0566321
0.0543432
0.0519473
0.0494596
0.0466565
0.0433502
0.0219944
0.0184844
0.0155348
0.0129437
0.0104692
0.00812633
0.00593306
0.00388911
0.00199372
0.000246462
-0.00135323
-0.00280658
-0.00411435
-0.0052772
-0.00629556
-0.00717014
-0.00790221
-0.00849305
-0.0089435
-0.00925435
-0.00942718
-0.00946492
-0.00937128
-0.00914963
-0.00880258
-0.00833244
-0.0077421
-0.00703505
-0.00621482
-0.00528415
-0.00424512
-0.00310017
-0.00185256
-0.000506487
0.000933386
0.00246261
0.00407692
0.00577223
0.00754415
0.00938758
0.0112977
0.0132702
0.015301
0.0173855
0.0195186
0.021694
0.0239047
0.0261438
0.0284048
0.0306821
0.0329709
0.0352656
0.0375597
0.0398465
0.0421194
0.0443716
0.0465959
0.048786
0.0509355
0.0530371
0.0550831
0.0570675
0.0589845
0.0608281
0.0625922
0.0642704
0.0658561
0.0673421
0.0687218
0.0699898
0.0711422
0.072175
0.0730839
0.0738647
0.0745133
0.0750256
0.0753977
0.0756261
0.0757086
0.0756434
0.0754286
0.0750628
0.0745452
0.0738759
0.073056
0.0720859
0.0709659
0.0696963
0.0682778
0.0667114
0.0649992
0.0631438
0.0611486
0.0590174
0.0567524
0.0543554
0.051845
0.0492375
0.046299
0.0428333
0.0220586
0.018393
0.015313
0.0126078
0.0100254
0.00758194
0.00529627
0.00316787
0.00119537
-0.000621954
-0.00228485
-0.0037944
-0.0051513
-0.00635656
-0.00741133
-0.00831702
-0.00907498
-0.00968612
-0.0101512
-0.0104716
-0.0106501
-0.0106901
-0.0105948
-0.0103672
-0.01001
-0.00952641
-0.00892033
-0.00819542
-0.0073548
-0.0064008
-0.0053357
-0.00416259
-0.00288533
-0.0015082
-3.54153e-05
0.00152895
0.00318058
0.00491483
0.0067267
0.00861088
0.0105628
0.0125786
0.0146542
0.0167848
0.0189649
0.0211878
0.0234467
0.025735
0.0280467
0.030376
0.0327176
0.0350655
0.0374129
0.0397534
0.042081
0.0443888
0.0466696
0.0489165
0.0511225
0.0532799
0.0553814
0.0574209
0.059393
0.0612912
0.0631089
0.0648392
0.0664752
0.0680099
0.0694367
0.0707503
0.071946
0.0730189
0.0739642
0.0747772
0.0754539
0.0759901
0.0763818
0.0766256
0.0767184
0.0766578
0.0764416
0.0760678
0.0755355
0.0748448
0.0739965
0.0729909
0.0718279
0.0705077
0.0690311
0.0673992
0.0656141
0.0636786
0.0615959
0.0593696
0.057002
0.0544947
0.0518673
0.0491375
0.0460607
0.0424324
0.0219724
0.0181486
0.0149363
0.0121157
0.00942431
0.00687943
0.00450029
0.00228621
0.000235288
-0.00165309
-0.00337979
-0.00494555
-0.00635169
-0.00759972
-0.00869137
-0.0096282
-0.0104112
-0.0110413
-0.0115198
-0.0118492
-0.0120328
-0.0120735
-0.0119742
-0.0117379
-0.0113682
-0.0108695
-0.0102456
-0.00949999
-0.00863529
-0.00765409
-0.00655939
-0.00535492
-0.00404463
-0.00263236
-0.00112197
0.000482448
0.00217608
0.00395373
0.00581012
0.00774012
0.00973948
0.0118045
0.0139308
0.0161131
0.0183456
0.0206217
0.0229349
0.0252791
0.0276481
0.0300358
0.0324365
0.0348436
0.0372506
0.0396516
0.0420406
0.0444109
0.0467546
0.0490644
0.0513329
0.0535526
0.0557162
0.0578179
0.0598517
0.0618108
0.0636878
0.0654758
0.0671678
0.0687569
0.0702367
0.0716014
0.0728457
0.0739638
0.0749504
0.0758003
0.0765094
0.0770737
0.0774892
0.0777518
0.077858
0.0778048
0.0775896
0.0772103
0.0766656
0.0759553
0.0750798
0.0740393
0.0728335
0.0714626
0.0699275
0.0682296
0.066371
0.0643541