/*--------------------------------*- C++ -*----------------------------------*\
  =========                 |
  \\      /  F ield         | OpenFOAM: The Open Source CFD Toolbox
   \\    /   O peration     | Website:  https://openfoam.org
    \\  /    A nd           | Version:  11
     \\/     M anipulation  |
\*---------------------------------------------------------------------------*/
FoamFile
{
    format      ascii;
    class       surfaceScalarField;
    location    "4.2";
    object      phi;
}
// * * * * * * * * * * * * * * * * * * * * * * * * * * * * * * * * * * * * * //

dimensions      [0 3 -1 0 0 0 0];

internalField   nonuniform List<scalar> 
19980
(
6.48727e-07
-6.48416e-07
2.40588e-06
-1.7572e-06
4.52414e-06
-2.1182e-06
6.24897e-06
-1.7248e-06
7.18981e-06
-9.40865e-07
7.1821e-06
7.63433e-09
6.16995e-06
1.01231e-06
4.15211e-06
2.01765e-06
1.15506e-06
2.99718e-06
-2.77493e-06
3.92987e-06
-7.58463e-06
4.80993e-06
-1.32146e-05
5.62999e-06
-1.9602e-05
6.38735e-06
-2.66819e-05
7.07991e-06
-3.43878e-05
7.70577e-06
-4.26543e-05
8.26639e-06
-5.14163e-05
8.762e-06
-6.06104e-05
9.19404e-06
-7.01757e-05
9.56531e-06
-8.00536e-05
9.87795e-06
-9.01859e-05
1.01323e-05
-0.000100517
1.03311e-05
-0.000110993
1.04757e-05
-0.00012156
1.05674e-05
-0.000132169
1.0609e-05
-0.000142772
1.06032e-05
-0.000153323
1.05509e-05
-0.000163776
1.0453e-05
-0.000174087
1.03113e-05
-0.000184215
1.0128e-05
-0.00019412
9.90517e-06
-0.000203764
9.64376e-06
-0.000213109
9.34529e-06
-0.000222121
9.01218e-06
-0.000230768
8.64607e-06
-0.000239016
8.24801e-06
-0.000246835
7.81957e-06
-0.000254198
7.36343e-06
-0.000261081
6.88212e-06
-0.000267458
6.37711e-06
-0.000273307
5.84957e-06
-0.000278609
5.30148e-06
-0.000283344
4.73545e-06
-0.000287498
4.15349e-06
-0.000291055
3.55703e-06
-0.000294003
2.94803e-06
-0.000296331
2.32851e-06
-0.000298031
1.70025e-06
-0.000299097
1.06536e-06
-0.000299523
4.26211e-07
-0.000299308
-2.15233e-07
-0.000298451
-8.57126e-07
-0.000296953
-1.49738e-06
-0.000294819
-2.13402e-06
-0.000292054
-2.76519e-06
-0.000288665
-3.38861e-06
-0.000284664
-4.00181e-06
-0.000280061
-4.60268e-06
-0.000274872
-5.18927e-06
-0.000269112
-5.7595e-06
-0.000262801
-6.31125e-06
-0.000255959
-6.84221e-06
-0.000248609
-7.34955e-06
-0.000240778
-7.83044e-06
-0.000232496
-8.28268e-06
-0.000223791
-8.70444e-06
-0.000214698
-9.09357e-06
-0.000205251
-9.44728e-06
-0.000195488
-9.76265e-06
-0.000185451
-1.00372e-05
-0.000175182
-1.02691e-05
-0.000164725
-1.04566e-05
-0.000154127
-1.05982e-05
-0.000143434
-1.06922e-05
-0.000132698
-1.07368e-05
-0.000121968
-1.07295e-05
-0.000111299
-1.06688e-05
-0.000100746
-1.05533e-05
-9.0364e-05
-1.03822e-05
-8.02096e-05
-1.01544e-05
-7.03407e-05
-9.86888e-06
-6.0816e-05
-9.5247e-06
-5.16949e-05
-9.1211e-06
-4.30372e-05
-8.6576e-06
-3.49032e-05
-8.134e-06
-2.73529e-05
-7.55039e-06
-2.04455e-05
-6.90743e-06
-1.42388e-05
-6.20661e-06
-8.78826e-06
-5.45053e-06
-4.14521e-06
-4.6431e-06
-3.551e-07
-3.79014e-06
2.54533e-06
-2.90039e-06
4.53229e-06
-1.98691e-06
5.60174e-06
-1.06944e-06
5.78077e-06
-1.79043e-07
5.14622e-06
6.34553e-07
3.85368e-06
1.29253e-06
2.18672e-06
1.667e-06
6.47349e-07
1.53958e-06
6.47553e-07
1.21675e-06
-1.86524e-06
3.71962e-06
-4.25995e-06
6.46018e-06
-4.85892e-06
8.28572e-06
-3.55022e-06
8.40923e-06
-1.06448e-06
6.37884e-06
2.0382e-06
1.96125e-06
5.42981e-06
-4.93239e-06
8.91148e-06
-1.42983e-05
1.2363e-05
-2.6077e-05
1.57085e-05
-4.0166e-05
1.88989e-05
-5.64381e-05
2.1902e-05
-7.47489e-05
2.46983e-05
-9.49411e-05
2.72723e-05
-0.000116853
2.96175e-05
-0.000140317
3.17311e-05
-0.000165166
3.36104e-05
-0.000191231
3.52595e-05
-0.000218348
3.66822e-05
-0.000246351
3.78814e-05
-0.000275081
3.88624e-05
-0.000304382
3.96318e-05
-0.0003341
4.01937e-05
-0.000364087
4.05545e-05
-0.000394201
4.07222e-05
-0.000424301
4.07032e-05
-0.000454253
4.05032e-05
-0.000483928
4.01283e-05
-0.000513203
3.95855e-05
-0.000541956
3.88813e-05
-0.000570073
3.80226e-05
-0.000597445
3.7016e-05
-0.000623968
3.58682e-05
-0.000649542
3.45862e-05
-0.000674073
3.31766e-05
-0.000697471
3.16458e-05
-0.000719652
3.0001e-05
-0.000740539
2.82501e-05
-0.000760058
2.64008e-05
-0.000778141
2.44598e-05
-0.000794725
2.24341e-05
-0.000809755
2.03309e-05
-0.000823177
1.81576e-05
-0.000834945
1.59223e-05
-0.000845021
1.36321e-05
-0.000853366
1.12939e-05
-0.000859953
8.91498e-06
-0.000864755
6.50292e-06
-0.000867756
4.06563e-06
-0.000868941
1.61103e-06
-0.000868303
-8.53078e-07
-0.000865841
-3.31896e-06
-0.000861559
-5.77888e-06
-0.000855468
-8.22507e-06
-0.000847584
-1.06495e-05
-0.000837929
-1.30439e-05
-0.000826531
-1.53994e-05
-0.000813426
-1.77078e-05
-0.000798654
-1.99612e-05
-0.000782262
-2.21515e-05
-0.000764303
-2.42698e-05
-0.000744839
-2.63066e-05
-0.000723936
-2.82525e-05
-0.000701669
-3.0098e-05
-0.000678117
-3.18346e-05
-0.000653367
-3.34537e-05
-0.000627514
-3.49465e-05
-0.000600658
-3.63037e-05
-0.000572905
-3.7516e-05
-0.000544368
-3.85742e-05
-0.000515166
-3.94702e-05
-0.000485426
-4.01969e-05
-0.000455277
-4.07473e-05
-0.000424855
-4.11147e-05
-0.0003943
-4.12917e-05
-0.000363758
-4.12714e-05
-0.000333379
-4.10477e-05
-0.000303317
-4.06152e-05
-0.000273729
-3.99697e-05
-0.000244777
-3.91072e-05
-0.000216621
-3.80243e-05
-0.000189427
-3.67186e-05
-0.00016336
-3.51886e-05
-0.000138584
-3.34339e-05
-0.000115262
-3.14555e-05
-9.35563e-05
-2.92562e-05
-7.36222e-05
-2.68415e-05
-5.56084e-05
-2.42204e-05
-3.96526e-05
-2.14063e-05
-2.58774e-05
-1.84183e-05
-1.43839e-05
-1.52836e-05
-5.24382e-06
-1.20405e-05
1.5126e-06
-8.74339e-06
5.91366e-06
-5.4705e-06
8.06996e-06
-2.33524e-06
8.20787e-06
4.96664e-07
6.71552e-06
2.78472e-06
4.19868e-06
4.18347e-06
1.53821e-06
4.1995e-06
2.18591e-06
1.02892e-06
-2.89411e-06
2.84277e-06
-6.07388e-06
4.33065e-06
-6.34684e-06
4.28273e-06
-3.50227e-06
1.77881e-06
1.43939e-06
-3.78779e-06
7.60456e-06
-1.27741e-05
1.44162e-05
-2.53568e-05
2.14942e-05
-4.15799e-05
2.8586e-05
-6.13934e-05
3.55222e-05
-8.46808e-05
4.21863e-05
-0.000111279
4.85007e-05
-0.000140993
5.44115e-05
-0.000173602
5.98818e-05
-0.000208872
6.48876e-05
-0.000246557
6.94154e-05
-0.000286406
7.34596e-05
-0.000328164
7.70179e-05
-0.000371577
8.00952e-05
-0.000416392
8.26959e-05
-0.000462358
8.48282e-05
-0.000509228
8.65019e-05
-0.000556761
8.77274e-05
-0.000604723
8.85168e-05
-0.000652885
8.8884e-05
-0.000701024
8.88421e-05
-0.000748925
8.84048e-05
-0.000796382
8.75854e-05
-0.000843195
8.63983e-05
-0.000889173
8.48585e-05
-0.000934131
8.29806e-05
-0.000977894
8.07794e-05
-0.0010203
7.82697e-05
-0.00106118
7.54671e-05
-0.00110039
7.23864e-05
-0.00113778
6.90425e-05
-0.00117323
6.54509e-05
-0.00120661
6.16279e-05
-0.0012378
5.75898e-05
-0.00126669
5.33519e-05
-0.00129319
4.89292e-05
-0.00131719
4.43378e-05
-0.00133863
3.95945e-05
-0.00135742
3.47149e-05
-0.00137351
2.97148e-05
-0.00138682
2.46102e-05
-0.00139732
1.94175e-05
-0.00140497
1.41529e-05
-0.00140974
8.83281e-06
-0.00141161
3.47442e-06
-0.00141055
-1.90506e-06
-0.00140658
-7.28859e-06
-0.0013997
-1.26593e-05
-0.00138993
-1.79999e-05
-0.00137729
-2.32927e-05
-0.00136181
-2.85192e-05
-0.00134355
-3.36615e-05
-0.00132255
-3.87011e-05
-0.0012989
-4.36198e-05
-0.00127265
-4.8399e-05
-0.0012439
-5.30198e-05
-0.00121274
-5.74625e-05
-0.00117929
-6.17069e-05
-0.00114365
-6.57332e-05
-0.00110597
-6.95221e-05
-0.00106636
-7.30547e-05
-0.001025
-7.63118e-05
-0.000982029
-7.92738e-05
-0.000937624
-8.19211e-05
-0.000891963
-8.42352e-05
-0.000845235
-8.61982e-05
-0.000797638
-8.77935e-05
-0.00074938
-8.90052e-05
-0.000700677
-8.9818e-05
-0.000651752
-9.02167e-05
-0.000602836
-9.01871e-05
-0.000554167
-8.97163e-05
-0.000505989
-8.87932e-05
-0.000458551
-8.74081e-05
-0.000412105
-8.5553e-05
-0.000366907
-8.32216e-05
-0.000323216
-8.04098e-05
-0.000281289
-7.7116e-05
-0.000241381
-7.33416e-05
-0.000203745
-6.90916e-05
-0.000168625
-6.4376e-05
-0.000136256
-5.92104e-05
-0.000106858
-5.36184e-05
-8.06314e-05
-4.76333e-05
-5.77478e-05
-4.13018e-05
-3.83437e-05
-3.46877e-05
-2.2506e-05
-2.78781e-05
-1.02569e-05
-2.09926e-05
-1.53165e-06
-1.41958e-05
3.84834e-06
-7.71525e-06
6.21135e-06
-1.86625e-06
6.0791e-06
2.91729e-06
4.21435e-06
6.04841e-06
1.67578e-06
6.73776e-06
3.86174e-06
6.16741e-07
-3.51082e-06
1.16894e-06
-6.62596e-06
5.441e-07
-5.72197e-06
-2.41109e-06
-5.4717e-07
-8.61294e-06
7.64141e-06
-1.87095e-05
1.77013e-05
-3.31133e-05
2.88198e-05
-5.20469e-05
4.04279e-05
-7.55841e-05
5.21231e-05
-0.000103688
6.36267e-05
-0.000136237
7.47352e-05
-0.000173044
8.53072e-05
-0.000213875
9.52428e-05
-0.000258464
0.00010447
-0.000306518
0.000112942
-0.00035773
0.000120628
-0.000411779
0.000127508
-0.000468338
0.000133577
-0.000527076
0.000138833
-0.000587662
0.000143282
-0.000649768
0.000146934
-0.000713068
0.000149802
-0.000777244
0.000151903
-0.000841982
0.000153255
-0.000906977
0.000153879
-0.000971932
0.000153797
-0.00103656
0.000153032
-0.00110058
0.000151607
-0.00116373
0.000149546
-0.00122575
0.000146876
-0.00128638
0.000143619
-0.00134541
0.000139803
-0.00140259
0.000135454
-0.00145772
0.000130598
-0.0015106
0.000125261
-0.00156103
0.000119469
-0.00160883
0.00011325
-0.00165383
0.000106631
-0.00169588
9.96391e-05
-0.00173483
9.23007e-05
-0.00177054
8.46437e-05
-0.0018029
7.66956e-05
-0.00183179
6.84836e-05
-0.00185711
6.00353e-05
-0.00187877
5.1379e-05
-0.0018967
4.25421e-05
-0.00191084
3.35526e-05
-0.00192113
2.4439e-05
-0.00192752
1.52301e-05
-0.00193
5.95481e-06
-0.00192855
-3.35742e-06
-0.00192316
-1.26769e-05
-0.00191385
-2.19735e-05
-0.00190063
-3.12173e-05
-0.00188355
-4.03776e-05
-0.00186264
-4.94233e-05
-0.00183798
-5.83226e-05
-0.00180964
-6.70436e-05
-0.0017777
-7.55543e-05
-0.00174228
-8.38224e-05
-0.00170349
-9.18151e-05
-0.00166145
-9.94987e-05
-0.00161632
-0.000106839
-0.00156825
-0.000113803
-0.00151741
-0.000120356
-0.001464
-0.000126467
-0.00140821
-0.000132101
-0.00135026
-0.000137226
-0.00129037
-0.000141809
-0.00122879
-0.000145818
-0.00116576
-0.000149223
-0.00110156
-0.000151995
-0.00103646
-0.000154106
-0.000970751
-0.000155529
-0.000904728
-0.000156239
-0.000838702
-0.000156213
-0.000772989
-0.000155429
-0.000707914
-0.000153869
-0.000643806
-0.000151516
-0.000581001
-0.000148358
-0.000519838
-0.000144385
-0.000460654
-0.000139593
-0.000403789
-0.000133982
-0.000349575
-0.000127556
-0.000298339
-0.000120328
-0.000250396
-0.000112319
-0.000206045
-0.000103561
-0.000165564
-9.40997e-05
-0.0001292
-8.39971e-05
-9.71641e-05
-7.33378e-05
-6.96166e-05
-6.22352e-05
-4.66544e-05
-5.08403e-05
-2.82928e-05
-3.93542e-05
-1.44434e-05
-2.80452e-05
-4.88716e-06
-1.72716e-05
7.57751e-07
-7.51129e-06
3.07429e-06
6.00773e-07
2.88812e-06
6.23472e-06
1.32655e-06
8.2993e-06
5.18828e-06
5.45224e-08
-3.5654e-06
-1.03946e-06
-5.53211e-06
-4.33277e-06
-2.42863e-06
-1.08664e-05
5.98653e-06
-2.14874e-05
1.82623e-05
-3.68154e-05
3.30292e-05
-5.72621e-05
4.92668e-05
-8.30591e-05
6.62248e-05
-0.000114292
8.33563e-05
-0.000150922
0.000100256
-0.000192818
0.000116631
-0.000239774
0.000132263
-0.000291526
0.000146995
-0.00034777
0.000160714
-0.000408167
0.000173339
-0.000472356
0.000184817
-0.000539958
0.000195111
-0.000610586
0.000204204
-0.000683842
0.00021209
-0.00075933
0.00021877
-0.000836652
0.000224255
-0.000915413
0.000228563
-0.000995226
0.000231716
-0.00107571
0.000233737
-0.00115649
0.000234657
-0.0012372
0.000234507
-0.00131748
0.000233319
-0.00139701
0.00023113
-0.00147544
0.000227975
-0.00155245
0.000223891
-0.00162775
0.000218917
-0.00170104
0.000213092
-0.00177204
0.000206454
-0.00184048
0.000199044
-0.00190612
0.000190902
-0.00196872
0.000182069
-0.00202806
0.000172584
-0.00208392
0.00016249
-0.00213611
0.000151828
-0.00218444
0.000140639
-0.00222877
0.000128964
-0.00226892
0.000116846
-0.00230476
0.000104326
-0.00233617
9.14456e-05
-0.00236304
7.82479e-05
-0.00238527
6.47753e-05
-0.00240279
5.1071e-05
-0.00241553
3.71783e-05
-0.00242344
2.31404e-05
-0.00242648
9.00148e-06
-0.00242465
-5.19302e-06
-0.00241793
-1.93978e-05
-0.00240633
-3.35674e-05
-0.0023899
-4.76559e-05
-0.00236866
-6.16161e-05
-0.00234268
-7.54005e-05
-0.00231204
-8.8961e-05
-0.00227684
-0.000102249
-0.00223717
-0.000115215
-0.00219319
-0.000127811
-0.00214502
-0.000139985
-0.00209283
-0.000151688
-0.0020368
-0.000162868
-0.00197712
-0.000173475
-0.00191402
-0.000183457
-0.00184773
-0.000192765
-0.00177848
-0.000201349
-0.00170655
-0.000209159
-0.00163221
-0.000216145
-0.00155577
-0.000222262
-0.00147753
-0.000227462
-0.00139782
-0.000231702
-0.00131698
-0.00023494
-0.00123538
-0.000237136
-0.00115336
-0.000238252
-0.00107132
-0.000238254
-0.000989643
-0.00023711
-0.000908718
-0.000234793
-0.000828952
-0.000231282
-0.000750752
-0.000226557
-0.00067453
-0.000220608
-0.000600695
-0.000213428
-0.000529655
-0.000205022
-0.00046181
-0.0001954
-0.00039755
-0.000184587
-0.00033725
-0.000172619
-0.000281262
-0.000159549
-0.000229911
-0.00014545
-0.000183485
-0.000130423
-0.000142226
-0.000114598
-0.000106314
-9.81473e-05
-7.58574e-05
-8.12965e-05
-5.08733e-05
-6.43382e-05
-3.12654e-05
-4.76531e-05
-1.68011e-05
-3.17359e-05
-7.08383e-06
-1.72287e-05
-1.52174e-06
-4.96144e-06
7.07264e-07
4.0058e-06
7.06273e-07
8.30035e-06
5.89456e-06
-6.31444e-07
-2.93398e-06
-3.65288e-06
-2.51061e-06
-1.00018e-05
3.92002e-06
-2.05768e-05
1.65617e-05
-3.61181e-05
3.38034e-05
-5.71774e-05
5.40883e-05
-8.4128e-05
7.62177e-05
-0.000117183
9.92792e-05
-0.000156408
0.000122581
-0.000201756
0.000145605
-0.00025308
0.000167955
-0.000310151
0.000189335
-0.000372682
0.000209525
-0.00044033
0.000228362
-0.000512717
0.000245727
-0.000589438
0.000261537
-0.000670065
0.000275737
-0.000754154
0.000288294
-0.000841255
0.00029919
-0.000930911
0.000308426
-0.00102267
0.00031601
-0.00111606
0.00032196
-0.00121065
0.000326305
-0.00130599
0.000329075
-0.00140164
0.000330309
-0.00149718
0.000330049
-0.0015922
0.000328338
-0.0016863
0.000325224
-0.00177908
0.000320758
-0.00187018
0.00031499
-0.00195923
0.000307973
-0.0020459
0.000299761
-0.00212986
0.00029041
-0.00221079
0.000279974
-0.0022884
0.00026851
-0.0023624
0.000256075
-0.00243254
0.000242726
-0.00249857
0.00022852
-0.00256026
0.000213515
-0.00261739
0.00019777
-0.00266977
0.000181342
-0.00271721
0.000164291
-0.00275956
0.000146675
-0.00279667
0.000128553
-0.00282841
0.000109986
-0.00285467
9.10321e-05
-0.00287535
7.1753e-05
-0.00289038
5.2209e-05
-0.0028997
3.2462e-05
-0.00290327
1.25742e-05
-0.00290107
-7.39105e-06
-0.0028931
-2.73702e-05
-0.00287937
-4.7299e-05
-0.00285991
-6.71124e-05
-0.00283479
-8.67442e-05
-0.00280406
-0.000106128
-0.00276782
-0.000125195
-0.0027262
-0.000143878
-0.0026793
-0.000162108
-0.0026273
-0.000179815
-0.00257035
-0.00019693
-0.00250866
-0.00021338
-0.00244243
-0.000229096
-0.0023719
-0.000244006
-0.00229732
-0.00025804
-0.00221896
-0.000271128
-0.00213711
-0.000283199
-0.00205208
-0.000294185
-0.0019642
-0.000304019
-0.00187383
-0.000312634
-0.00178133
-0.000319967
-0.00168707
-0.000325956
-0.00159147
-0.000330545
-0.00149493
-0.000333676
-0.00139788
-0.000335299
-0.00130077
-0.000335367
-0.00120404
-0.000333838
-0.00110816
-0.000330676
-0.00101359
-0.000325851
-0.000920808
-0.00031934
-0.000830285
-0.000311131
-0.000742494
-0.000301219
-0.000657905
-0.000289611
-0.000576975
-0.00027633
-0.000500151
-0.000261412
-0.000427856
-0.000244913
-0.000360492
-0.000226913
-0.000298423
-0.000207519
-0.000241972
-0.000186874
-0.000191409
-0.000165161
-0.000146938
-0.000142619
-0.000108682
-0.000119552
-7.66698e-05
-9.63508e-05
-5.08132e-05
-7.35098e-05
-3.08901e-05
-5.1659e-05
-1.6521e-05
-3.15976e-05
-7.14527e-06
-1.43372e-05
-1.99558e-06
-1.14382e-06
-6.22412e-08
6.36703e-06
5.83236e-06
-1.39875e-06
-1.535e-06
-6.53482e-06
2.62525e-06
-1.61972e-05
1.35825e-05
-3.11238e-05
3.14882e-05
-5.19274e-05
5.46072e-05
-7.90674e-05
8.12284e-05
-0.000112852
0.000110002
-0.000153448
0.000139875
-0.000200893
0.000170027
-0.000255112
0.000199823
-0.000315932
0.000228775
-0.000383101
0.000256504
-0.000456299
0.000282723
-0.000535154
0.000307218
-0.000619253
0.000329826
-0.000708147
0.000350432
-0.000801364
0.000368955
-0.000898416
0.000385345
-0.000998801
0.000399575
-0.00110201
0.000411636
-0.00120754
0.000421534
-0.00131487
0.000429291
-0.0014235
0.000434935
-0.00153293
0.000438508
-0.00164267
0.000440053
-0.00175225
0.000439625
-0.00186119
0.000437281
-0.00196905
0.00043308
-0.00207538
0.000427087
-0.00217976
0.000419369
-0.00228178
0.000409995
-0.00238106
0.000399037
-0.00247721
0.000386565
-0.00256989
0.000372654
-0.00265876
0.000357377
-0.00274349
0.000340811
-0.0028238
0.00032303
-0.00289939
0.00030411
-0.00297
0.000284129
-0.0030354
0.000263164
-0.00309534
0.000241291
-0.00314964
0.00021859
-0.0031981
0.000195137
-0.00324056
0.000171013
-0.00327687
0.000146296
-0.00330691
0.000121066
-0.00333056
9.54043e-05
-0.00334774
6.93914e-05
-0.00335839
4.31092e-05
-0.00336246
1.66409e-05
-0.00335992
-9.92948e-06
-0.00335077
-3.6517e-05
-0.00333503
-6.30362e-05
-0.00331275
-8.94007e-05
-0.00328397
-0.000115522
-0.00324878
-0.000141312
-0.0032073
-0.00016668
-0.00315964
-0.000191536
-0.00310596
-0.000215788
-0.00304643
-0.000239344
-0.00298125
-0.000262111
-0.00291063
-0.000283995
-0.00283483
-0.000304902
-0.0027541
-0.000324739
-0.00266872
-0.000343413
-0.00257902
-0.00036083
-0.00248532
-0.000376899
-0.00238798
-0.000391528
-0.00228737
-0.000404631
-0.00218388
-0.000416119
-0.00207794
-0.00042591
-0.00196997
-0.000433924
-0.00186043
-0.000440083
-0.00174979
-0.000444317
-0.00163853
-0.000446559
-0.00152715
-0.000446748
-0.00141616
-0.000444831
-0.00130607
-0.000440762
-0.00119742
-0.000434504
-0.00109073
-0.000426031
-0.000986532
-0.000415327
-0.000885358
-0.000402392
-0.000787729
-0.00038724
-0.000694155
-0.000369904
-0.00060513
-0.000350437
-0.000521124
-0.000328919
-0.00044258
-0.000305458
-0.000369899
-0.0002802
-0.000303439
-0.000253334
-0.000243498
-0.000225102
-0.000190305
-0.000195812
-0.000144007
-0.000165851
-0.000104653
-0.000135705
-7.21807e-05
-0.000105982
-4.63982e-05
-7.74414e-05
-2.69686e-05
-5.10272e-05
-1.33931e-05
-2.79127e-05
-4.99615e-06
-9.54069e-06
-9.05821e-07
2.27672e-06
4.92659e-06
-2.21106e-06
6.75918e-07
-9.572e-06
9.98632e-06
-2.27061e-05
2.67166e-05
-4.21818e-05
5.09641e-05
-6.84714e-05
8.08968e-05
-0.000101924
0.000114681
-0.000142769
0.000150847
-0.000191109
0.000188216
-0.000246937
0.000225854
-0.000310137
0.000263023
-0.000380504
0.000299141
-0.000457753
0.000333753
-0.000541535
0.000366505
-0.000631443
0.000397126
-0.000727028
0.000425411
-0.000827805
0.000451208
-0.000933261
0.000474411
-0.00104286
0.000494949
-0.00115607
0.00051278
-0.00127232
0.000527888
-0.00139106
0.000540276
-0.00151174
0.000549964
-0.00163379
0.000556985
-0.00175666
0.000561385
-0.00187983
0.00056322
-0.00200276
0.000562553
-0.00212493
0.000559453
-0.00224585
0.000553996
-0.00236502
0.000546261
-0.00248198
0.000536332
-0.00259628
0.000524295
-0.00270749
0.00051024
-0.00281518
0.000494257
-0.00291897
0.000476441
-0.00301847
0.000456883
-0.00311334
0.00043568
-0.00320324
0.000412929
-0.00328785
0.000388725
-0.00336689
0.000363167
-0.00344008
0.000336352
-0.00350717
0.000308381
-0.00356793
0.000279351
-0.00362216
0.000249364
-0.00366966
0.000218518
-0.00371028
0.000186917
-0.00374388
0.000154663
-0.00377033
0.000121857
-0.00378955
8.86043e-05
-0.00380145
5.50088e-05
-0.00380598
2.11772e-05
-0.00380313
-1.27834e-05
-0.00379288
-4.67648e-05
-0.00377526
-8.06577e-05
-0.00375031
-0.000114351
-0.0037181
-0.000147733
-0.00367872
-0.00018069
-0.00363229
-0.000213107
-0.00357896
-0.000244869
-0.00351889
-0.000275859
-0.00345228
-0.000305959
-0.00337934
-0.000335052
-0.00330031
-0.000363017
-0.00321548
-0.000389736
-0.00312513
-0.000415091
-0.00302958
-0.000438962
-0.00292917
-0.000461233
-0.00282429
-0.000481786
-0.00271531
-0.000500507
-0.00260266
-0.000517284
-0.00248677
-0.000532009
-0.0023681
-0.000544577
-0.00224714
-0.000554886
-0.00212438
-0.00056284
-0.00200035
-0.00056835
-0.00187557
-0.000571333
-0.00175061
-0.000571714
-0.00162601
-0.000569427
-0.00150236
-0.000564418
-0.00138022
-0.000556641
-0.00126018
-0.000546067
-0.00114283
-0.00053268
-0.00102874
-0.000516482
-0.000918482
-0.000497498
-0.000812615
-0.000475771
-0.000711676
-0.000451376
-0.000616178
-0.000424416
-0.000526602
-0.000395034
-0.000443387
-0.000363415
-0.000366923
-0.000329798
-0.00029754
-0.000294485
-0.000235496
-0.000257855
-0.00018097
-0.000220377
-0.000134043
-0.000182631
-9.46918e-05
-0.000145334
-6.27714e-05
-0.000109362
-3.80074e-05
-7.57912e-05
-1.99857e-05
-4.59343e-05
-8.14685e-06
-2.13795e-05
-1.78024e-06
-4.08984e-06
3.14635e-06
-3.03807e-06
3.71412e-06
-1.268e-05
1.96281e-05
-2.93706e-05
4.34069e-05
-5.35077e-05
7.51012e-05
-8.54138e-05
0.000112803
-0.000125326
0.000154593
-0.000173376
0.000198896
-0.000229595
0.000244434
-0.000293913
0.000290172
-0.000366168
0.000335279
-0.000446114
0.000379087
-0.000533428
0.000421067
-0.000627724
0.000460801
-0.000728561
0.000497963
-0.000835453
0.000532303
-0.000947879
0.000563633
-0.00106529
0.00059182
-0.00118711
0.000616768
-0.00131275
0.000638424
-0.00144162
0.000656759
-0.00157312
0.000671772
-0.00170664
0.000683483
-0.00184158
0.000691928
-0.00197735
0.00069716
-0.00211338
0.000699241
-0.00224907
0.000698247
-0.00238388
0.00069426
-0.00251725
0.000687371
-0.00264867
0.000677675
-0.00277761
0.000665274
-0.00290359
0.000650274
-0.00302613
0.000632782
-0.00314478
0.00061291
-0.00325911
0.000590772
-0.00336871
0.000566484
-0.0034732
0.000540162
-0.00357219
0.000511926
-0.00366536
0.000481893
-0.00375238
0.000450187
-0.00383296
0.000416927
-0.00390681
0.000382235
-0.00397369
0.000346234
-0.00403338
0.000309049
-0.00408567
0.000270804
-0.00413037
0.000231624
-0.00416734
0.000191636
-0.00419645
0.000150967
-0.00421759
0.000109745
-0.00423069
6.81011e-05
-0.00423568
2.61662e-05
-0.00423253
-1.5927e-05
-0.00422125
-5.80446e-05
-0.00420186
-0.000100051
-0.0041744
-0.000141809
-0.00413895
-0.00018318
-0.00409562
-0.000224023
-0.00404453
-0.000264198
-0.00398584
-0.00030356
-0.00391973
-0.000341966
-0.00384642
-0.000379271
-0.00376614
-0.000415328
-0.00367917
-0.000449992
-0.00358579
-0.000483114
-0.00348633
-0.00051455
-0.00338114
-0.000544153
-0.00327059
-0.000571779
-0.0031551
-0.000597284
-0.00303507
-0.000620529
-0.00291098
-0.000641377
-0.0027833
-0.000659694
-0.00265252
-0.000675351
-0.00251918
-0.000688226
-0.00238382
-0.000698201
-0.002247
-0.000705169
-0.00210931
-0.000709028
-0.00197133
-0.000709689
-0.00183368
-0.000707074
-0.00169698
-0.000701116
-0.00156186
-0.000691765
-0.00142894
-0.000678987
-0.00129885
-0.000662767
-0.00117222
-0.000643112
-0.00104967
-0.000620054
-0.000931784
-0.000593653
-0.000819156
-0.000564004
-0.000712335
-0.000531237
-0.000611839
-0.000495529
-0.000518145
-0.000457109
-0.000431677
-0.000416266
-0.000352801
-0.000373362
-0.000281811
-0.000328845
-0.000218922
-0.000283265
-0.000164261
-0.000237293
-0.000117851
-0.000191743
-7.96108e-05
-0.000147602
-4.93432e-05
-0.000106059
-2.67338e-05
-6.85437e-05
-1.13526e-05
-3.67607e-05
-2.65931e-06
-1.2783e-05
4.87006e-07
-3.86678e-06
7.58076e-06
-1.57994e-05
3.15608e-05
-3.60761e-05
6.36836e-05
-6.49221e-05
0.000103947
-0.000102513
0.000150394
-0.000148962
0.000201042
-0.000204299
0.000254234
-0.000268474
0.000308609
-0.000341349
0.000363047
-0.000422704
0.000416634
-0.000512244
0.000468627
-0.000609602
0.000518425
-0.000714352
0.000565552
-0.000826017
0.000609627
-0.000944072
0.000650358
-0.00106796
0.000687519
-0.00119709
0.000720948
-0.00133085
0.000750531
-0.00146862
0.000776193
-0.00160976
0.000797899
-0.00175363
0.000815641
-0.00189958
0.000829438
-0.00204698
0.000839328
-0.00219519
0.00084537
-0.00234359
0.000847637
-0.00249155
0.000846213
-0.00263849
0.000841196
-0.00278381
0.000832692
-0.00292695
0.000820813
-0.00306736
0.00080568
-0.0032045
0.000787417
-0.00333787
0.000766154
-0.00346698
0.000742024
-0.00359138
0.000715163
-0.0037106
0.00068571
-0.00382424
0.000653804
-0.00393191
0.000619589
-0.00403322
0.000583208
-0.00412784
0.000544806
-0.00421544
0.00050453
-0.00429573
0.000462526
-0.00436844
0.000418943
-0.00443332
0.000373931
-0.00449016
0.000327639
-0.00453875
0.00028022
-0.00457894
0.000231825
-0.00461059
0.000182609
-0.00463357
0.000132728
-0.0046478
8.23376e-05
-0.00465324
3.15975e-05
-0.00464983
-1.93325e-05
-0.00463758
-7.02905e-05
-0.00461652
-0.000121113
-0.0045867
-0.000171634
-0.00454819
-0.000221686
-0.00450112
-0.000271099
-0.00444561
-0.000319704
-0.00438184
-0.000367328
-0.00431001
-0.000413797
-0.00423035
-0.000458935
-0.00414311
-0.000502568
-0.00404858
-0.000544518
-0.00394709
-0.000584611
-0.00383897
-0.000622669
-0.0037246
-0.000658518
-0.0036044
-0.000691983
-0.00347879
-0.000722895
-0.00334823
-0.000751085
-0.00321322
-0.000776389
-0.00307426
-0.000798648
-0.00293191
-0.000817707
-0.00278671
-0.000833421
-0.00263926
-0.00084565
-0.00249017
-0.000854265
-0.00234005
-0.000859149
-0.00218954
-0.000860196
-0.0020393
-0.000857312
-0.00189
-0.000850424
-0.00174229
-0.000839471
-0.00159686
-0.000824418
-0.00145437
-0.00080525
-0.00131551
-0.000781979
-0.00118091
-0.000754648
-0.00105123
-0.000723333
-0.00092709
-0.000688148
-0.000809074
-0.000649253
-0.000697742
-0.000606861
-0.000593609
-0.000561242
-0.000497137
-0.000512737
-0.000408731
-0.000461768
-0.000328727
-0.000408849
-0.000257385
-0.000354607
-0.000194882
-0.000299796
-0.000141302
-0.000245323
-9.66361e-05
-0.000192268
-6.07743e-05
-0.00014192
-3.35116e-05
-9.58065e-05
-1.45532e-05
-5.57191e-05
-3.52788e-06
-2.38084e-05
-3.04086e-06
-4.68256e-06
1.22635e-05
-1.88939e-05
4.57721e-05
-4.27486e-05
8.75383e-05
-7.6306e-05
0.000137505
-0.000119597
0.000193686
-0.000172609
0.000254053
-0.000235268
0.000316894
-0.000307436
0.000380776
-0.000388898
0.000444509
-0.000479372
0.000507108
-0.000578505
0.00056776
-0.000685885
0.000625805
-0.000801039
0.000680706
-0.000923447
0.000732036
-0.00105255
0.000779458
-0.00118774
0.000822715
-0.00132841
0.000861613
-0.00147389
0.000896016
-0.00162354
0.000925836
-0.00177666
0.000951025
-0.00193259
0.000971571
-0.00209064
0.000987488
-0.00225013
0.000998822
-0.0024104
0.00100563
-0.00257077
0.00100801
-0.00273059
0.00100604
-0.00288923
0.000999835
-0.00304606
0.000989525
-0.00320048
0.000975236
-0.00335191
0.000957108
-0.00349978
0.000935286
-0.00364355
0.000909923
-0.0037827
0.000881173
-0.00391673
0.000849196
-0.00404518
0.000814155
-0.00416759
0.000776216
-0.00428355
0.000735546
-0.00439265
0.000692314
-0.00449454
0.000646693
-0.00458886
0.000598854
-0.00467531
0.000548972
-0.00475359
0.000497222
-0.00482344
0.00044378
-0.00488463
0.000388826
-0.00493694
0.000332537
-0.00498021
0.000275095
-0.00501429
0.000216682
-0.00503904
0.000157482
-0.00505438
9.76811e-05
-0.00506025
3.74672e-05
-0.00505662
-2.29702e-05
-0.00504347
-8.34396e-05
-0.00502083
-0.000143747
-0.00498877
-0.000203696
-0.00494737
-0.000263089
-0.00489674
-0.000321726
-0.00483704
-0.000379405
-0.00476844
-0.000435922
-0.00469117
-0.000491072
-0.00460546
-0.000544648
-0.00451158
-0.000596442
-0.00440985
-0.000646247
-0.00430061
-0.000693855
-0.00418422
-0.000739058
-0.00406109
-0.000781651
-0.00393164
-0.000821428
-0.00379635
-0.000858189
-0.0036557
-0.000891737
-0.00351021
-0.000921878
-0.00336043
-0.000948425
-0.00320694
-0.000971199
-0.00305033
-0.000990028
-0.00289123
-0.00100475
-0.00273028
-0.00101521
-0.00256815
-0.00102128
-0.0024055
-0.00102284
-0.00224305
-0.00101977
-0.00208148
-0.00101199
-0.00192152
-0.000999432
-0.00176388
-0.000982061
-0.00160927
-0.000959861
-0.0014584
-0.000932849
-0.00131197
-0.000901079
-0.00117066
-0.000864643
-0.00103513
-0.000823677
-0.000906016
-0.000778369
-0.000783909
-0.000728968
-0.000669365
-0.000675786
-0.00056289
-0.000619213
-0.000464929
-0.000559728
-0.000375867
-0.000497912
-0.000296015
-0.000434459
-0.000225608
-0.000370204
-0.000164799
-0.000306132
-0.000113656
-0.000243411
-7.21669e-05
-0.00018341
-4.02385e-05
-0.000127735
-1.77118e-05
-7.82458e-05
-4.37742e-06
-3.71428e-05
-7.41826e-06
-5.48234e-06
1.77458e-05
-2.19413e-05
6.2231e-05
-4.9339e-05
0.000114936
-8.75792e-05
0.000175745
-0.00013655
0.000242657
-0.000196117
0.000313619
-0.000266098
0.000386875
-0.000346262
0.00046094
-0.000436315
0.000534563
-0.000535907
0.000606699
-0.000644624
0.000676477
-0.000761997
0.000743178
-0.000887509
0.000806217
-0.00102059
0.000865121
-0.00116065
0.000919512
-0.00130703
0.0009691
-0.00145908
0.00101366
-0.00161612
0.00105305
-0.00177743
0.00108715
-0.00194232
0.00111591
-0.00211005
0.00113931
-0.00227992
0.00115736
-0.00245121
0.00117011
-0.00262321
0.00117763
-0.00279522
0.00118002
-0.00296656
0.00117737
-0.00313655
0.00116982
-0.00330453
0.00115751
-0.00346987
0.00114057
-0.00363195
0.00111919
-0.00379017
0.00109351
-0.00394397
0.00106372
-0.00409279
0.00102999
-0.00423611
0.000992516
-0.00437343
0.000951476
-0.00450428
0.000907066
-0.00462821
0.000859479
-0.00474481
0.000808913
-0.00485368
0.000755566
-0.00495447
0.000699638
-0.00504683
0.000641332
-0.00513046
0.000580853
-0.00520508
0.000518405
-0.00527045
0.000454197
-0.00532635
0.000388435
-0.00537259
0.000321332
-0.00540901
0.000253099
-0.00543548
0.000183951
-0.0054519
0.000114104
-0.00545821
4.37774e-05
-0.00545437
-2.6809e-05
-0.00544038
-9.74316e-05
-0.00541626
-0.000167865
-0.00538208
-0.00023788
-0.00533792
-0.000307247
-0.00528392
-0.000375733
-0.00522022
-0.000443103
-0.00514702
-0.000509121
-0.00506454
-0.000573547
-0.00497305
-0.000636141
-0.00487283
-0.000696663
-0.0047642
-0.000754871
-0.00464753
-0.000810524
-0.00452321
-0.000863381
-0.00439166
-0.000913203
-0.00425334
-0.000959753
-0.00410873
-0.0010028
-0.00395835
-0.00104211
-0.00380276
-0.00107747
-0.00364254
-0.00110865
-0.00347828
-0.00113545
-0.00331063
-0.00115768
-0.00314024
-0.00117514
-0.00296778
-0.00118767
-0.00279397
-0.0011951
-0.00261951
-0.0011973
-0.00244514
-0.00119414
-0.0022716
-0.00118553
-0.00209965
-0.00117139
-0.00193003
-0.00115168
-0.0017635
-0.00112639
-0.0016008
-0.00109554
-0.00144269
-0.0010592
-0.00128987
-0.00101746
-0.00114305
-0.000970496
-0.0010029
-0.000918518
-0.000870062
-0.000861808
-0.000745127
-0.00080072
-0.000628647
-0.000735693
-0.000521117
-0.000667259
-0.00042297
-0.000596058
-0.000334578
-0.000522852
-0.000256237