/*--------------------------------*- C++ -*----------------------------------*\
  =========                 |
  \\      /  F ield         | OpenFOAM: The Open Source CFD Toolbox
   \\    /   O peration     | Website:  https://openfoam.org
    \\  /    A nd           | Version:  11
     \\/     M anipulation  |
\*---------------------------------------------------------------------------*/
FoamFile
{
    format      ascii;
    class       volVectorField;
    location    "4.2";
    object      U;
}
// * * * * * * * * * * * * * * * * * * * * * * * * * * * * * * * * * * * * * //

dimensions      [0 1 -1 0 0 0 0];

internalField   nonuniform List<vector> 
10100
(
(2.3969e-06 -3.33406e-06 0)
(1.41721e-05 -9.47161e-06 0)
(3.46289e-05 -1.15636e-05 0)
(5.50709e-05 -1.00471e-05 0)
(6.9118e-05 -6.89431e-06 0)
(7.40505e-05 -3.29326e-06 0)
(6.90499e-05 4.01333e-07 0)
(5.38984e-05 3.96579e-06 0)
(2.87451e-05 7.31055e-06 0)
(-5.97406e-06 1.04503e-05 0)
(-4.97995e-05 1.3323e-05 0)
(-0.000102141 1.59637e-05 0)
(-0.000162361 1.83946e-05 0)
(-0.000229852 2.05588e-05 0)
(-0.000303946 2.24909e-05 0)
(-0.000383936 2.42011e-05 0)
(-0.000469233 2.56721e-05 0)
(-0.000559168 2.69364e-05 0)
(-0.000653097 2.80336e-05 0)
(-0.000750461 2.89535e-05 0)
(-0.000850655 2.96887e-05 0)
(-0.000953103 3.02549e-05 0)
(-0.00105726 3.06583e-05 0)
(-0.00116259 3.09075e-05 0)
(-0.0012686 3.1023e-05 0)
(-0.00137478 3.10154e-05 0)
(-0.00148066 3.0877e-05 0)
(-0.00158578 3.06019e-05 0)
(-0.00168971 3.01886e-05 0)
(-0.001792 2.96485e-05 0)
(-0.00189226 2.8997e-05 0)
(-0.0019901 2.82377e-05 0)
(-0.00208513 2.7373e-05 0)
(-0.002177 2.64081e-05 0)
(-0.00226537 2.53489e-05 0)
(-0.00234992 2.41938e-05 0)
(-0.00243032 2.29405e-05 0)
(-0.00250631 2.16004e-05 0)
(-0.00257759 2.01867e-05 0)
(-0.00264394 1.87068e-05 0)
(-0.00270513 1.71638e-05 0)
(-0.00276093 1.55576e-05 0)
(-0.00281116 1.38943e-05 0)
(-0.00285564 1.21852e-05 0)
(-0.00289422 1.04365e-05 0)
(-0.00292678 8.65136e-06 0)
(-0.00295318 6.8331e-06 0)
(-0.00297335 4.98603e-06 0)
(-0.00298719 3.11939e-06 0)
(-0.00299465 1.24438e-06 0)
(-0.00299571 -6.33354e-07 0)
(-0.00299035 -2.51115e-06 0)
(-0.00297857 -4.38377e-06 0)
(-0.0029604 -6.24576e-06 0)
(-0.00293588 -8.09267e-06 0)
(-0.00290509 -9.91684e-06 0)
(-0.00286811 -1.17088e-05 0)
(-0.00282506 -1.34623e-05 0)
(-0.00277607 -1.51733e-05 0)
(-0.00272128 -1.68368e-05 0)
(-0.00266088 -1.84475e-05 0)
(-0.00259505 -1.99996e-05 0)
(-0.00252403 -2.14836e-05 0)
(-0.00244807 -2.28879e-05 0)
(-0.00236743 -2.42037e-05 0)
(-0.00228241 -2.54277e-05 0)
(-0.00219334 -2.65571e-05 0)
(-0.00210055 -2.7585e-05 0)
(-0.00200441 -2.85004e-05 0)
(-0.00190531 -2.92923e-05 0)
(-0.00180367 -2.9954e-05 0)
(-0.00169993 -3.04834e-05 0)
(-0.00159454 -3.08799e-05 0)
(-0.00148797 -3.11404e-05 0)
(-0.00138071 -3.12571e-05 0)
(-0.00127325 -3.12204e-05 0)
(-0.00116613 -3.10239e-05 0)
(-0.00105989 -3.06653e-05 0)
(-0.000955071 -3.01446e-05 0)
(-0.00085225 -2.94603e-05 0)
(-0.000751995 -2.86091e-05 0)
(-0.000654888 -2.75858e-05 0)
(-0.000561518 -2.63848e-05 0)
(-0.000472482 -2.50007e-05 0)
(-0.000388382 -2.34295e-05 0)
(-0.000309822 -2.16696e-05 0)
(-0.000237399 -1.97217e-05 0)
(-0.000171701 -1.7587e-05 0)
(-0.000113297 -1.52664e-05 0)
(-6.27225e-05 -1.27623e-05 0)
(-2.04693e-05 -1.00838e-05 0)
(1.30417e-05 -7.25143e-06 0)
(3.7494e-05 -4.29914e-06 0)
(5.27273e-05 -1.2791e-06 0)
(5.88293e-05 1.71217e-06 0)
(5.62801e-05 4.49573e-06 0)
(4.6141e-05 6.75509e-06 0)
(3.04868e-05 7.92123e-06 0)
(1.36015e-05 7.00395e-06 0)
(2.84233e-06 2.84233e-06 0)
(4.16189e-06 -1.27036e-05 0)
(2.31572e-05 -3.06951e-05 0)
(5.16239e-05 -3.63211e-05 0)
(7.68361e-05 -2.91376e-05 0)
(8.82084e-05 -1.47805e-05 0)
(7.94576e-05 3.01114e-06 0)
(4.76087e-05 2.21014e-05 0)
(-8.85594e-06 4.13939e-05 0)
(-9.02052e-05 6.03592e-05 0)
(-0.000196128 7.84903e-05 0)
(-0.000325749 9.56687e-05 0)
(-0.000477853 0.00011174 0)
(-0.000651151 0.000126601 0)
(-0.000844053 0.000140223 0)
(-0.00105495 0.000152579 0)
(-0.00128225 0.000163658 0)
(-0.00152422 0.000173455 0)
(-0.00177919 0.00018203 0)
(-0.00204551 0.000189398 0)
(-0.00232151 0.000195603 0)
(-0.00260557 0.000200666 0)
(-0.00289611 0.000204626 0)
(-0.00319157 0.000207507 0)
(-0.00349045 0.000209343 0)
(-0.0037913 0.000210182 0)
(-0.00409271 0.000210076 0)
(-0.00439329 0.000209047 0)
(-0.00469175 0.000207116 0)
(-0.0049868 0.000204316 0)
(-0.00527723 0.000200685 0)
(-0.00556185 0.000196263 0)
(-0.00583956 0.000191076 0)
(-0.00610929 0.000185159 0)
(-0.00637002 0.000178554 0)
(-0.00662077 0.000171293 0)
(-0.00686061 0.000163405 0)
(-0.00708872 0.00015492 0)
(-0.00730425 0.000145883 0)
(-0.00750645 0.000136342 0)
(-0.00769462 0.000126331 0)
(-0.00786809 0.000115878 0)
(-0.0080263 0.000105022 0)
(-0.00816869 9.38066e-05 0)
(-0.00829475 8.22729e-05 0)
(-0.00840405 7.04555e-05 0)
(-0.00849624 5.83895e-05 0)
(-0.00857098 4.61129e-05 0)
(-0.00862797 3.36646e-05 0)
(-0.00866703 2.1085e-05 0)
(-0.00868798 8.41741e-06 0)
(-0.00869072 -4.29571e-06 0)
(-0.00867522 -1.70159e-05 0)
(-0.00864149 -2.97054e-05 0)
(-0.00858959 -4.23244e-05 0)
(-0.00851966 -5.48317e-05 0)
(-0.0084319 -6.71845e-05 0)
(-0.00832656 -7.93381e-05 0)
(-0.00820395 -9.1249e-05 0)
(-0.00806446 -0.000102876 0)
(-0.00790852 -0.000114177 0)
(-0.00773662 -0.000125111 0)
(-0.00754934 -0.000135628 0)
(-0.00734734 -0.000145677 0)
(-0.0071313 -0.000155205 0)
(-0.00690199 -0.000164168 0)
(-0.00666025 -0.000172524 0)
(-0.006407 -0.000180229 0)
(-0.00614321 -0.000187233 0)
(-0.00586989 -0.000193484 0)
(-0.00558815 -0.000198932 0)
(-0.00529916 -0.000203536 0)
(-0.00500413 -0.000207262 0)
(-0.00470436 -0.000210076 0)
(-0.00440116 -0.000211946 0)
(-0.00409593 -0.000212833 0)
(-0.00379008 -0.000212698 0)
(-0.0034851 -0.000211506 0)
(-0.00318251 -0.000209229 0)
(-0.00288387 -0.000205846 0)
(-0.00259077 -0.000201339 0)
(-0.00230483 -0.00019569 0)
(-0.00202769 -0.000188881 0)
(-0.00176097 -0.0001809 0)
(-0.00150635 -0.000171737 0)
(-0.00126546 -0.000161389 0)
(-0.00103994 -0.000149863 0)
(-0.000831378 -0.000137178 0)
(-0.000641296 -0.000123372 0)
(-0.000471136 -0.0001085 0)
(-0.000322211 -9.26467e-05 0)
(-0.00019566 -7.59371e-05 0)
(-9.23756e-05 -5.85562e-05 0)
(-1.29015e-05 -4.0777e-05 0)
(4.27069e-05 -2.30059e-05 0)
(7.50861e-05 -5.85993e-06 0)
(8.58433e-05 9.70527e-06 0)
(7.7869e-05 2.22254e-05 0)
(5.58823e-05 2.94602e-05 0)
(2.80244e-05 2.80022e-05 0)
(6.98899e-06 1.35774e-05 0)
(3.56974e-06 -2.45186e-05 0)
(1.89949e-05 -5.39182e-05 0)
(3.80065e-05 -6.00364e-05 0)
(4.79515e-05 -4.11191e-05 0)
(3.72006e-05 -5.97681e-06 0)
(-1.99262e-06 3.80325e-05 0)
(-7.41804e-05 8.6495e-05 0)
(-0.000181701 0.000136585 0)
(-0.000325767 0.000186451 0)
(-0.000506181 0.00023501 0)
(-0.000721985 0.000281472 0)
(-0.000971888 0.000325309 0)
(-0.00125395 0.000366217 0)
(-0.0015661 0.000403976 0)
(-0.00190611 0.000438428 0)
(-0.00227148 0.000469524 0)
(-0.00265977 0.000497251 0)
(-0.00306845 0.000521586 0)
(-0.00349493 0.000542598 0)
(-0.00393668 0.000560336 0)
(-0.00439121 0.000574862 0)
(-0.00485599 0.000586261 0)
(-0.00532859 0.0005946 0)
(-0.00580665 0.000599964 0)
(-0.00628783 0.00060246 0)
(-0.00676987 0.000602181 0)
(-0.00725059 0.000599223 0)
(-0.0077279 0.000593677 0)
(-0.00819973 0.000585644 0)
(-0.00866415 0.000575224 0)
(-0.00911927 0.000562514 0)
(-0.0095633 0.000547612 0)
(-0.00999453 0.000530614 0)
(-0.0104113 0.000511632 0)
(-0.0108121 0.000490766 0)
(-0.0111955 0.000468109 0)
(-0.0115601 0.000443772 0)
(-0.0119045 0.000417868 0)
(-0.0122276 0.000390504 0)
(-0.0125283 0.000361784 0)
(-0.0128055 0.000331812 0)
(-0.0130582 0.000300694 0)
(-0.0132856 0.000268543 0)
(-0.0134869 0.000235471 0)
(-0.0136614 0.000201586 0)
(-0.0138086 0.000166992 0)
(-0.0139278 0.000131796 0)
(-0.0140186 9.61102e-05 0)
(-0.0140808 6.00521e-05 0)
(-0.014114 2.37377e-05 0)
(-0.014118 -1.27222e-05 0)
(-0.0140929 -4.92123e-05 0)
(-0.0140386 -8.56135e-05 0)
(-0.0139553 -0.000121809 0)
(-0.0138431 -0.00015768 0)
(-0.0137024 -0.000193107 0)
(-0.0135336 -0.000227962 0)
(-0.0133372 -0.000262124 0)
(-0.0131138 -0.000295469 0)
(-0.012864 -0.000327873 0)
(-0.0125888 -0.000359207 0)
(-0.012289 -0.000389334 0)
(-0.0119657 -0.000418117 0)
(-0.01162 -0.000445419 0)
(-0.011253 -0.000471111 0)
(-0.0108662 -0.000495065 0)
(-0.010461 -0.00051715 0)
(-0.0100389 -0.00053723 0)
(-0.00960161 -0.000555171 0)
(-0.00915082 -0.000570841 0)
(-0.00868839 -0.00058412 0)
(-0.00821626 -0.000594897 0)
(-0.00773646 -0.000603066 0)
(-0.00725112 -0.000608526 0)
(-0.00676242 -0.000611173 0)
(-0.00627263 -0.000610907 0)
(-0.00578411 -0.000607635 0)
(-0.00529927 -0.00060128 0)
(-0.00482056 -0.000591775 0)
(-0.00435051 -0.000579065 0)
(-0.00389166 -0.000563104 0)
(-0.00344658 -0.000543858 0)
(-0.00301786 -0.000521308 0)
(-0.00260805 -0.000495453 0)
(-0.00221971 -0.000466315 0)
(-0.00185534 -0.000433947 0)
(-0.00151735 -0.000398441 0)
(-0.001208 -0.000359944 0)
(-0.000929417 -0.000318663 0)
(-0.00068348 -0.000274898 0)
(-0.000471764 -0.000229065 0)
(-0.000295424 -0.000181751 0)
(-0.000155048 -0.000133773 0)
(-5.0478e-05 -8.62831e-05 0)
(1.94367e-05 -4.09202e-05 0)
(5.71478e-05 -1.78775e-08 0)
(6.6713e-05 3.31148e-05 0)
(5.42775e-05 5.3873e-05 0)
(2.96786e-05 5.5912e-05 0)
(7.93821e-06 3.04812e-05 0)
(2.53943e-06 -3.31965e-05 0)
(1.06575e-05 -6.71601e-05 0)
(1.27881e-05 -6.6385e-05 0)
(-2.44786e-06 -2.84323e-05 0)
(-4.61565e-05 3.51638e-05 0)
(-0.000126425 0.00011423 0)
(-0.000248107 0.000201773 0)
(-0.000414479 0.000293021 0)
(-0.000626787 0.000384713 0)
(-0.000885178 0.000474687 0)
(-0.00118886 0.000561315 0)
(-0.00153614 0.000643567 0)
(-0.00192495 0.000720716 0)
(-0.00235275 0.000792197 0)
(-0.00281669 0.000857723 0)
(-0.00331381 0.00091708 0)
(-0.00384091 0.000970145 0)
(-0.00439477 0.0010169 0)
(-0.00497208 0.00105736 0)
(-0.00556951 0.00109156 0)
(-0.00618378 0.00111963 0)
(-0.00681161 0.00114167 0)
(-0.00744978 0.00115783 0)
(-0.00809512 0.00116824 0)
(-0.00874453 0.00117308 0)
(-0.00939501 0.00117252 0)
(-0.0100436 0.00116673 0)
(-0.0106875 0.0011559 0)
(-0.011324 0.00114022 0)
(-0.0119505 0.00111989 0)
(-0.0125644 0.00109509 0)
(-0.0131633 0.00106603 0)
(-0.0137449 0.00103289 0)
(-0.014307 0.000995889 0)
(-0.0148475 0.000955213 0)
(-0.0153644 0.00091107 0)
(-0.015856 0.000863661 0)
(-0.0163204 0.000813202 0)
(-0.0167561 0.000759905 0)
(-0.0171614 0.000703967 0)
(-0.017535 0.000645591 0)
(-0.0178757 0.000584993 0)
(-0.0181822 0.000522387 0)
(-0.0184535 0.000457985 0)
(-0.0186886 0.000391992 0)
(-0.0188868 0.000324617 0)
(-0.0190472 0.000256078 0)
(-0.0191695 0.000186596 0)
(-0.019253 0.000116386 0)
(-0.0192974 4.56665e-05 0)
(-0.0193026 -2.53349e-05 0)
(-0.0192684 -9.63921e-05 0)
(-0.0191948 -0.000167279 0)
(-0.0190821 -0.000237765 0)
(-0.0189304 -0.000307617 0)
(-0.0187404 -0.000376595 0)
(-0.0185124 -0.00044446 0)
(-0.0182472 -0.000510969 0)
(-0.0179455 -0.000575879 0)
(-0.0176085 -0.000638945 0)
(-0.0172371 -0.000699916 0)
(-0.0168326 -0.00075853 0)
(-0.0163963 -0.000814527 0)
(-0.0159299 -0.00086765 0)
(-0.015435 -0.000917644 0)
(-0.0149132 -0.000964256 0)
(-0.0143667 -0.00100723 0)
(-0.0137975 -0.00104632 0)
(-0.0132077 -0.00108126 0)
(-0.0125997 -0.00111181 0)
(-0.011976 -0.00113774 0)
(-0.0113392 -0.00115883 0)
(-0.010692 -0.00117486 0)
(-0.0100372 -0.00118563 0)
(-0.0093778 -0.00119095 0)
(-0.00871678 -0.00119062 0)
(-0.00805729 -0.00118449 0)
(-0.00740253 -0.0011724 0)
(-0.00675579 -0.00115424 0)
(-0.00612039 -0.00112989 0)
(-0.00549971 -0.00109929 0)
(-0.00489714 -0.00106237 0)
(-0.00431606 -0.00101913 0)
(-0.00375983 -0.000969592 0)
(-0.00323179 -0.000913842 0)
(-0.00273513 -0.000852022 0)
(-0.00227296 -0.000784355 0)
(-0.00184815 -0.000711166 0)
(-0.00146336 -0.000632916 0)
(-0.00112089 -0.000550235 0)
(-0.000822648 -0.000463984 0)
(-0.000569962 -0.000375319 0)
(-0.000363437 -0.000285811 0)
(-0.000202762 -0.000197593 0)
(-8.64629e-05 -0.000113569 0)
(-1.16138e-05 -3.76891e-05 0)
(2.64405e-05 2.47048e-05 0)
(3.45073e-05 6.65168e-05 0)
(2.29043e-05 7.83038e-05 0)
(6.87888e-06 4.63298e-05 0)
(1.11291e-06 -3.68016e-05 0)
(-6.33872e-07 -6.51319e-05 0)
(-2.00734e-05 -4.78315e-05 0)
(-6.69219e-05 1.77381e-05 0)
(-0.000150774 0.00011785 0)
(-0.000279222 0.000239972 0)
(-0.000457364 0.00037477 0)
(-0.00068817 0.000515631 0)
(-0.000973276 0.000657846 0)
(-0.00131283 0.000797917 0)
(-0.00170586 0.000933432 0)
(-0.00215071 0.00106262 0)
(-0.00264495 0.00118418 0)
(-0.00318574 0.00129724 0)
(-0.00376981 0.00140113 0)
(-0.00439366 0.00149548 0)
(-0.00505357 0.00158003 0)
(-0.00574569 0.00165466 0)
(-0.0064661 0.00171933 0)
(-0.00721082 0.0017741 0)
(-0.00797584 0.00181907 0)
(-0.00875723 0.00185439 0)
(-0.00955106 0.00188026 0)
(-0.0103535 0.00189689 0)
(-0.0111607 0.00190455 0)
(-0.011969 0.00190348 0)
(-0.0127749 0.00189396 0)
(-0.0135748 0.00187629 0)
(-0.0143653 0.00185075 0)
(-0.0151433 0.00181766 0)
(-0.0159057 0.00177734 0)
(-0.0166493 0.00173008 0)
(-0.0173714 0.00167624 0)
(-0.0180693 0.00161613 0)
(-0.0187403 0.00155006 0)
(-0.0193821 0.00147836 0)
(-0.0199923 0.00140138 0)
(-0.0205688 0.00131945 0)
(-0.0211095 0.00123291 0)
(-0.0216126 0.00114208 0)
(-0.0220763 0.00104731 0)
(-0.022499 0.000948938 0)
(-0.0228793 0.000847303 0)
(-0.0232158 0.000742743 0)
(-0.0235075 0.000635604 0)
(-0.0237532 0.000526233 0)
(-0.0239521 0.000414976 0)
(-0.0241035 0.000302186 0)
(-0.0242069 0.000188216 0)
(-0.0242618 7.34248e-05 0)
(-0.0242678 -4.18209e-05 0)
(-0.024225 -0.000157153 0)
(-0.0241334 -0.000272205 0)
(-0.0239932 -0.0003866 0)
(-0.0238046 -0.00049996 0)
(-0.0235684 -0.000611897 0)
(-0.0232851 -0.000722019 0)
(-0.0229556 -0.000829932 0)
(-0.022581 -0.000935236 0)
(-0.0221624 -0.00103753 0)
(-0.0217012 -0.00113642 0)
(-0.021199 -0.00123148 0)
(-0.0206574 -0.00132229 0)
(-0.0200784 -0.00140844 0)
(-0.019464 -0.00148952 0)
(-0.0188164 -0.00156512 0)
(-0.018138 -0.00163483 0)
(-0.0174315 -0.00169824 0)
(-0.0166994 -0.00175496 0)
(-0.0159447 -0.00180459 0)
(-0.0151705 -0.00184675 0)
(-0.01438 -0.0018811 0)
(-0.0135764 -0.00190729 0)
(-0.0127633 -0.00192498 0)
(-0.0119443 -0.00193387 0)
(-0.011123 -0.00193366 0)
(-0.0103035 -0.00192411 0)
(-0.00948943 -0.00190499 0)
(-0.00868497 -0.0018761 0)
(-0.00789413 -0.00183729 0)
(-0.007121 -0.00178845 0)
(-0.0063697 -0.00172953 0)
(-0.00564431 -0.00166053 0)
(-0.00494889 -0.00158154 0)
(-0.00428742 -0.00149273 0)
(-0.00366372 -0.00139438 0)
(-0.00308144 -0.0012869 0)
(-0.00254399 -0.00117087 0)
(-0.00205444 -0.00104708 0)
(-0.00161548 -0.000916593 0)
(-0.00122926 -0.000780818 0)
(-0.000897262 -0.000641613 0)
(-0.00062016 -0.000501428 0)
(-0.000397605 -0.000363496 0)
(-0.000228012 -0.00023208 0)
(-0.000108304 -0.000112792 0)
(-3.36661e-05 -1.29833e-05 0)
(2.83132e-06 5.78476e-05 0)
(1.10666e-05 8.72837e-05 0)
(4.78423e-06 5.69814e-05 0)
(-8.20335e-07 -3.41646e-05 0)
(-1.41606e-05 -4.51225e-05 0)
(-5.87156e-05 -3.65902e-07 0)
(-0.00014149 0.000102307 0)
(-0.000270362 0.000247682 0)
(-0.000452225 0.000420847 0)
(-0.00069155 0.000610769 0)
(-0.000991253 0.000809047 0)
(-0.00135263 0.00100943 0)
(-0.00177575 0.00120733 0)
(-0.00225959 0.00139928 0)
(-0.0028022 0.00158273 0)
(-0.003401 0.00175581 0)
(-0.00405279 0.00191714 0)
(-0.00475395 0.00206574 0)
(-0.00550053 0.00220093 0)
(-0.00628834 0.00232226 0)
(-0.00711304 0.00242949 0)
(-0.00797013 0.00252252 0)
(-0.00885505 0.00260136 0)
(-0.00976323 0.00266612 0)
(-0.0106901 0.00271695 0)
(-0.0116312 0.00275412 0)
(-0.0125819 0.00277792 0)
(-0.0135379 0.00278867 0)
(-0.0144949 0.00278673 0)
(-0.0154487 0.0027725 0)
(-0.0163953 0.0027464 0)
(-0.0173306 0.00270884 0)
(-0.0182509 0.00266024 0)
(-0.0191526 0.00260108 0)
(-0.020032 0.00253182 0)
(-0.020886 0.00245291 0)
(-0.0217111 0.00236483 0)
(-0.0225046 0.00226806 0)
(-0.0232633 0.00216308 0)
(-0.0239847 0.00205037 0)
(-0.0246661 0.00193042 0)
(-0.0253053 0.00180372 0)
(-0.0258999 0.00167075 0)
(-0.0264479 0.00153202 0)
(-0.0269474 0.00138802 0)
(-0.0273968 0.00123925 0)
(-0.0277944 0.0010862 0)
(-0.0281389 0.000929379 0)
(-0.0284292 0.000769296 0)
(-0.0286641 0.000606462 0)
(-0.0288428 0.000441391 0)
(-0.0289647 0.000274597 0)
(-0.0290292 0.000106607 0)
(-0.0290361 -6.20427e-05 0)
(-0.0289853 -0.000230811 0)
(-0.0288767 -0.000399157 0)
(-0.0287106 -0.000566532 0)
(-0.0284875 -0.000732382 0)
(-0.0282081 -0.000896142 0)
(-0.027873 -0.00105724 0)
(-0.0274834 -0.00121509 0)
(-0.0270404 -0.00136911 0)
(-0.0265455 -0.00151872 0)
(-0.0260003 -0.00166333 0)
(-0.0254067 -0.00180233 0)
(-0.0247665 -0.00193512 0)
(-0.0240821 -0.0020611 0)
(-0.0233559 -0.00217967 0)
(-0.0225904 -0.00229024 0)
(-0.0217886 -0.00239221 0)
(-0.0209534 -0.00248499 0)
(-0.0200881 -0.00256801 0)
(-0.019196 -0.00264071 0)
(-0.0182806 -0.00270255 0)
(-0.0173459 -0.002753 0)
(-0.0163956 -0.00279158 0)
(-0.0154338 -0.00281781 0)
(-0.0144648 -0.00283124 0)
(-0.0134929 -0.00283147 0)
(-0.0125225 -0.00281814 0)
(-0.0115583 -0.00279094 0)
(-0.0106049 -0.00274959 0)
(-0.00966698 -0.00269391 0)
(-0.00874926 -0.00262376 0)
(-0.00785652 -0.0025391 0)
(-0.00699346 -0.00243996 0)
(-0.00616473 -0.00232652 0)
(-0.00537488 -0.00219907 0)
(-0.00462826 -0.00205806 0)
(-0.00392902 -0.00190414 0)
(-0.00328099 -0.00173821 0)
(-0.00268765 -0.00156146 0)
(-0.00215199 -0.00137546 0)
(-0.0016764 -0.00118224 0)
(-0.00126258 -0.000984453 0)
(-0.00091131 -0.000785494 0)
(-0.000622344 -0.000589747 0)
(-0.000394183 -0.000402846 0)
(-0.000223877 -0.000232021 0)
(-0.0001068 -8.65246e-05 0)
(-3.63193e-05 2.19423e-05 0)
(-3.68134e-06 7.83164e-05 0)
(2.19392e-06 6.04632e-05 0)
(-3.02659e-06 -2.41578e-05 0)
(-2.9253e-05 -4.6966e-06 0)
(-0.000101152 7.91145e-05 0)
(-0.000222746 0.000229248 0)
(-0.000400005 0.000428672 0)
(-0.000638754 0.000661152 0)
(-0.00094279 0.000913763 0)
(-0.00131444 0.00117668 0)
(-0.00175471 0.00144231 0)
(-0.00226335 0.00170484 0)
(-0.00283908 0.00195986 0)
(-0.00347974 0.00220398 0)
(-0.00418244 0.00243469 0)
(-0.00494368 0.00265008 0)
(-0.00575953 0.00284878 0)
(-0.00662564 0.0030298 0)
(-0.0075374 0.00319245 0)
(-0.00848998 0.00333633 0)
(-0.00947842 0.00346122 0)
(-0.0104977 0.00356709 0)
(-0.0115426 0.00365401 0)
(-0.0126082 0.00372218 0)
(-0.0136892 0.00377191 0)
(-0.0147808 0.00380352 0)
(-0.0158778 0.00381745 0)
(-0.0169756 0.00381416 0)
(-0.0180694 0.00379418 0)
(-0.0191545 0.00375802 0)
(-0.0202265 0.00370626 0)
(-0.0212811 0.00363949 0)
(-0.0223141 0.00355831 0)
(-0.0233215 0.00346335 0)
(-0.0242996 0.00335523 0)
(-0.0252446 0.00323459 0)
(-0.0261532 0.00310208 0)
(-0.0270219 0.00295837 0)
(-0.0278479 0.0028041 0)
(-0.028628 0.00263994 0)
(-0.0293597 0.00246655 0)
(-0.0300403 0.00228461 0)
(-0.0306676 0.00209479 0)
(-0.0312393 0.00189777 0)
(-0.0317535 0.00169423 0)
(-0.0322085 0.00148485 0)
(-0.0326027 0.00127031 0)
(-0.0329347 0.00105132 0)
(-0.0332034 0.000828578 0)
(-0.0334077 0.000602783 0)
(-0.033547 0.00037464 0)
(-0.0336207 0.000144873 0)
(-0.0336284 -8.57831e-05 0)
(-0.0335699 -0.000316592 0)
(-0.0334454 -0.000546814 0)
(-0.0332552 -0.0007757 0)
(-0.0329996 -0.00100248 0)
(-0.0326796 -0.00122639 0)
(-0.032296 -0.00144664 0)
(-0.0318499 -0.00166245 0)
(-0.0313428 -0.00187302 0)
(-0.0307763 -0.00207754 0)
(-0.0301522 -0.00227522 0)
(-0.0294727 -0.00246523 0)
(-0.0287399 -0.00264675 0)
(-0.0279566 -0.00281897 0)
(-0.0271253 -0.00298107 0)
(-0.0262491 -0.00313226 0)
(-0.0253313 -0.00327171 0)
(-0.0243751 -0.00339865 0)
(-0.0233844 -0.00351229 0)
(-0.0223629 -0.00361189 0)
(-0.0213147 -0.0036967 0)
(-0.020244 -0.00376604 0)
(-0.0191554 -0.00381922 0)
(-0.0180533 -0.00385563 0)
(-0.0169425 -0.00387466 0)
(-0.0158281 -0.00387579 0)
(-0.0147149 -0.00385854 0)
(-0.0136082 -0.0038225 0)
(-0.0125132 -0.00376734 0)
(-0.0114352 -0.00369282 0)
(-0.0103794 -0.00359878 0)
(-0.00935128 -0.0034852 0)
(-0.00835597 -0.0033522 0)
(-0.0073987 -0.00320002 0)
(-0.0064845 -0.00302912 0)
(-0.00561821 -0.00284018 0)
(-0.00480441 -0.00263411 0)
(-0.00404734 -0.00241218 0)
(-0.00335081 -0.00217604 0)
(-0.00271814 -0.00192781 0)
(-0.002152 -0.0016702 0)
(-0.0016543 -0.00140669 0)
(-0.00122605 -0.00114166 0)
(-0.000867232 -0.000880618 0)
(-0.000576608 -0.000630544 0)
(-0.000351585 -0.000400185 0)
(-0.000188007 -0.000200516 0)
(-7.98596e-05 -4.51642e-05 0)
(-1.99756e-05 4.86078e-05 0)
(-6.01814e-07 5.57625e-05 0)
(-5.40691e-06 -6.18687e-06 0)
(-4.5231e-05 5.75608e-05 0)
(-0.000145789 0.000192851 0)
(-0.000308053 0.000400828 0)
(-0.000535839 0.000663728 0)
(-0.00083378 0.000963638 0)
(-0.00120486 0.00128647 0)
(-0.00165068 0.00162096 0)
(-0.00217168 0.00195834 0)
(-0.00276722 0.00229171 0)
(-0.00343568 0.0026157 0)
(-0.00417456 0.00292613 0)
(-0.00498065 0.0032198 0)
(-0.00585017 0.00349427 0)
(-0.00677881 0.00374771 0)
(-0.00776186 0.00397881 0)
(-0.00879433 0.00418663 0)
(-0.00987098 0.00437054 0)
(-0.0109864 0.00453024 0)
(-0.0121351 0.00466558 0)
(-0.0133114 0.00477662 0)
(-0.0145099 0.00486357 0)
(-0.0157249 0.00492674 0)
(-0.0169509 0.00496658 0)
(-0.0181824 0.00498356 0)
(-0.0194142 0.00497828 0)
(-0.020641 0.00495138 0)
(-0.0218576 0.00490352 0)
(-0.0230593 0.00483541 0)
(-0.0242411 0.00474783 0)
(-0.0253985 0.00464154 0)
(-0.0265271 0.00451734 0)
(-0.0276226 0.00437602 0)
(-0.0286809 0.00421844 0)
(-0.0296983 0.00404541 0)
(-0.030671 0.0038578 0)
(-0.0315957 0.00365645 0)
(-0.032469 0.00344223 0)
(-0.033288 0.00321599 0)
(-0.0340498 0.00297862 0)
(-0.0347518 0.002731 0)
(-0.0353916 0.00247399 0)
(-0.035967 0.00220849 0)
(-0.0364761 0.00193539 0)
(-0.0369171 0.00165558 0)
(-0.0372885 0.00136998 0)
(-0.037589 0.0010795 0)
(-0.0378176 0.000785038 0)
(-0.0379733 0.000487538 0)
(-0.0380556 0.000187941 0)
(-0.038064 -0.000112805 0)
(-0.0379985 -0.000413742 0)
(-0.0378591 -0.000713901 0)
(-0.037646 -0.0010123 0)
(-0.03736 -0.00130795 0)
(-0.0370018 -0.00159983 0)
(-0.0365725 -0.00188694 0)
(-0.0360733 -0.00216824 0)
(-0.0355058 -0.00244271 0)
(-0.0348719 -0.0027093 0)
(-0.0341735 -0.00296696 0)
(-0.0334131 -0.00321463 0)
(-0.0325931 -0.00345125 0)
(-0.0317164 -0.00367576 0)
(-0.0307861 -0.00388712 0)
(-0.0298054 -0.00408428 0)
(-0.028778 -0.0042662 0)
(-0.0277077 -0.00443185 0)
(-0.0265985 -0.00458025 0)
(-0.0254546 -0.00471042 0)
(-0.0242806 -0.00482143 0)
(-0.0230813 -0.00491237 0)
(-0.0218614 -0.00498238 0)
(-0.0206262 -0.00503065 0)
(-0.0193808 -0.00505645 0)
(-0.0181307 -0.0050591 0)
(-0.0168815 -0.00503801 0)
(-0.0156388 -0.00499267 0)
(-0.0144084 -0.00492267 0)
(-0.0131961 -0.00482773 0)
(-0.0120077 -0.0047077 0)
(-0.010849 -0.00456259 0)
(-0.00972586 -0.00439257 0)
(-0.00864387 -0.00419803 0)
(-0.00760853 -0.0039796 0)
(-0.00662511 -0.00373819 0)
(-0.0056986 -0.00347505 0)
(-0.0048336 -0.00319184 0)
(-0.0040343 -0.00289068 0)
(-0.00330431 -0.0025743 0)
(-0.00264663 -0.00224612 0)
(-0.00206346 -0.00191043 0)
(-0.00155612 -0.00157258 0)
(-0.00112494 -0.0012392 0)
(-0.000769092 -0.000918497 0)
(-0.000486538 -0.000620612 0)
(-0.000273797 -0.000358029 0)
(-0.000125708 -0.000145983 0)
(-3.69634e-05 -3.46328e-06 0)
(-3.44352e-06 4.23952e-05 0)
(-7.85286e-06 2.00113e-05 0)
(-6.14894e-05 0.000142511 0)
(-0.000191542 0.000341803 0)
(-0.000395426 0.000618698 0)
(-0.000674913 0.000954453 0)
(-0.00103354 0.00133019 0)
(-0.00147313 0.00173065 0)
(-0.00199453 0.0021435 0)
(-0.00259751 0.00255886 0)
(-0.00328089 0.00296884 0)
(-0.00404261 0.0033672 0)
(-0.00487981 0.00374899 0)
(-0.00578889 0.00411035 0)
(-0.00676571 0.00444828 0)
(-0.00780562 0.00476051 0)
(-0.00890354 0.00504535 0)
(-0.0100541 0.00530159 0)
(-0.0112517 0.00552842 0)
(-0.0124905 0.00572535 0)
(-0.0137646 0.00589216 0)
(-0.0150679 0.00602886 0)
(-0.0163945 0.00613567 0)
(-0.0177383 0.00621292 0)
(-0.0190933 0.00626109 0)
(-0.0204538 0.00628081 0)
(-0.0218138 0.00627274 0)
(-0.0231676 0.00623765 0)
(-0.0245099 0.00617636 0)
(-0.0258351 0.00608976 0)
(-0.0271382 0.00597876 0)
(-0.028414 0.00584432 0)
(-0.0296577 0.00568743 0)
(-0.0308648 0.00550909 0)
(-0.0320308 0.00531033 0)
(-0.0331514 0.00509221 0)
(-0.0342228 0.00485578 0)
(-0.0352411 0.00460209 0)
(-0.0362027 0.00433224 0)
(-0.0371044 0.00404731 0)
(-0.0379431 0.0037484 0)
(-0.0387159 0.0034366 0)
(-0.0394202 0.00311301 0)
(-0.0400536 0.00277876 0)
(-0.0406139 0.00243496 0)
(-0.0410993 0.00208276 0)
(-0.041508 0.00172327 0)
(-0.0418388 0.00135764 0)
(-0.0420902 0.000987044 0)
(-0.0422616 0.000612635 0)
(-0.0423521 0.000235602 0)
(-0.0423614 -0.00014286 0)
(-0.0422892 -0.000521547 0)
(-0.0421358 -0.000899242 0)
(-0.0419013 -0.00127471 0)
(-0.0415866 -0.0016467 0)
(-0.0411924 -0.00201395 0)
(-0.0407199 -0.00237518 0)
(-0.0401706 -0.00272911 0)
(-0.0395461 -0.00307444 0)
(-0.0388484 -0.00340986 0)
(-0.0380799 -0.00373404 0)
(-0.0372429 -0.00404568 0)
(-0.0363404 -0.00434344 0)
(-0.0353754 -0.00462602 0)
(-0.0343512 -0.00489208 0)
(-0.0332716 -0.00514033 0)
(-0.0321403 -0.00536947 0)
(-0.0309616 -0.00557823 0)
(-0.0297398 -0.00576539 0)
(-0.0284797 -0.00592972 0)
(-0.0271862 -0.00607006 0)
(-0.0258643 -0.0061853 0)
(-0.0245194 -0.00627438 0)
(-0.023157 -0.0063363 0)
(-0.021783 -0.00637016 0)
(-0.0204031 -0.00637513 0)
(-0.0190235 -0.00635049 0)
(-0.0176502 -0.00629564 0)
(-0.0162895 -0.0062101 0)
(-0.0149477 -0.00609356 0)
(-0.0136311 -0.00594585 0)
(-0.012346 -0.00576703 0)
(-0.0110985 -0.00555737 0)
(-0.00989487 -0.00531739 0)
(-0.00874091 -0.00504793 0)
(-0.00764233 -0.00475015 0)
(-0.0066045 -0.00442566 0)
(-0.00563242 -0.0040765 0)
(-0.00473061 -0.00370534 0)
(-0.00390306 -0.00331549 0)
(-0.00315309 -0.00291108 0)
(-0.00248327 -0.00249723 0)
(-0.00189534 -0.00208019 0)
(-0.00139004 -0.00166765 0)
(-0.000967136 -0.00126895 0)
(-0.000625259 -0.000895449 0)
(-0.000361765 -0.000560928 0)
(-0.000172492 -0.000281914 0)
(-5.41219e-05 -7.8682e-05 0)
(-6.24676e-06 2.02115e-05 0)
(-1.02507e-05 5.45493e-05 0)
(-7.78394e-05 0.000250363 0)
(-0.000237479 0.000526584 0)
(-0.000483379 0.000883573 0)
(-0.000815231 0.00130182 0)
(-0.0012352 0.00176186 0)
(-0.00174415 0.00224744 0)
(-0.00234195 0.00274532 0)
(-0.00302765 0.00324471 0)
(-0.00379945 0.00373682 0)
(-0.00465475 0.00421461 0)
(-0.00559023 0.00467241 0)
(-0.00660191 0.00510572 0)
(-0.00768524 0.00551101 0)
(-0.00883519 0.00588557 0)
(-0.0100463 0.00622733 0)
(-0.0113129 0.0065348 0)
(-0.0126289 0.00680694 0)
(-0.0139881 0.00704311 0)
(-0.0153843 0.007243 0)
(-0.0168109 0.00740656 0)
(-0.0182616 0.00753398 0)
(-0.01973 0.00762563 0)
(-0.0212097 0.00768207 0)
(-0.0226942 0.00770399 0)
(-0.0241775 0.00769218 0)
(-0.0256535 0.00764753 0)
(-0.0271163 0.00757102 0)
(-0.02856 0.00746371 0)
(-0.029979 0.0073267 0)
(-0.0313681 0.00716113 0)
(-0.0327219 0.00696818 0)
(-0.0340355 0.00674908 0)
(-0.0353042 0.00650508 0)
(-0.0365233 0.00623744 0)
(-0.0376887 0.00594745 0)
(-0.0387961 0.0056364 0)
(-0.0398419 0.00530561 0)
(-0.0408224 0.0049564 0)
(-0.0417343 0.00459012 0)
(-0.0425745 0.00420809 0)
(-0.0433401 0.00381167 0)
(-0.0440287 0.00340221 0)
(-0.0446377 0.0029811 0)
(-0.0451653 0.00254972 0)
(-0.0456096 0.00210945 0)
(-0.0459691 0.00166169 0)
(-0.0462425 0.00120786 0)
(-0.0464288 0.000749388 0)
(-0.0465272 0.000287725 0)
(-0.0465374 -0.000175672 0)
(-0.0464591 -0.000639333 0)
(-0.0462925 -0.00110176 0)
(-0.0460379 -0.00156146 0)
(-0.045696 -0.00201688 0)
(-0.0452678 -0.0024665 0)
(-0.0447545 -0.00290875 0)
(-0.0441576 -0.00334207 0)
(-0.0434791 -0.00376486 0)
(-0.042721 -0.00417554 0)
(-0.0418858 -0.0045725 0)
(-0.0409763 -0.00495412 0)
(-0.0399953 -0.00531881 0)
(-0.0389463 -0.00566495 0)
(-0.0378329 -0.00599094 0)
(-0.036659 -0.00629521 0)
(-0.0354288 -0.00657617 0)
(-0.0341468 -0.00683231 0)
(-0.0328177 -0.00706211 0)
(-0.0314466 -0.00726411 0)
(-0.0300387 -0.00743692 0)
(-0.0285995 -0.00757917 0)
(-0.0271348 -0.00768961 0)
(-0.0256505 -0.00776704 0)
(-0.0241528 -0.00781037 0)
(-0.0226481 -0.00781862 0)
(-0.0211427 -0.00779095 0)
(-0.0196433 -0.00772665 0)
(-0.0181566 -0.00762517 0)
(-0.0166892 -0.00748615 0)
(-0.015248 -0.00730946 0)
(-0.0138396 -0.00709519 0)
(-0.0124706 -0.0068437 0)
(-0.0111477 -0.00655567 0)
(-0.00987707 -0.00623216 0)
(-0.00866484 -0.00587461 0)
(-0.00751675 -0.00548497 0)
(-0.0064382 -0.00506572 0)
(-0.00543408 -0.00462003 0)
(-0.00450877 -0.00415182 0)
(-0.00366597 -0.00366591 0)
(-0.0029087 -0.0031682 0)
(-0.00223915 -0.00266581 0)
(-0.00165863 -0.00216738 0)
(-0.00116755 -0.00168329 0)
(-0.000765338 -0.00122594 0)
(-0.000450292 -0.000810191 0)
(-0.000219326 -0.000453575 0)
(-7.11382e-05 -0.000177284 0)
(-8.97047e-06 -1.07424e-05 0)
(-1.2624e-05 9.73025e-05 0)
(-9.39618e-05 0.000381112 0)
(-0.000283106 0.000747335 0)
(-0.000571015 0.00119559 0)
(-0.000955266 0.00170625 0)
(-0.00143683 0.00225914 0)
(-0.00201544 0.00283739 0)
(-0.00269002 0.00342698 0)
(-0.0034588 0.00401635 0)
(-0.00431927 0.00459595 0)
(-0.00526826 0.005158 0)
(-0.00630193 0.00569616 0)
(-0.00741584 0.00620536 0)
(-0.00860502 0.00668157 0)
(-0.00986401 0.00712161 0)
(-0.011187 0.00752308 0)
(-0.0125679 0.00788419 0)
(-0.0140003 0.00820368 0)
(-0.0154776 0.00848074 0)
(-0.0169931 0.00871497 0)
(-0.0185401 0.00890626 0)
(-0.0201117 0.00905477 0)
(-0.0217011 0.00916091 0)
(-0.0233016 0.00922532 0)
(-0.0249064 0.00924873 0)
(-0.026509 0.00923207 0)
(-0.0281028 0.00917638 0)
(-0.0296817 0.00908279 0)
(-0.0312395 0.00895253 0)
(-0.0327702 0.00878688 0)
(-0.034268 0.0085872 0)
(-0.0357276 0.00835489 0)
(-0.0371434 0.00809138 0)
(-0.0385105 0.00779816 0)
(-0.0398241 0.00747674 0)
(-0.0410794 0.00712862 0)
(-0.0422723 0.00675536 0)
(-0.0433986 0.00635853 0)
(-0.0444544 0.00593971 0)
(-0.0454363 0.00550047 0)
(-0.0463409 0.00504243 0)
(-0.0471652 0.00456719 0)
(-0.0479065 0.00407639 0)
(-0.0485622 0.00357167 0)
(-0.0491302 0.00305467 0)
(-0.0496086 0.00252706 0)
(-0.0499956 0.0019905 0)
(-0.05029 0.0014467 0)
(-0.0504907 0.000897374 0)
(-0.0505969 0.000344239 0)
(-0.0506081 -0.000210959 0)
(-0.0505241 -0.000766458 0)
(-0.0503451 -0.00132047 0)
(-0.0500714 -0.0018712 0)
(-0.0497038 -0.0024168 0)
(-0.0492434 -0.00295546 0)
(-0.0486913 -0.0034853 0)
(-0.0480494 -0.00400446 0)
(-0.0473194 -0.00451104 0)
(-0.0465039 -0.00500313 0)
(-0.0456052 -0.00547883 0)
(-0.0446264 -0.00593621 0)
(-0.0435706 -0.00637337 0)
(-0.0424415 -0.00678839 0)
(-0.0412428 -0.00717937 0)
(-0.0399788 -0.00754442 0)
(-0.0386539 -0.00788169 0)
(-0.037273 -0.00818935 0)
(-0.0358409 -0.00846563 0)
(-0.0343632 -0.00870879 0)