/*--------------------------------*- C++ -*----------------------------------*\
  =========                 |
  \\      /  F ield         | OpenFOAM: The Open Source CFD Toolbox
   \\    /   O peration     | Website:  https://openfoam.org
    \\  /    A nd           | Version:  11
     \\/     M anipulation  |
\*---------------------------------------------------------------------------*/
FoamFile
{
    format      ascii;
    class       surfaceScalarField;
    location    "0.9";
    object      phi;
}
// * * * * * * * * * * * * * * * * * * * * * * * * * * * * * * * * * * * * * //

dimensions      [0 3 -1 0 0 0 0];

internalField   nonuniform List<scalar> 
19980
(
2.72273e-06
-2.72303e-06
5.48533e-06
-2.76266e-06
3.01537e-06
2.46997e-06
-3.58943e-06
6.60476e-06
-1.30075e-05
9.41806e-06
-2.4125e-05
1.11173e-05
-3.60716e-05
1.19469e-05
-4.81735e-05
1.21018e-05
-5.99291e-05
1.17555e-05
-7.0955e-05
1.10258e-05
-8.0898e-05
9.94296e-06
-8.95612e-05
8.66328e-06
-9.68284e-05
7.26722e-06
-0.000102743
5.91458e-06
-0.000107437
4.69395e-06
-0.000111067
3.62971e-06
-0.000113873
2.806e-06
-0.000116136
2.26323e-06
-0.000118162
2.02642e-06
-0.000120265
2.10265e-06
-0.000122702
2.43664e-06
-0.000125602
2.90031e-06
-0.000129084
3.48179e-06
-0.000133204
4.12024e-06
-0.000137936
4.73195e-06
-0.000143223
5.2871e-06
-0.000148965
5.74222e-06
-0.000154998
6.03295e-06
-0.000161158
6.15972e-06
-0.00016733
6.17232e-06
-0.000173441
6.11091e-06
-0.000179441
6.00025e-06
-0.000185298
5.85652e-06
-0.000190981
5.68338e-06
-0.00019644
5.45835e-06
-0.000201594
5.15396e-06
-0.000206367
4.77306e-06
-0.000210708
4.34102e-06
-0.000214584
3.87643e-06
-0.000217962
3.37806e-06
-0.000220813
2.85069e-06
-0.000223138
2.3245e-06
-0.000224968
1.82991e-06
-0.000226352
1.38416e-06
-0.000227357
1.00525e-06
-0.000228061
7.03972e-07
-0.000228533
4.7216e-07
-0.00022883
2.96584e-07
-0.00022899
1.59701e-07
-0.000229017
2.69867e-08
-0.000228885
-1.31566e-07
-0.00022857
-3.15294e-07
-0.000228055
-5.15029e-07
-0.000227316
-7.39245e-07
-0.000226313
-1.00231e-06
-0.000225019
-1.29386e-06
-0.000223403
-1.61607e-06
-0.000221422
-1.98139e-06
-0.000219037
-2.3849e-06
-0.00021624
-2.79688e-06
-0.00021304
-3.20062e-06
-0.000209431
-3.60883e-06
-0.000205397
-4.03339e-06
-0.000200927
-4.4705e-06
-0.000196
-4.92677e-06
-0.000190574
-5.42654e-06
-0.000184602
-5.97185e-06
-0.000178086
-6.51531e-06
-0.000171092
-6.99405e-06
-0.000163707
-7.38528e-06
-0.000155989
-7.71833e-06
-0.000147949
-8.03988e-06
-0.00013957
-8.37834e-06
-0.000130836
-8.73482e-06
-0.000121745
-9.09096e-06
-0.000112325
-9.41947e-06
-0.000102628
-9.69756e-06
-9.2705e-05
-9.92248e-06
-8.25923e-05
-1.01128e-05
-7.23069e-05
-1.02854e-05
-6.18778e-05
-1.0429e-05
-5.13734e-05
-1.05044e-05
-4.0908e-05
-1.04655e-05
-3.06297e-05
-1.02782e-05
-2.07089e-05
-9.92078e-06
-1.13404e-05
-9.36852e-06
-2.74763e-06
-8.59287e-06
4.84514e-06
-7.59279e-06
1.12634e-05
-6.4183e-06
1.64117e-05
-5.14838e-06
2.02581e-05
-3.84644e-06
2.27868e-05
-2.5287e-06
2.39673e-05
-1.18051e-06
2.37696e-05
1.97758e-07
2.21822e-05
1.58739e-06
1.92194e-05
2.96297e-06
1.49362e-05
4.28314e-06
9.50838e-06
5.42777e-06
3.55616e-06
5.95219e-06
3.55597e-06
5.62493e-06
-8.34781e-06
1.13635e-05
-8.50111e-06
1.02443e-05
3.58929e-06
2.56753e-06
1.42816e-05
-9.95109e-06
2.19367e-05
-2.61006e-05
2.72668e-05
-4.47426e-05
3.05887e-05
-6.49992e-05
3.23584e-05
-8.60973e-05
3.28537e-05
-0.000107482
3.24103e-05
-0.000128702
3.11633e-05
-0.000149352
2.93133e-05
-0.000169241
2.71565e-05
-0.000188223
2.48965e-05
-0.000206288
2.27584e-05
-0.00022352
2.08619e-05
-0.000240096
1.93821e-05
-0.000256168
1.83358e-05
-0.000271985
1.78432e-05
-0.000287753
1.78701e-05
-0.000303636
1.83204e-05
-0.000319807
1.90709e-05
-0.00033635
2.00246e-05
-0.000353262
2.10326e-05
-0.00037052
2.19903e-05
-0.000388059
2.28257e-05
-0.000405747
2.34304e-05
-0.000423433
2.37188e-05
-0.00044098
2.37065e-05
-0.000458267
2.34587e-05
-0.000475177
2.30214e-05
-0.000491615
2.24384e-05
-0.000507502
2.17435e-05
-0.000522748
2.09289e-05
-0.000537251
1.99622e-05
-0.000550925
1.88279e-05
-0.000563695
1.75424e-05
-0.000575488
1.6134e-05
-0.000586243
1.4631e-05
-0.00059592
1.30552e-05
-0.000604501
1.14318e-05
-0.000611986
9.80935e-06
-0.000618397
8.2414e-06
-0.000623774
6.761e-06
-0.000628164
5.39565e-06
-0.000631632
4.17178e-06
-0.000634248
3.08758e-06
-0.000636059
2.10779e-06
-0.000637086
1.18654e-06
-0.000637338
2.79346e-07
-0.000636816
-6.53996e-07
-0.000635492
-1.63842e-06
-0.000633328
-2.67923e-06
-0.000630297
-3.77069e-06
-0.000626379
-4.92031e-06
-0.000621536
-6.13677e-06
-0.000615723
-7.42902e-06
-0.00060891
-8.79445e-06
-0.00060108
-1.02149e-05
-0.000592212
-1.16643e-05
-0.000582289
-1.31234e-05
-0.000571313
-1.45853e-05
-0.000559295
-1.60515e-05
-0.000546235
-1.75307e-05
-0.000532122
-1.9039e-05
-0.000516963
-2.0586e-05
-0.000500783
-2.21515e-05
-0.000483621
-2.3678e-05
-0.000465519
-2.50954e-05
-0.000446541
-2.63634e-05
-0.000426761
-2.74982e-05
-0.000406241
-2.85594e-05
-0.000385017
-2.96026e-05
-0.000363116
-3.06359e-05
-0.00034059
-3.16168e-05
-0.000317521
-3.24885e-05
-0.000294
-3.32184e-05
-0.000270114
-3.38085e-05
-0.000245951
-3.4276e-05
-0.000221612
-3.46236e-05
-0.000197224
-3.48174e-05
-0.000172943
-3.47854e-05
-0.000148969
-3.44393e-05
-0.000125547
-3.37008e-05
-0.000102952
-3.25152e-05
-8.14798e-05
-3.0841e-05
-6.14272e-05
-2.86455e-05
-4.3084e-05
-2.5936e-05
-2.67122e-05
-2.27901e-05
-1.25295e-05
-1.93309e-05
-7.04778e-07
-1.56711e-05
8.63782e-06
-1.18713e-05
1.54118e-05
-7.95452e-06
1.95699e-05
-3.96026e-06
2.11174e-05
3.98229e-08
2.01281e-05
3.95225e-06
1.67771e-05
7.63426e-06
1.13974e-05
1.08077e-05
4.72706e-06
1.26227e-05
8.28304e-06
8.43455e-06
-1.67823e-05
1.69981e-05
-1.70645e-05
1.83171e-05
2.27037e-06
1.28549e-05
1.9744e-05
1.86526e-06
3.29261e-05
-1.36135e-05
4.27456e-05
-3.28963e-05
4.98715e-05
-5.52793e-05
5.47412e-05
-8.02346e-05
5.7809e-05
-0.000107205
5.9381e-05
-0.0001358
5.9758e-05
-0.000165679
5.91926e-05
-0.000196512
5.79888e-05
-0.000227992
5.63768e-05
-0.000259923
5.46894e-05
-0.000292115
5.30533e-05
-0.000324393
5.16605e-05
-0.000356723
5.06659e-05
-0.000388969
5.00894e-05
-0.000421082
4.99833e-05
-0.000453014
5.02518e-05
-0.000484713
5.07698e-05
-0.000516116
5.14278e-05
-0.000547171
5.20878e-05
-0.000577819
5.26387e-05
-0.000607979
5.29855e-05
-0.000637572
5.30236e-05
-0.000666541
5.26879e-05
-0.000694813
5.19784e-05
-0.000722296
5.09415e-05
-0.000748905
4.96305e-05
-0.000774555
4.80885e-05
-0.000799157
4.63452e-05
-0.000822625
4.43965e-05
-0.000844882
4.22194e-05
-0.000865866
3.98116e-05
-0.000885521
3.71972e-05
-0.000903797
3.441e-05
-0.000920648
3.14823e-05
-0.00093604
2.84473e-05
-0.000949957
2.53485e-05
-0.000962388
2.22403e-05
-0.000973319
1.91719e-05
-0.000982745
1.61876e-05
-0.000990678
1.33287e-05
-0.00099712
1.06137e-05
-0.00100207
8.03306e-06
-0.00100552
5.5643e-06
-0.0010075
3.16587e-06
-0.001008
7.75756e-07
-0.001007
-1.65145e-06
-0.00100451
-4.12853e-06
-0.00100053
-6.66235e-06
-0.000995028
-9.2705e-06
-0.000987992
-1.19554e-05
-0.00097942
-1.4709e-05
-0.000969313
-1.75362e-05
-0.000957663
-2.04443e-05
-0.000944464
-2.34144e-05
-0.000929719
-2.64095e-05
-0.000913436
-2.9406e-05
-0.000895624
-3.23971e-05
-0.000876301
-3.53751e-05
-0.000855499
-3.83323e-05
-0.000833267
-4.12713e-05
-0.000809658
-4.41953e-05
-0.000784728
-4.70808e-05
-0.000758537
-4.98691e-05
-0.00073114
-5.24923e-05
-0.000702592
-5.49118e-05
-0.000672953
-5.71371e-05
-0.000642301
-5.92111e-05
-0.000610733
-6.11704e-05
-0.000578356
-6.30126e-05
-0.000545278
-6.46955e-05
-0.000511602
-6.61641e-05
-0.000477441
-6.73801e-05
-0.00044292
-6.83287e-05
-0.000408191
-6.90051e-05
-0.000373425
-6.93901e-05
-0.000338811
-6.94313e-05
-0.000304555
-6.90418e-05
-0.000270874
-6.81197e-05
-0.000238003
-6.65721e-05
-0.000206192
-6.43264e-05
-0.000175705
-6.1328e-05
-0.000146808
-5.75424e-05
-0.000119762
-5.29821e-05
-9.48242e-05
-4.77274e-05
-7.22551e-05
-4.19001e-05
-5.23057e-05
-3.56204e-05
-3.51939e-05
-2.8983e-05
-2.10794e-05
-2.2069e-05
-1.00543e-05
-1.49853e-05
-2.13669e-06
-7.8777e-06
2.75288e-06
-9.37345e-07
4.8327e-06
5.55432e-06
4.4342e-06
1.12061e-05
2.15089e-06
1.49062e-05
1.04339e-05
9.78498e-06
-2.65674e-05
1.95361e-05
-2.68154e-05
2.09559e-05
8.50786e-07
1.49528e-05
2.57471e-05
2.9015e-06
4.49774e-05
-1.43732e-05
6.00204e-05
-3.62866e-05
7.17849e-05
-6.23501e-05
8.08048e-05
-9.2141e-05
8.75998e-05
-0.000125206
9.24463e-05
-0.000161155
9.57064e-05
-0.000199623
9.76608e-05
-0.000240185
9.85507e-05
-0.000282575
9.87668e-05
-0.000326319
9.8434e-05
-0.000371148
9.78818e-05
-0.000416705
9.72175e-05
-0.00046267
9.66312e-05
-0.000508758
9.61769e-05
-0.000554711
9.59363e-05
-0.000600309
9.58504e-05
-0.000645391
9.58511e-05
-0.000689792
9.58295e-05
-0.000733371
9.56662e-05
-0.000776015
9.52826e-05
-0.000817629
9.45996e-05
-0.000858134
9.35282e-05
-0.000897478
9.20325e-05
-0.000935624
9.01239e-05
-0.000972503
8.78213e-05
-0.00100803
8.51607e-05
-0.00104213
8.21888e-05
-0.00107473
7.89367e-05
-0.00110573
7.54043e-05
-0.0011351
7.15829e-05
-0.00116277
6.74861e-05
-0.00118872
6.31409e-05
-0.00121288
5.85768e-05
-0.00123523
5.38334e-05
-0.00125574
4.89527e-05
-0.00127437
4.39804e-05
-0.00129111
3.8976e-05
-0.00130592
3.39899e-05
-0.00131879
2.90533e-05
-0.00132966
2.42037e-05
-0.00133852
1.94737e-05
-0.00134535
1.48584e-05
-0.00135011
1.03263e-05
-0.00135279
5.84192e-06
-0.00135338
1.36595e-06
-0.00135189
-3.13856e-06
-0.00134833
-7.69364e-06
-0.00134268
-1.23101e-05
-0.00133495
-1.6995e-05
-0.00132516
-2.17474e-05
-0.00131331
-2.65641e-05
-0.0012994
-3.14443e-05
-0.00128346
-3.6381e-05
-0.00126552
-4.13537e-05
-0.00124559
-4.63372e-05
-0.00122369
-5.13085e-05
-0.00119985
-5.62426e-05
-0.00117411
-6.11151e-05
-0.00114652
-6.59146e-05
-0.00111715
-7.06406e-05
-0.00108607
-7.52807e-05
-0.00105335
-7.97957e-05
-0.00101909
-8.41307e-05
-0.00098335
-8.8235e-05
-0.000946185
-9.20769e-05
-0.000907674
-9.56486e-05
-0.000867922
-9.89632e-05
-0.000827057
-0.000102035
-0.000785216
-0.000104853
-0.000742539
-0.000107373
-0.000699167
-0.000109536
-0.000655249
-0.000111299
-0.000610947
-0.000112631
-0.000566448
-0.000113504
-0.000521967
-0.000113872
-0.000477734
-0.000113664
-0.00043399
-0.000112786
-0.00039097
-0.000111139
-0.000348914
-0.000108629
-0.000308073
-0.000105168
-0.000268711
-0.00010069
-0.000231094
-9.51592e-05
-0.000195487
-8.85882e-05
-0.000162165
-8.10502e-05
-0.000131415
-7.26498e-05
-0.000103536
-6.34995e-05
-7.8798e-05
-5.37208e-05
-5.74157e-05
-4.34513e-05
-3.95301e-05
-3.28709e-05
-2.51984e-05
-2.22093e-05
-1.43643e-05
-1.17714e-05
-6.83008e-06
-1.97986e-06
-2.27777e-06
6.65361e-06
-2.49139e-07
1.28777e-05
1.01847e-05
1.01176e-05
-3.66851e-05
1.92738e-05
-3.59715e-05
1.89919e-05
1.13253e-06
1.04724e-05
3.42666e-05
-4.73426e-06
6.01839e-05
-2.57521e-05
8.10383e-05
-5.20313e-05
9.80641e-05
-8.31876e-05
0.000111961
-0.000118752
0.000123165
-0.000158443
0.000132137
-0.000201804
0.000139067
-0.000248442
0.000144299
-0.000297957
0.000148066
-0.000349858
0.000150668
-0.000403757
0.000152332
-0.00045919
0.000153315
-0.000515755
0.000153783
-0.000573012
0.000153888
-0.000630582
0.000153747
-0.000688067
0.000153421
-0.00074515
0.000152933
-0.000801557
0.000152258
-0.000857059
0.000151331
-0.000911482
0.000150089
-0.000964666
0.000148466
-0.00101647
0.0001464
-0.00106679
0.000143854
-0.00111557
0.000140814
-0.00116274
0.000137288
-0.00120821
0.000133297
-0.00125193
0.000128881
-0.00129382
0.000124078
-0.0013338
0.000118912
-0.00137178
0.000113392
-0.00140773
0.000107528
-0.00144159
0.000101345
-0.00147333
9.48789e-05
-0.0015029
8.81525e-05
-0.00153027
8.12007e-05
-0.0015554
7.40774e-05
-0.00157825
6.68363e-05
-0.0015988
5.95248e-05
-0.00161699
5.21841e-05
-0.00163279
4.48532e-05
-0.00164616
3.75721e-05
-0.00165705
3.0364e-05
-0.00166542
2.32243e-05
-0.00167123
1.61378e-05
-0.00167447
9.0811e-06
-0.00167512
2.01959e-06
-0.00167319
-5.07218e-06
-0.00166868
-1.22025e-05
-0.00166161
-1.9383e-05
-0.00165198
-2.66267e-05
-0.0016398
-3.39257e-05
-0.0016251
-4.12615e-05
-0.00160792
-4.86295e-05
-0.00158827
-5.60276e-05
-0.00156619
-6.34341e-05
-0.00154171
-7.08143e-05
-0.00151488
-7.81385e-05
-0.00148574
-8.53803e-05
-0.00145435
-9.25109e-05
-0.00142075
-9.95074e-05
-0.00138504
-0.000106355
-0.00134729
-0.000113031
-0.0013076
-0.00011949
-0.00126604
-0.000125681
-0.00122272
-0.000131557
-0.00117771
-0.000137086
-0.00113111
-0.000142248
-0.00108304
-0.000147033
-0.00103365
-0.000151431
-0.000983086
-0.000155415
-0.000931522
-0.000158937
-0.000879122
-0.000161936
-0.000826066
-0.000164355
-0.000772551
-0.000166146
-0.000718799
-0.000167256
-0.000665051
-0.000167619
-0.000611564
-0.000167151
-0.000558601
-0.000165749
-0.000506426
-0.000163314
-0.000455308
-0.000159747
-0.000405522
-0.000154953
-0.000357355
-0.000148858
-0.000311095
-0.000141419
-0.000267036
-0.000132646
-0.000225486
-0.000122601
-0.000186766
-0.00011137
-0.000151204
-9.90611e-05
-0.000119108
-8.58168e-05
-9.0735e-05
-7.18247e-05
-6.62786e-05
-5.73274e-05
-4.58453e-05
-4.26426e-05
-2.94214e-05
-2.81953e-05
-1.68622e-05
-1.4539e-05
-7.89742e-06
-2.31126e-06
-2.20221e-06
7.18238e-06
7.98246e-06
9.53839e-06
-4.62235e-05
1.70748e-05
-4.3508e-05
1.40379e-05
4.16959e-06
2.06311e-06
4.62415e-05
-1.72119e-05
7.94588e-05
-4.28291e-05
0.000106656
-7.42281e-05
0.000129463
-0.00011097
0.000148703
-0.000152739
0.000164934
-0.000199071
0.000178469
-0.000249638
0.000189634
-0.000303952
0.000198614
-0.000361616
0.000205729
-0.000422084
0.000211135
-0.000484919
0.000215168
-0.000549562
0.000217958
-0.000615573
0.000219794
-0.000682466
0.000220781
-0.000749795
0.000221076
-0.00081712
0.000220746
-0.000884059
0.000219872
-0.000950272
0.000218471
-0.00101546
0.000216524
-0.0010794
0.000214029
-0.0011419
0.000210961
-0.00120279
0.000207287
-0.00126193
0.000203002
-0.00131924
0.000198119
-0.0013746
0.000192653
-0.00142794
0.000186634
-0.00147917
0.000180109
-0.00152821
0.000173119
-0.00157498
0.000165684
-0.00161941
0.000157819
-0.00166144
0.000149555
-0.00170102
0.000140928
-0.0017381
0.000131964
-0.00177265
0.000122694
-0.00180461
0.000113165
-0.00183396
0.000103428
-0.00186065
9.35243e-05
-0.00188463
8.35039e-05
-0.00190585
7.34097e-05
-0.00192428
6.32765e-05
-0.00193985
5.31445e-05
-0.00195252
4.30402e-05
-0.00196226
3.29577e-05
-0.00196901
2.28872e-05
-0.00197275
1.28253e-05
-0.00197349
2.75455e-06
-0.00197121
-7.34725e-06
-0.00196593
-1.74867e-05
-0.00195764
-2.76656e-05
-0.00194639
-3.78862e-05
-0.00193217
-4.81363e-05
-0.00191504
-5.83964e-05
-0.00189501
-6.86575e-05
-0.00187213
-7.89111e-05
-0.00184643
-8.91284e-05
-0.00181798
-9.92704e-05
-0.00178681
-0.000109306
-0.00175299
-0.000119204
-0.00171657
-0.000128929
-0.00167763
-0.000138448
-0.00163625
-0.000147737
-0.00159252
-0.000156763
-0.00154653
-0.000165475
-0.0014984
-0.000173816
-0.00144821
-0.000181744
-0.00139607
-0.000189224
-0.0013421
-0.000196223
-0.00128642
-0.000202707
-0.00122921
-0.000208644
-0.00117063
-0.000213994
-0.00111087
-0.0002187
-0.00105011
-0.000222694
-0.000988563
-0.000225901
-0.000926456
-0.000228253
-0.000864033
-0.00022968
-0.000801554
-0.000230098
-0.0007393
-0.000229405
-0.000677558
-0.000227491
-0.000616626
-0.000224246
-0.000556804
-0.000219569
-0.000498397
-0.00021336
-0.000441721
-0.000205534
-0.000387096
-0.000196043
-0.000334856
-0.000184887
-0.000285348
-0.000172108
-0.000238931
-0.000157787
-0.000195961
-0.000142031
-0.000156777
-0.000125001
-0.000121683
-0.00010692
-9.0925e-05
-8.80848e-05
-6.4671e-05
-6.88967e-05
-4.29664e-05
-4.98998e-05
-2.5739e-05
-3.17664e-05
-1.27782e-05
-1.5272e-05
-3.85767e-06
-1.7382e-06
4.12484e-06
8.33097e-06
-5.45542e-05
1.33805e-05
-4.85577e-05
7.18292e-06
1.03672e-05
-8.5851e-06
6.20096e-05
-3.22132e-05
0.000103087
-6.26836e-05
0.000137126
-9.93795e-05
0.000166159
-0.000141863
0.000191186
-0.000189701
0.000212773
-0.000242532
0.0002313
-0.0002999
0.000247002
-0.000361378
0.000260091
-0.00042647
0.000270821
-0.00049468
0.000279345
-0.000565455
0.000285944
-0.000638293
0.000290795
-0.000712626
0.000294127
-0.000787958
0.000296113
-0.000863798
0.000296915
-0.000939707
0.000296655
-0.00101525
0.000295415
-0.00109004
0.000293264
-0.00116377
0.000290256
-0.00123616
0.000286416
-0.00130696
0.000281756
-0.00137597
0.000276302
-0.00144305
0.000270085
-0.00150806
0.000263125
-0.00157086
0.000255456
-0.00163137
0.000247136
-0.00168947
0.000238211
-0.00174507
0.000228717
-0.00179807
0.000218692
-0.00184843
0.000208175
-0.00189607
0.000197193
-0.00194092
0.000185781
-0.00198293
0.000173978
-0.00202206
0.000161821
-0.00205826
0.000149363
-0.00209148
0.000136651
-0.00212168
0.000123721
-0.0021488
0.000110622
-0.00217279
9.74005e-05
-0.00219361
8.40936e-05
-0.0022112
7.07356e-05
-0.00222551
5.73524e-05
-0.0022365
4.39467e-05
-0.00224413
3.05212e-05
-0.00224839
1.70831e-05
-0.00224926
3.62344e-06
-0.00224673
-9.87075e-06
-0.00224083
-2.33954e-05
-0.00223155
-3.69438e-05
-0.00221892
-5.05128e-05
-0.00220297
-6.40852e-05
-0.00218373
-7.76347e-05
-0.00216124
-9.11472e-05
-0.00213555
-0.00010461
-0.00210669
-0.000117987
-0.00207473
-0.000131231
-0.00203973
-0.000144306
-0.00200175
-0.000157183
-0.00196086
-0.000169819
-0.00191713
-0.000182173
-0.00187066
-0.000194206
-0.00182155
-0.000205878
-0.00176989
-0.000217133
-0.0017158
-0.00022791
-0.00165938
-0.00023816
-0.00160076
-0.000247844
-0.00154007
-0.000256916
-0.00147745
-0.000265323
-0.00141308
-0.000273013
-0.00134714
-0.00027993
-0.00127984
-0.000286008
-0.00121137
-0.00029116
-0.00114197
-0.000295297
-0.0010719
-0.000298331
-0.0010014
-0.000300176
-0.000930766
-0.00030073
-0.000860295
-0.000299876
-0.000790299
-0.000297488
-0.000721102
-0.000293443
-0.000653038
-0.000287633
-0.000586442
-0.000279955
-0.000521663
-0.000270313
-0.000459058
-0.000258649
-0.000399
-0.000244945
-0.000341876
-0.000229232
-0.000288084
-0.000211579
-0.000238014
-0.000192101
-0.000192042
-0.000170973
-0.000150517
-0.000148445
-0.000113743
-0.000124859
-8.19456e-05
-0.000100694
-5.52448e-05
-7.66006e-05
-3.3654e-05
-5.33572e-05
-1.7029e-05
-3.1897e-05
-5.24963e-06
-1.35176e-05
-1.12482e-06
6.62545e-06
-6.11797e-05
8.68685e-06
-5.06192e-05
-9.35084e-07
1.99891e-05
-2.05777e-05
8.16524e-05
-4.84549e-05
0.000130964
-8.36755e-05
0.000172347
-0.000125497
0.00020798
-0.000173481
0.00023917
-0.000227177
0.000266469
-0.000286145
0.000290268
-0.000349917
0.000310774
-0.000418036
0.000328211
-0.00048992
0.000342705
-0.00056514
0.000354565
-0.000643075
0.000363879
-0.000723209
0.000370928
-0.000804958
0.000375877
-0.00088781
0.000378965
-0.000971228
0.000380333
-0.00105474
0.000380166
-0.00113791
0.000378585
-0.00122033
0.000375688
-0.00130165
0.000371577
-0.00138156
0.000366326
-0.0014598
0.000359994
-0.00153613
0.000352634
-0.00161036
0.000344311
-0.00168232
0.00033509
-0.00175189
0.00032502
-0.00181891
0.000314159
-0.00188327
0.000302575
-0.00194488
0.000290321
-0.00200363
0.00027744
-0.00205943
0.000263979
-0.00211222
0.000249978
-0.00216192
0.000235483
-0.00220848
0.000220537
-0.00225184
0.000205179
-0.00229194
0.000189464
-0.00232873
0.000173442
-0.00236216
0.00015715
-0.00239217
0.000140636
-0.00241872
0.000123948
-0.00244175
0.000107123
-0.00246121
9.01961e-05
-0.00247705
7.31956e-05
-0.00248924
5.61303e-05
-0.00249773
3.90135e-05
-0.00250251
2.18642e-05
-0.00250357
4.68111e-06
-0.0025009
-1.25419e-05
-0.0024945
-2.97891e-05
-0.0024844
-4.70413e-05
-0.00247063
-6.42898e-05
-0.0024532
-8.15153e-05
-0.00243215
-9.86856e-05
-0.00240752
-0.000115778
-0.00237935
-0.000132771
-0.00234772
-0.000149624
-0.00231266
-0.000166283
-0.00227426
-0.000182708
-0.00223258
-0.000198867
-0.00218769
-0.000214712
-0.00213967
-0.000230189
-0.00208863
-0.00024525
-0.00203466
-0.000259848
-0.00197787
-0.000273922
-0.00191838
-0.000287402
-0.0018563
-0.000300232
-0.00179179
-0.000312361
-0.00172497
-0.000323735
-0.00165601
-0.000334284
-0.00158509
-0.000343934
-0.0015124
-0.000352615
-0.00143817
-0.000360244
-0.0013626
-0.000366721
-0.00128596
-0.000371937
-0.00120851
-0.000375784
-0.00113053
-0.000378158
-0.00105232
-0.000378944
-0.000974189
-0.000378004
-0.000896483
-0.000375194
-0.000819546
-0.00037038
-0.00074374
-0.000363439
-0.000669437
-0.000354258
-0.000597014
-0.000342735
-0.000526867
-0.000328796
-0.000459404
-0.000312408
-0.000395054
-0.000293581
-0.000334252
-0.000272381
-0.000277423
-0.00024893
-0.000224984
-0.000223412
-0.000177333
-0.000196096
-0.000134831
-0.000167361
-9.77688e-05
-0.000137756
-6.63566e-05
-0.000108013
-4.06967e-05
-7.9017e-05
-2.07185e-05
-5.18753e-05
-6.41031e-06
-2.78257e-05
-7.53517e-06
4.51805e-06
-6.56977e-05
3.18787e-06
-4.9289e-05
-9.83857e-06
3.30154e-05
-3.31304e-05
0.000104944
-6.51347e-05
0.000162968
-0.000104782
0.000211995
-0.000151471
0.000254669
-0.000204621
0.00029232
-0.000263779
0.000325626
-0.00032845
0.000354939
-0.000398155
0.000380479
-0.000472377
0.000402432
-0.00055058
0.000420908
-0.000632161
0.000436146
-0.000716605
0.000448323
-0.000803325
0.000457649
-0.000891754
0.000464305
-0.00098133
0.000468541
-0.00107155
0.000470554
-0.0011619
0.000470513
-0.0012519
0.000468583
-0.00134115
0.000464944
-0.0014293
0.000459723
-0.00151598
0.000453005
-0.00160089
0.000444909
-0.00168381
0.000435556
-0.00176452
0.00042502
-0.0018428
0.000413371
-0.00191849
0.000400704
-0.00199144
0.000387115
-0.00206154
0.00037267
-0.00212864
0.000357422
-0.00219264
0.000341436
-0.00225344
0.00032478
-0.00231097
0.000307505
-0.00236514
0.000289654
-0.00241588
0.000271278
-0.00246313
0.000252429
-0.00250683
0.000233164
-0.00254692
0.000213532
-0.00258334
0.00019357
-0.00261603
0.000173331
-0.00264495
0.00015287
-0.00267005
0.000132217
-0.00269126
0.00011141
-0.00270855
9.04832e-05
-0.00272188
6.94558e-05
-0.00273121
4.83475e-05
-0.00273653
2.71846e-05
-0.00273782
5.9741e-06
-0.00273509
-1.52797e-05
-0.00272833
-3.65489e-05
-0.00271756
-5.78049e-05
-0.00270282
-7.9035e-05
-0.00268412
-0.000100216
-0.00266149
-0.000121308
-0.002635
-0.000142276
-0.00260467
-0.000163094
-0.00257058
-0.000183715
-0.00253279
-0.000204078
-0.00249136
-0.00022414
-0.00244636
-0.000243863
-0.00239788
-0.000263194
-0.002346
-0.000282065
-0.00229083
-0.000300421
-0.00223247
-0.000318209
-0.00217103
-0.00033536
-0.00210664
-0.000351795
-0.00203942
-0.000367444
-0.00196954
-0.000382251
-0.00189712
-0.000396148
-0.00182236
-0.000409048
-0.00174543
-0.000420859
-0.00166656
-0.000431491
-0.00158595
-0.000440848
-0.00150386
-0.000448812
-0.00142054
-0.000455256
-0.00133627
-0.000460051
-0.00125136
-0.000463073
-0.00116611
-0.000464189
-0.00108087
-0.000463244
-0.00099599
-0.000460078
-0.000911835
-0.000454535
-0.000828799
-0.000446475
-0.000747281
-0.000435776
-0.000667691
-0.000422325
-0.000590458
-0.00040603
-0.000516026
-0.000386839
-0.000444859
-0.000364748
-0.000377426
-0.000339815
-0.000314191
-0.000312165
-0.000255615
-0.000281987
-0.00020215
-0.000249561
-0.00015422
-0.000215292
-0.000112192
-0.000179783
-7.63684e-05
-0.000143837
-4.6943e-05
-0.000108443
-2.39185e-05
-7.48996e-05
-7.38599e-06
-4.43583e-05
-1.49211e-05
2.13846e-06
-6.78361e-05
-2.75623e-06
-4.43941e-05
-1.91984e-05
4.94575e-05
-4.5945e-05
0.000131691
-8.1655e-05
0.000198678
-0.000125445
0.000255785
-0.000176594
0.000305817
-0.000234537
0.000350263
-0.000298759
0.000389848
-0.000368734
0.000424914
-0.000443928
0.000455674
-0.000523745
0.00048225
-0.000607717
0.000504879
-0.000695179
0.000523608
-0.000785563
0.000538708
-0.000878267
0.000550353
-0.000972772
0.00055881
-0.00106847
0.000564244
-0.00116482
0.000566897
-0.00126132
0.000567013
-0.00135753
0.00056479
-0.00145298
0.000560395
-0.00154725
0.000554
-0.00164004
0.000545788
-0.00173103
0.000535904
-0.00181993
0.000524459
-0.00190649
0.000511572
-0.00199049
0.000497377
-0.00207178
0.000481989
-0.00215016
0.000465496
-0.00222547
0.000447983
-0.00229759
0.00042954
-0.0023664
0.000410251
-0.0024318
0.000390181
-0.00249368
0.000369385
-0.00255196
0.000347927
-0.00260655
0.000325873
-0.0026574
0.000303275
-0.00270442
0.000280189
-0.00274756
0.000256669
-0.00278675
0.00023276
-0.00282194
0.00020852
-0.00285307
0.000184002
-0.0028801
0.000159239
-0.00290296
0.000134271
-0.00292162
0.000109143
-0.00293604
8.38784e-05
-0.00294619
5.85022e-05
-0.00295206
3.305e-05
-0.00295362
7.53982e-06
-0.00295089
-1.80156e-05
-0.00294386
-4.35797e-05
-0.00293255
-6.91146e-05
-0.00291698
-9.46014e-05
-0.00289719
-0.000120012
-0.0028732
-0.000145297
-0.00284506
-0.000170412
-0.00281283
-0.000195325
-0.00277656
-0.000219984
-0.00273632
-0.000244321
-0.00269217
-0.000268284
-0.0026442
-0.000291833
-0.00259249
-0.000314907
-0.00253713
-0.00033743
-0.00247822
-0.000359332
-0.00241587
-0.000380555
-0.00235021
-0.000401024
-0.00228135
-0.000420648
-0.00220945
-0.000439345
-0.00213466
-0.000457047
-0.00205713
-0.000473678
-0.00197704
-0.000489132
-0.00189461
-0.000503296
-0.00181004
-0.00051606
-0.00172357
-0.000527312
-0.00163546
-0.000536922
-0.00154598
-0.000544741
-0.00145541
-0.000550617
-0.00136408
-0.000554405
-0.00127231
-0.000555954
-0.00118047
-0.00055509
-0.00108892
-0.000551632
-0.000998044
-0.000545406
-0.000908266
-0.000536252
-0.00082001
-0.000524032
-0.000733715
-0.00050862
-0.000649838
-0.000489907
-0.00056886
-0.000467818
-0.000491275
-0.000442332
-0.000417588
-0.000413502
-0.000348306
-0.000381447
-0.000283937
-0.000346356
-0.000224993
-0.000308505
-0.000171958
-0.000268326
-0.000125282
-0.000226459
-8.53562e-05
-0.000183763
-5.24629e-05
-0.000141336
-2.66853e-05
-0.000100677
-8.20704e-06
-6.28365e-05
-2.31281e-05
-4.35195e-07
-6.74011e-05
-8.98612e-06
-3.5843e-05
-2.86806e-05
6.9152e-05
-5.86226e-05
0.000161633
-9.77653e-05
0.000237821
-0.000145283
0.000303303
-0.000200541
0.000361075
-0.000262913
0.000412635
-0.000331803
0.000458739
-0.000406639
0.00049975
-0.000486883
0.000535918
-0.000571957
0.000567323
-0.000661183
0.000594105
-0.000754023
0.000616449
-0.000849882
0.000634567
-0.00094814
0.000648611
-0.00104817
0.000658834
-0.00114943
0.000665505
-0.00125141
0.000668879
-0.00135356
0.00066916
-0.00145536
0.000666598
-0.00155641
0.000661444
-0.00165631
0.000653903
-0.00175468
0.000644155
-0.00185117
0.000632387
-0.00194548
0.000618776
-0.00203739
0.000603476
-0.00212664
0.000586628
-0.00221301
0.000568366
-0.00229633
0.000548812
-0.00237643
0.000528081
-0.00245316
0.000506275
-0.0025264
0.000483484
-0.00259601
0.000459791
-0.00266189
0.000435268
-0.00272395
0.000409988
-0.0027821
0.000384025
-0.00283626
0.000357436
-0.00288636
0.000330284
-0.00293232
0.000302631
-0.00297409
0.000274525
-0.00301159
0.000246028
-0.00304479
0.000217196
-0.00307362
0.000188067
-0.00309803
0.000158686
-0.00311799
0.000129103
-0.00313346
9.93484e-05
-0.00314441
6.94536e-05
-0.00315082
3.9463e-05
-0.00315269
9.40467e-06
-0.00315
-2.07011e-05
-0.00314277
-5.08099e-05
-0.00313101
-8.08744e-05
-0.00311475
-0.000110868
-0.003094
-0.000140757
-0.00306881
-0.000170485
-0.00303923
-0.000199998
-0.0030053
-0.000229255
-0.00296708
-0.0002582
-0.00292464
-0.000286759
-0.00287806
-0.00031487
-0.0028274
-0.000342488
-0.00277276
-0.000369547
-0.00271423
-0.000395958
-0.00265192
-0.000421641
-0.00258595
-0.000446529
-0.00251643
-0.000470542
-0.0024435
-0.000493577
-0.00236731
-0.000515538
-0.00228801
-0.000536344
-0.00220578
-0.000555906
-0.00212081
-0.000574104
-0.0020333
-0.000590804
-0.00194349
-0.000605874
-0.00185162
-0.000619184
-0.00175795
-0.00063059
-0.00166277
-0.000639926
-0.00156637
-0.000647016
-0.00146908
-0.000651688
-0.00137127
-0.000653769
-0.00127329
-0.000653072
-0.00117552
-0.000649394
-0.00107839
-0.000642537
-0.000982324
-0.000632321
-0.000887768
-0.000618588
-0.000795192
-0.000601196
-0.000705085
-0.000580014
-0.000617958
-0.000554945
-0.00053434
-0.000525951
-0.000454771
-0.000493071
-0.000379802
-0.000456415
-0.000309998
-0.000416161
-0.000245921
-0.000372582
-0.000188121
-0.000326126
-0.00013712
-0.000277461
-9.33942e-05
-0.000227488
-5.73151e-05
-0.000177415
-2.90532e-05
-0.000128939
-8.88186e-06
-8.30078e-05
-3.201e-05
-3.03321e-06
-6.43679e-05
-1.52314e-05
-2.36447e-05
-3.79967e-05
9.19175e-05
-7.08737e-05
0.00019451
-0.000113151
0.000280098
-0.00016414
0.000354292
-0.000223147
0.000420082
-0.000289532
0.00047902
-0.000362747
0.000531953
-0.000442165
0.000579168
-0.000527069
0.000620822
-0.000616918
0.000657173
-0.000711089
0.000688276
-0.000808966
0.000714326
-0.000909831
0.000735431
-0.00101314
0.000751924
-0.00111833
0.000764019
-0.00122477
0.000771947
-0.00133188
0.000775986
-0.00143916
0.000776445
-0.00154616
0.000773595
-0.00165238
0.000767667
-0.00175739
0.000758916
-0.00186083
0.000747594
-0.00196237
0.00073392
-0.00206167
0.00071808
-0.00215846
0.000700262
-0.00225248
0.000680652
-0.00234352
0.00065941
-0.00243139
0.000636673
-0.00251588
0.000612575
-0.00259685
0.00058724
-0.00267414
0.000560778
-0.00274763
0.000533285
-0.00281721
0.000504843
-0.00288276
0.000475539
-0.00294419
0.000445458
-0.00300142
0.000414664
-0.00305436
0.000383226
-0.00310294
0.000351213
-0.0031471
0.000318679
-0.00318676
0.000285694
-0.00322189
0.000252318
-0.00325241
0.00021859
-0.00327828
0.000184561
-0.00329947
0.000150291
-0.00331594
0.000115818
-0.00332766
8.11759e-05
-0.00333462
4.64179e-05
-0.0033368
1.15818e-05
-0.00333419
-2.33032e-05
-0.00332682
-5.81851e-05
-0.00331469
-9.30077e-05
-0.00329782
-0.000127738
-0.00327624
-0.000162337
-0.00324998
-0.000196738
-0.0032191
-0.000230879
-0.00318365
-0.00026471
-0.00314368
-0.000298171
-0.00309925
-0.000331182
-0.00305045
-0.000363671
-0.00299736
-0.000395585
-0.00294005
-0.000426852
-0.00287864
-0.000457374
-0.00281322
-0.000487058
-0.00274392
-0.000515828
-0.00267087
-0.000543596
-0.00259419
-0.00057025
-0.00251405
-0.000595678
-0.00243061
-0.000619784
-0.00234405
-0.000642465
-0.00225457
-0.000663588
-0.00216238
-0.000682996
-0.00206772
-0.000700535
-0.00197084
-0.00071606
-0.00187202
-0.00072941
-0.00177155
-0.000740402
-0.00166973
-0.000748833
-0.00156691
-0.000754505
-0.00146346
-0.000757222
-0.00135975
-0.000756779
-0.00125619
-0.000752952
-0.00115321
-0.000745522
-0.00105125
-0.000734282
-0.000950788
-0.000719049
-0.000852321
-0.000699663
-0.000756367
-0.000675968
-0.000663469
-0.000647843
-0.000574186
-0.000615233
-0.000489097