/*--------------------------------*- C++ -*----------------------------------*\
  =========                 |
  \\      /  F ield         | OpenFOAM: The Open Source CFD Toolbox
   \\    /   O peration     | Website:  https://openfoam.org
    \\  /    A nd           | Version:  11
     \\/     M anipulation  |
\*---------------------------------------------------------------------------*/
FoamFile
{
    format      ascii;
    class       volScalarField;
    location    "1.6";
    object      p;
}
// * * * * * * * * * * * * * * * * * * * * * * * * * * * * * * * * * * * * * //

dimensions      [0 2 -2 0 0 0 0];

internalField   nonuniform List<scalar> 
10100
(
-2.68238e-08
-0.000125036
-0.00101219
-0.00340433
-0.00675943
-0.0105426
-0.0144807
-0.018389
-0.0221701
-0.0257506
-0.0290924
-0.0321657
-0.034945
-0.0374207
-0.0395872
-0.0414334
-0.0429472
-0.0441525
-0.045065
-0.0456933
-0.0460532
-0.0461531
-0.0460014
-0.0456187
-0.0450345
-0.0442723
-0.0433427
-0.0422478
-0.0409912
-0.039579
-0.0380185
-0.0363183
-0.0344898
-0.0325452
-0.0304905
-0.0283287
-0.0260686
-0.0237244
-0.021309
-0.0188266
-0.016274
-0.0136531
-0.0109739
-0.00824566
-0.00547287
-0.0026576
0.000196066
0.00307857
0.00597867
0.00889015
0.0118118
0.0147437
0.0176856
0.0206353
0.0235839
0.0265167
0.029418
0.0322765
0.0350882
0.0378559
0.0405813
0.0432553
0.0458577
0.0483685
0.0507762
0.0530751
0.0552592
0.0573195
0.0592462
0.0610305
0.0626666
0.0641527
0.0654902
0.0666798
0.0677198
0.0686093
0.0693537
0.0699629
0.0704451
0.0708004
0.0710228
0.0711068
0.0710525
0.0708659
0.0705559
0.0701314
0.0695988
0.068962
0.0682247
0.067395
0.0664869
0.0655192
0.0645147
0.0635009
0.0625144
0.0616065
0.060841
0.0602991
0.0600729
0.0602157
2.13875e-05
-0.00172246
-0.00353233
-0.00612206
-0.00922421
-0.0125177
-0.0158843
-0.0192333
-0.0224791
-0.0255757
-0.0284886
-0.0311808
-0.0336317
-0.0358336
-0.0377741
-0.0394386
-0.0408285
-0.0419367
-0.0427708
-0.0433482
-0.0436803
-0.0437807
-0.0436563
-0.0433161
-0.04278
-0.0420667
-0.0411885
-0.0401551
-0.0389734
-0.0376457
-0.0361737
-0.0345643
-0.0328273
-0.0309707
-0.0290016
-0.0269273
-0.024759
-0.0225112
-0.0201917
-0.0177995
-0.015335
-0.012804
-0.0102145
-0.0075746
-0.00488914
-0.00216024
0.000605324
0.00339554
0.00620216
0.00902207
0.0118518
0.0146892
0.0175368
0.020394
0.0232502
0.0260882
0.0288917
0.0316498
0.0343601
0.037029
0.0396603
0.0422427
0.0447534
0.0471732
0.0494949
0.0517157
0.0538287
0.0558229
0.057688
0.0594173
0.0610076
0.0624578
0.0637683
0.0649377
0.0659631
0.0668442
0.0675877
0.0682054
0.0687052
0.0690854
0.0693375
0.0694558
0.0694427
0.0693079
0.0690623
0.0687136
0.0682662
0.0677235
0.0670903
0.0663766
0.0655973
0.06477
0.0639146
0.0630556
0.0622257
0.0614691
0.0608379
0.0603958
0.0602162
0.0603427
-0.000233767
-0.00295623
-0.00533181
-0.00805845
-0.0110198
-0.0140085
-0.0170084
-0.0199637
-0.0228173
-0.0255566
-0.0281349
-0.0305201
-0.0327096
-0.0346767
-0.0364149
-0.0379221
-0.0391859
-0.0402011
-0.0409686
-0.041492
-0.041788
-0.0418728
-0.0417543
-0.0414415
-0.040945
-0.0402738
-0.0394396
-0.038456
-0.0373306
-0.0360656
-0.0346624
-0.0331264
-0.0314653
-0.0296827
-0.027783
-0.02578
-0.0236888
-0.0215208
-0.01928
-0.0169628
-0.0145711
-0.0121159
-0.00960444
-0.00703855
-0.00442359
-0.00176743
0.000922304
0.00363633
0.00636664
0.00910937
0.0118618
0.0146224
0.0173941
0.0201782
0.0229637
0.0257286
0.0284528
0.0311285
0.0337599
0.0363558
0.0389173
0.0414302
0.0438715
0.0462235
0.048481
0.050643
0.0527025
0.0546471
0.0564659
0.0581539
0.0597103
0.0611346
0.0624246
0.0635766
0.0645877
0.0654602
0.0662031
0.0668283
0.0673415
0.0677386
0.0680101
0.0681515
0.0681686
0.0680741
0.0678791
0.067589
0.0672056
0.0667318
0.0661745
0.0655449
0.0648569
0.0641253
0.0633669
0.062604
0.0618673
0.0611967
0.0606357
0.060235
0.0600501
0.060109
-0.00150875
-0.00458109
-0.00715941
-0.00984621
-0.0126263
-0.0153631
-0.0180601
-0.0206896
-0.0232402
-0.0256752
-0.0279704
-0.0301124
-0.0320712
-0.0338417
-0.0354069
-0.0367603
-0.0378987
-0.0388184
-0.0395169
-0.0399931
-0.0402564
-0.0403159
-0.0401862
-0.0398833
-0.0394123
-0.0387757
-0.037983
-0.0370453
-0.035967
-0.0347494
-0.0333983
-0.0319211
-0.0303223
-0.0286017
-0.0267629
-0.0248228
-0.0228006
-0.020702
-0.0185251
-0.0162704
-0.0139443
-0.0115561
-0.00911033
-0.00660813
-0.00405498
-0.00146154
0.00116234
0.00380998
0.00647584
0.00915358
0.0118384
0.0145324
0.0172431
0.0199704
0.0226975
0.0253991
0.0280571
0.0306679
0.0332388
0.0357782
0.038285
0.0407426
0.0431279
0.0454261
0.0476347
0.0497529
0.0517718
0.0536775
0.0554605
0.0571184
0.0586517
0.060058
0.0613321
0.0624696
0.0634698
0.0643384
0.0650852
0.0657195
0.0662437
0.0666514
0.0669344
0.0670919
0.0671333
0.0670723
0.0669179
0.066672
0.0663343
0.0659088
0.0654047
0.0648341
0.0642087
0.0635388
0.0628385
0.0621296
0.0614421
0.0608128
0.0602785
0.0598787
0.0596491
0.0595991
-0.00337605
-0.00642373
-0.00898221
-0.0115303
-0.0141101
-0.0166114
-0.0190389
-0.0213944
-0.0236646
-0.0258407
-0.0279026
-0.029822
-0.0315841
-0.0331798
-0.034597
-0.0358191
-0.0368404
-0.0376627
-0.0382888
-0.038718
-0.0389481
-0.0389854
-0.0388457
-0.0385409
-0.0380767
-0.0374609
-0.0367009
-0.0358007
-0.0347612
-0.0335851
-0.0322795
-0.0308516
-0.0293022
-0.0276317
-0.0258485
-0.0239696
-0.0220094
-0.0199708
-0.0178513
-0.0156541
-0.0133896
-0.0110646
-0.00867795
-0.00623198
-0.00373773
-0.0012061
0.00135676
0.003945
0.00655063
0.00916603
0.0117884
0.0144231
0.0170793
0.0197549
0.0224286
0.025072
0.0276695
0.0302235
0.0327442
0.0352369
0.0376955
0.0401026
0.0424381
0.044691
0.0468594
0.0489407
0.050924
0.0527961
0.0545496
0.0561845
0.0577003
0.0590919
0.0603519
0.0614765
0.0624683
0.063336
0.0640892
0.0647334
0.0652664
0.0656807
0.0659713
0.0661425
0.0662065
0.0661753
0.0660544
0.0658426
0.0655393
0.0651505
0.0646881
0.0641635
0.063585
0.0629588
0.0622962
0.0616183
0.0609549
0.0603407
0.0598074
0.059384
0.0590834
0.0588977
-0.00540041
-0.00823516
-0.0106527
-0.013029
-0.0154071
-0.0176888
-0.0198881
-0.0220099
-0.0240496
-0.0260081
-0.0278714
-0.0296047
-0.0311992
-0.0326454
-0.0339332
-0.0350463
-0.0359742
-0.0367166
-0.0372733
-0.0376492
-0.0378446
-0.0378634
-0.0377151
-0.0374065
-0.0369452
-0.0363413
-0.0356007
-0.0347242
-0.0337133
-0.0325728
-0.031307
-0.0299185
-0.0284079
-0.0267785
-0.0250434
-0.0232195
-0.0213129
-0.0193231
-0.0172533
-0.0151104
-0.0129019
-0.010631
-0.00829649
-0.00590211
-0.00346104
-0.000984948
0.00152215
0.00405611
0.00660693
0.00916491
0.0117301
0.0143129
0.0169223
0.0195514
0.0221744
0.0247634
0.0273074
0.0298135
0.0322918
0.0347432
0.0371579
0.0395191
0.0418112
0.0440256
0.0461595
0.0482083
0.0501603
0.0520036
0.0537332
0.0553501
0.0568521
0.0582311
0.0594782
0.0605918
0.0615785
0.0624486
0.0632095
0.0638619
0.0644004
0.0648183
0.0651151
0.0652992
0.0653834
0.0653768
0.0652809
0.0650932
0.0648146
0.0644538
0.064024
0.0635351
0.062991
0.0623938
0.0617519
0.0610859
0.0604259
0.0598056
0.0592527
0.058787
0.0583985
0.0580638
-0.00740673
-0.00996755
-0.0122101
-0.0143953
-0.0165691
-0.0186502
-0.0206518
-0.0225754
-0.0244227
-0.0261955
-0.0278851
-0.0294691
-0.0309238
-0.0322418
-0.0334132
-0.0344304
-0.0352806
-0.035957
-0.0364583
-0.0367852
-0.0369424
-0.0369386
-0.036778
-0.0364631
-0.0360036
-0.0354083
-0.0346797
-0.0338176
-0.0328263
-0.0317127
-0.030478
-0.0291192
-0.0276385
-0.0260451
-0.0243524
-0.0225725
-0.0207086
-0.0187598
-0.0167329
-0.0146375
-0.0124776
-0.0102522
-0.0079614
-0.00561312
-0.00322021
-0.000791532
0.00166917
0.00415527
0.00665493
0.00916045
0.0116767
0.0142164
0.0167855
0.0193714
0.0219465
0.0244861
0.0269843
0.0294504
0.0318923
0.0343062
0.0366799
0.0389995
0.0412536
0.0434348
0.0455384
0.0475574
0.0494811
0.0512999
0.0530109
0.054614
0.0561043
0.0574706
0.0587051
0.05981
0.0607957
0.0616717
0.0624409
0.0630992
0.06364
0.0640599
0.0643627
0.064559
0.0646602
0.0646718
0.0645924
0.0644199
0.0641582
0.0638189
0.0634152
0.0629535
0.0624324
0.0618502
0.0612137
0.0605438
0.0598711
0.0592283
0.0586395
0.0581172
0.0576302
0.0571418
-0.0093037
-0.0116067
-0.013657
-0.0156488
-0.0176393
-0.0195388
-0.0213629
-0.023118
-0.0248077
-0.0264248
-0.0279634
-0.0294163
-0.0307569
-0.0319663
-0.0330386
-0.0339675
-0.0347463
-0.0353637
-0.0358149
-0.0361001
-0.0362261
-0.0361977
-0.0360168
-0.0356913
-0.0352315
-0.03464
-0.0339161
-0.0330639
-0.0320892
-0.030995
-0.02978
-0.0284419
-0.0269858
-0.0254238
-0.0237666
-0.0220204
-0.0201877
-0.0182731
-0.0162847
-0.0142291
-0.0121072
-0.00991838
-0.00766567
-0.00535763
-0.00300482
-0.000614561
0.00180758
0.00425184
0.00670578
0.00916555
0.0116413
0.0141462
0.0166804
0.0192258
0.0217556
0.0242511
0.0267109
0.0291441
0.0315539
0.033932
0.0362665
0.038548
0.0407688
0.0429208
0.0449958
0.0469859
0.0488831
0.0506815
0.0523782
0.0539699
0.0554481
0.0568011
0.0580238
0.059123
0.0601113
0.0609958
0.0617734
0.0624357
0.062977
0.0633984
0.0637078
0.0639159
0.0640303
0.064053
0.0639819
0.0638174
0.0635675
0.0632453
0.062862
0.0624192
0.0619102
0.0613303
0.060687
0.0600022
0.0593067
0.0586302
0.0579934
0.0574036
0.0568119
0.0561699
-0.0110746
-0.0131347
-0.0149955
-0.0168234
-0.0186395
-0.020381
-0.0220526
-0.0236658
-0.0252221
-0.0267077
-0.0281224
-0.0294584
-0.0306951
-0.0318107
-0.0328008
-0.0336547
-0.0343649
-0.0349232
-0.0353261
-0.035575
-0.0356718
-0.0356165
-0.0354152
-0.035079
-0.0346132
-0.0340174
-0.0332937
-0.0324491
-0.0314872
-0.0304056
-0.0292014
-0.0278776
-0.0264431
-0.0249073
-0.023276
-0.0215534
-0.0197447
-0.0178581
-0.0159016
-0.0138775
-0.0117845
-0.00962442
-0.00740351
-0.00512905
-0.00280764
-0.000446639
0.00194394
0.00435154
0.00676608
0.00918909
0.011634
0.0141111
0.0166137
0.0191204
0.021609
0.0240675
0.0264968
0.0289024
0.031282
0.0336255
0.0359233
0.0381707
0.0403621
0.0424866
0.0445333
0.0464952
0.0483686
0.0501502
0.0518349
0.053415
0.0548793
0.0562184
0.0574315
0.0585291
0.0595235
0.0604175
0.0612021
0.0618664
0.0624072
0.0628308
0.0631479
0.0633667
0.06349
0.0635173
0.0634479
0.0632866
0.063045
0.0627359
0.0623663
0.0619328
0.0614248
0.0608369
0.0601784
0.0594726
0.0587486
0.0580314
0.0573379
0.056673
0.0559735
0.0551812
-0.0127013
-0.0145594
-0.0162644
-0.0179277
-0.0195947
-0.0212024
-0.0227443
-0.0242326
-0.0256695
-0.0270492
-0.028361
-0.0295957
-0.0307377
-0.0317732
-0.0326892
-0.0334772
-0.0341257
-0.0346293
-0.0349864
-0.0351983
-0.0352629
-0.0351807
-0.0349609
-0.034612
-0.034135
-0.0335305
-0.0328047
-0.031964
-0.031008
-0.0299317
-0.0287337
-0.0274212
-0.0260043
-0.0244879
-0.0228729
-0.0211651
-0.0193749
-0.0175117
-0.0155794
-0.013577
-0.0115049
-0.00936806
-0.00717313
-0.00492364
-0.00262377
-0.000284207
0.00207981
0.00445585
0.00683938
0.00923667
0.0116602
0.0141144
0.0165868
0.0190575
0.0215114
0.0239419
0.0263482
0.0287295
0.03108
0.0333905
0.0356558
0.037874
0.0400385
0.0421359
0.0441543
0.0460898
0.047943
0.0497108
0.0513839
0.0529498
0.0543975
0.0557224
0.0569294
0.0580299
0.0590328
0.059935
0.0607235
0.0613875
0.0619274
0.062354
0.0626787
0.0629061
0.0630344
0.0630615
0.0629903
0.0628303
0.0625947
0.062294
0.0619299
0.0614949
0.0609776
0.0603744
0.0596962
0.0589663
0.0582107
0.0574488
0.0566935
0.0559492
0.0551421
0.0542049
-0.0141851
-0.0158834
-0.0174526
-0.0189744
-0.0205182
-0.0220139
-0.0234469
-0.0248273
-0.0261648
-0.0274514
-0.0286743
-0.0298252
-0.0308875
-0.0318502
-0.0326999
-0.0334276
-0.0340198
-0.0344738
-0.0347901
-0.0349641
-0.0349928
-0.0348837
-0.0346456
-0.0342802
-0.0337871
-0.0331724
-0.0324435
-0.0316019
-0.0306433
-0.0295652
-0.0283716
-0.0270697
-0.0256648
-0.0241576
-0.0225503
-0.0208527
-0.0190775
-0.0172314
-0.015314
-0.0133248
-0.0112678
-0.00914962
-0.00697362
-0.00473963
-0.0024526
-0.000128941
0.00221268
0.0045639
0.00692706
0.00930992
0.0117196
0.0141533
0.0165972
0.0190371
0.0214655
0.0238775
0.0262664
0.0286255
0.0309484
0.0332299
0.0354682
0.0376614
0.0398007
0.0418711
0.0438623
0.0457751
0.0476123
0.0493679
0.0510269
0.0525745
0.0540031
0.0553151
0.0565193
0.0576257
0.0586369
0.0595441
0.0603327
0.0609942
0.0615335
0.0619635
0.0622946
0.0625276
0.0626576
0.0626826
0.0626095
0.0624508
0.0622193
0.061921
0.0615533
0.0611069
0.0605727
0.0599501
0.0592508
0.058496
0.0577073
0.0568981
0.0560785
0.0552539
0.0543416
0.0532667
-0.0155315
-0.017098
-0.0185514
-0.0199733
-0.0214075
-0.0228043
-0.0241563
-0.0254567
-0.026712
-0.0279167
-0.0290639
-0.0301421
-0.0311409
-0.0320412
-0.0328303
-0.0334984
-0.0340412
-0.0344538
-0.0347288
-0.0348616
-0.0348572
-0.0347243
-0.034464
-0.0340751
-0.0335644
-0.0329407
-0.0322054
-0.031355
-0.0303875
-0.029306
-0.0281161
-0.0268207
-0.0254196
-0.0239132
-0.0223085
-0.0206186
-0.018854
-0.0170169
-0.0151057
-0.0131238
-0.0110782
-0.00897306
-0.00680737
-0.00457988
-0.00229977
1.13271e-05
0.00233554
0.00467161
0.00702657
0.00940432
0.0118039
0.0142188
0.0166385
0.0190564
0.0214699
0.0238711
0.0262462
0.028585
0.0308842
0.033143
0.0353604
0.0375321
0.0396472
0.0416919
0.0436599
0.0455552
0.0473798
0.0491226
0.0507637
0.052289
0.053698
0.0549995
0.0562042
0.0573168
0.0583332
0.0592407
0.0600257
0.0606838
0.061223
0.0616567
0.0619923
0.0622281
0.0623578
0.0623812
0.0623075
0.0621502
0.0619197
0.0616176
0.0612383
0.0607733
0.0602178
0.0595748
0.0588553
0.0580761
0.0572534
0.0563959
0.0555114
0.0546071
0.0535932
0.0523889
-0.0167485
-0.0182121
-0.0195812
-0.0209116
-0.0222645
-0.0235843
-0.0248662
-0.0261073
-0.0273003
-0.0284397
-0.0295237
-0.0305451
-0.031489
-0.0323327
-0.033068
-0.0336875
-0.0341867
-0.0345562
-0.0347886
-0.0348852
-0.034853
-0.0346941
-0.0344064
-0.0339943
-0.0334681
-0.0328325
-0.0320838
-0.0312192
-0.0302421
-0.0291581
-0.0279694
-0.0266733
-0.0252678
-0.0237578
-0.0221545
-0.0204696
-0.0187089
-0.0168721
-0.014961
-0.0129832
-0.0109453
-0.00884594
-0.00668122
-0.00445365
-0.00217783
0.000123779
0.00243871
0.00477189
0.0071295
0.00950752
0.0118986
0.0142975
0.0167012
0.0191087
0.021517
0.0239122
0.0262757
0.028598
0.0308803
0.0331243
0.0353263
0.037479
0.0395721
0.0415958
0.0435474
0.0454312
0.0472453
0.0489731
0.0505928
0.0520945
0.0534858
0.0547808
0.0559882
0.0571058
0.0581232
0.0590266
0.0598056
0.0604599
0.0609994
0.061436
0.0617742
0.0620105
0.0621395
0.0621625
0.0620894
0.0619328
0.0616995
0.0613878
0.0609915
0.0605045
0.0599262
0.0592627
0.0585238
0.0577205
0.0568635
0.0559575
0.0550087
0.0540264
0.0529148
0.0515885
-0.0178515
-0.0192455
-0.0205411
-0.0218056
-0.0230971
-0.0243595
-0.025585
-0.0267742
-0.0279186
-0.0290129
-0.0300488
-0.0310225
-0.0319164
-0.0327142
-0.0334051
-0.0339844
-0.0344427
-0.0347695
-0.0349633
-0.0350299
-0.0349708
-0.0347827
-0.0344683
-0.0340373
-0.0334964
-0.0328434
-0.0320753
-0.0311961
-0.0302121
-0.0291255
-0.0279321
-0.0266273
-0.0252131
-0.0236994
-0.022097
-0.020412
-0.0186467
-0.0168039
-0.0148904
-0.0129148
-0.0108785
-0.0087758
-0.00660508
-0.00437479
-0.00210162
0.000196346
0.00251313
0.0048552
0.00722243
0.00960251
0.0119867
0.0143763
0.016775
0.019183
0.0215926
0.0239849
0.02634
0.0286521
0.0309261
0.0331627
0.035354
0.0374909
0.039567
0.0415776
0.0435218
0.0454
0.0472047
0.0489158
0.050513
0.0519932
0.0533712
0.0546638
0.0558751
0.0569957
0.0580108
0.0589075
0.0596801
0.0603315
0.0608713
0.0613088
0.0616468
0.0618817
0.06201
0.0620345
0.0619638
0.061807
0.0615673
0.061242
0.0608255
0.0603151
0.0597137
0.0590292
0.0582697
0.0574411
0.056549
0.0555943
0.0545823
0.0535237
0.0523177
0.0508756
-0.0188478
-0.0202052
-0.0214486
-0.0226598
-0.0239098
-0.0251343
-0.0263171
-0.0274651
-0.0285742
-0.0296326
-0.0306324
-0.0315661
-0.0324185
-0.0331786
-0.0338339
-0.0343775
-0.0347965
-0.0350857
-0.0352494
-0.0352895
-0.0352014
-0.0349846
-0.0346486
-0.034202
-0.0336429
-0.0329675
-0.0321798
-0.0312895
-0.0303001
-0.0292059
-0.0280002
-0.0266823
-0.0252602
-0.0237437
-0.0221383
-0.0204454
-0.0186691
-0.0168182
-0.0149015
-0.0129235
-0.0108806
-0.00876725
-0.00658774
-0.00435447
-0.00208046
0.000223269
0.00255347
0.00491207
0.00729094
0.00967377
0.0120558
0.0144459
0.0168506
0.0192665
0.0216809
0.0240728
0.0264251
0.0287354
0.0310096
0.0332448
0.0354294
0.0375555
0.0396224
0.0416303
0.0435762
0.0454539
0.0472502
0.0489448
0.0505226
0.0519872
0.053358
0.0546512
0.0558661
0.0569874
0.057998
0.058888
0.0596559
0.0603061
0.0608461
0.0612822
0.061617
0.0618486
0.0619767
0.0620045
0.0619383
0.061782
0.0615351
0.0611936
0.0607549
0.0602195
0.0595933
0.0588852
0.058102
0.0572457
0.0563164
0.0553122
0.0542373
0.0531037
0.0518054
0.0502519
-0.0197377
-0.0210901
-0.0223173
-0.0234871
-0.024704
-0.0259058
-0.027066
-0.0281855
-0.0292684
-0.0303007
-0.0312731
-0.0321729
-0.0329943
-0.033725
-0.0343502
-0.0348577
-0.0352418
-0.0355036
-0.0356433
-0.0356559
-0.035539
-0.0353
-0.0349477
-0.0344822
-0.0338989
-0.0332009
-0.032399
-0.0315004
-0.0305007
-0.0293906
-0.0281679
-0.0268385
-0.0254105
-0.0238884
-0.0222724
-0.0205646
-0.0187752
-0.0169165
-0.014994
-0.0130065
-0.0109494
-0.00882224
-0.00663447
-0.00439683
-0.00211486
0.000205249
0.00255696
0.00493441
0.00732438
0.00971241
0.0121004
0.0145015
0.0169203
0.0193479
0.0217687
0.0241643
0.0265212
0.0288386
0.0311199
0.0333583
0.035541
0.0376636
0.0397316
0.041747
0.0437022
0.0455831
0.0473726
0.0490536
0.0506183
0.0520756
0.053446
0.0547426
0.0559598
0.0570795
0.0580852
0.0589703
0.0597362
0.0603871
0.0609271
0.0613601
0.0616891
0.0619164
0.0620449
0.062078
0.0620183
0.0618641
0.0616101
0.0612517
0.0607891
0.0602264
0.059572
0.0588359
0.0580245
0.0571363
0.0561666
0.0551107
0.0539723
0.0527643
0.0513753
0.0497136
-0.0205225
-0.0219132
-0.0231467
-0.0242976
-0.0254889
-0.026677
-0.0278299
-0.0289387
-0.0300032
-0.0310162
-0.0319667
-0.0328461
-0.0336467
-0.0343514
-0.0349472
-0.0354246
-0.0357844
-0.0360251
-0.0361393
-0.0361241
-0.0359857
-0.0357318
-0.0353615
-0.0348701
-0.0342611
-0.0335462
-0.032734
-0.0318227
-0.0308036
-0.0296723
-0.0284339
-0.0270957
-0.0256598
-0.0241247
-0.0224909
-0.0207659
-0.0189642
-0.0170962
-0.0151617
-0.0131571
-0.0110824
-0.00894224
-0.0067464
-0.0044993
-0.00219997
0.000144742
0.00252094
0.00491636
0.00731797
0.00971698
0.0121205
0.0145415
0.016979
0.0194198
0.0218496
0.0242551
0.0266253
0.0289576
0.031251
0.0334963
0.0356828
0.0378114
0.0398913
0.0419232
0.0438929
0.0457796
0.0475652
0.0492382
0.0507979
0.0522567
0.0536327
0.0549342
0.0561528
0.0572703
0.0582731
0.0591573
0.0599248
0.0605777
0.061117
0.0615451
0.0618672
0.0620904
0.0622204
0.0622604
0.0622082
0.0620562
0.0617945
0.061418
0.0609293
0.0603366
0.0596506
0.0588822
0.0580374
0.057112
0.0560971
0.0549859
0.0537824
0.0525005
0.0510228
0.0492558
-0.0212395
-0.0226784
-0.0239394
-0.0250954
-0.0262774
-0.0274607
-0.0286136
-0.0297231
-0.0307803
-0.0317832
-0.0327214
-0.0335896
-0.034373
-0.0350552
-0.035627
-0.0360855
-0.036428
-0.0366463
-0.0367349
-0.0366989
-0.0365463
-0.0362758
-0.03588
-0.0353611
-0.0347325
-0.0340051
-0.033178
-0.0322442
-0.0311996
-0.0300486
-0.0287981
-0.0274495
-0.0259979
-0.0244419
-0.0227875
-0.0210466
-0.0192321
-0.0173493
-0.0153949
-0.0133689
-0.011277
-0.00912524
-0.00691809
-0.00465328
-0.00232816
4.48077e-05
0.00244454
0.00485717
0.00727444
0.00969308
0.0121211
0.014567
0.0170248
0.0194805
0.0219244
0.0243479
0.02674
0.0290931
0.031402
0.0336582
0.0358557
0.0380001
0.0401012
0.0421556
0.0441426
0.0460378
0.0478247
0.049498
0.0510623
0.0525304
0.0539164
0.0552242
0.0564442
0.0575614
0.0585659
0.0594551
0.0602287
0.0608851
0.0614228
0.0618449
0.0621602
0.0623803
0.0625132
0.0625601
0.0625139
0.0623613
0.0620888
0.0616911
0.0611735
0.060548
0.0598278
0.0590237
0.0581402
0.057171
0.056105
0.0549343
0.0536645
0.0523097
0.0507464
0.0488765
-0.0219139
-0.0234043
-0.0247061
-0.025885
-0.0270787
-0.0282666
-0.0294284
-0.0305455
-0.0316065
-0.0326087
-0.0335464
-0.0344067
-0.035174
-0.0358407
-0.0363992
-0.0368449
-0.0371689
-0.0373644
-0.0374347
-0.0373862
-0.0372179
-0.036922
-0.0364976
-0.0359576
-0.0353151
-0.0345708
-0.0337179
-0.0327547
-0.0316865
-0.0305202
-0.0292566
-0.0278896
-0.0264137
-0.0248329
-0.0231588
-0.0214022
-0.0195703
-0.0176647
-0.0156848
-0.0136369
-0.0115294
-0.00936423
-0.00713865
-0.00484749
-0.002492
-9.15042e-05
0.0023299
0.00476193
0.00720226
0.00964954
0.0121079
0.0145804
0.0170588
0.0195327
0.0219977
0.0244476
0.0268682
0.029246
0.0315736
0.033846
0.0360627
0.0382319
0.0403608
0.0424405
0.0444461
0.0463528
0.0481485
0.0498329
0.0514125
0.0528976
0.0542973
0.0556131
0.0568369
0.0579582
0.0589706
0.0598715
0.0606563
0.0613184
0.0618548
0.0622708
0.0625806
0.0627996
0.0629361
0.062988
0.0629429
0.0627835
0.0624943
0.0620712
0.0615219
0.0608617
0.0601051
0.0592615
0.0583333
0.0573133
0.0561898
0.054956
0.0536195
0.0521937
0.0505479
0.0485765
-0.0225582
-0.0241153
-0.0254602
-0.0266753
-0.0279005
-0.0291073
-0.0302842
-0.0314165
-0.0324935
-0.0335043
-0.0344439
-0.0352991
-0.0360593
-0.036719
-0.0372699
-0.0377015
-0.0380061
-0.0381858
-0.0382459
-0.0381839
-0.0379913
-0.0376664
-0.0372197
-0.036665
-0.0360046
-0.0352322
-0.0343463
-0.0333557
-0.0322691
-0.031087
-0.0298025
-0.028408
-0.0269034
-0.0252986
-0.0236053
-0.0218284
-0.0199707
-0.0180358
-0.0160291
-0.0139608
-0.0118368
-0.00965163
-0.00739873
-0.00507556
-0.00268971
-0.000264163
0.00217944
0.00463676
0.00710874
0.00959115
0.0120818
0.0145803
0.0170808
0.0195785
0.0220728
0.0245559
0.0270087
0.0294137
0.0317639
0.0340596
0.0363044
0.0385059
0.0406667
0.0427726
0.0447977
0.0467207
0.0485345
0.0502417
0.051847
0.053356
0.0547736
0.0561007
0.0573333
0.0584653
0.0594928
0.0604108
0.0612105
0.061881
0.062418
0.0628306
0.0631378
0.0633578
0.0634978
0.0635508
0.0635001
0.0633256
0.0630131
0.0625606
0.0619781
0.0612819
0.0604864
0.0595987
0.0586189
0.0575409
0.0563548
0.0550558
0.0536526
0.052158
0.0504316
0.0483593
-0.0231876
-0.0248263
-0.0262251
-0.0274849
-0.02875
-0.0299913
-0.0311933
-0.032351
-0.0334497
-0.0344753
-0.0354186
-0.0362751
-0.0370387
-0.037696
-0.0382373
-0.0386547
-0.0389477
-0.0391197
-0.0391679
-0.0390835
-0.0388634
-0.0385165
-0.0380549
-0.0374819
-0.036792
-0.035984
-0.035068
-0.0340567
-0.0329523
-0.0317464
-0.0304308
-0.0290041
-0.0274721
-0.0258446
-0.0241278
-0.0223219
-0.0204308
-0.0184644
-0.0164325
-0.0143437
-0.0121973
-0.00998313
-0.00769609
-0.00533985
-0.00292623
-0.00047632
0.00199417
0.00448498
0.00699543
0.00951533
0.0120375
0.0145618
0.0170883
0.0196174
0.0221485
0.0246695
0.0271565
0.0295911
0.0319699
0.0342974
0.0365786
0.0388179
0.0410123
0.0431453
0.0451932
0.0471399
0.0489826
0.0507235
0.0523633
0.0539018
0.0553413
0.0566848
0.0579328
0.0590835
0.0601325
0.0610715
0.0618877
0.0625684
0.06311
0.0635245
0.0638338
0.0640569
0.0641984
0.0642473
0.0641834
0.0639867
0.0636459
0.0631622
0.0625466
0.0618137
0.0609761
0.0600386
0.0590009
0.0578594
0.0566075
0.0552423
0.0537731
0.0522106
0.050404
0.0482303
-0.0238125
-0.0255531
-0.0270218
-0.0283295
-0.0296411
-0.0309293
-0.03217
-0.0333593
-0.0344802
-0.035523
-0.0364802
-0.037347
-0.0381142
-0.038768
-0.0393008
-0.0397117
-0.0400011
-0.0401642
-0.0401922
-0.0400823
-0.039842
-0.0394814
-0.0390021
-0.0383989
-0.0376718
-0.0368317
-0.0358939
-0.0348638
-0.0337337
-0.0324937
-0.0311424
-0.0296852
-0.0281278
-0.0264742
-0.0247255
-0.0228826
-0.0209555
-0.018959
-0.0169021
-0.0147877
-0.0126099
-0.010359
-0.00803572
-0.00564868
-0.00320875
-0.000730767
0.0017748
0.00430684
0.00685892
0.00941537
0.0119679
0.0145207
0.0170797
0.0196479
0.0222215
0.0247828
0.0273058
0.0297749
0.0321908
0.0345596
0.0368844
0.0391644
0.041393
0.0435548
0.0456314
0.0476119
0.0494948
0.0512791
0.0529597
0.0545321
0.0559979
0.0573637
0.0586347
0.0598113
0.060887
0.0618494
0.0626829
0.0633755
0.0639264
0.0643496
0.0646669
0.0648947
0.0650343
0.0650724
0.0649885
0.0647647
0.0643936
0.0638793
0.0632316
0.0624614
0.0615782
0.060586
0.059486
0.0582782
0.0569596
0.055528
0.0539927
0.0523615
0.0504742
0.0481989
-0.0244483
-0.0263076
-0.0278617
-0.0292284
-0.0305955
-0.0319363
-0.0332218
-0.0344442
-0.0355937
-0.0366596
-0.0376365
-0.0385159
-0.039285
-0.0399373
-0.0404695
-0.0408806
-0.0411646
-0.0413113
-0.0413175
-0.0411901
-0.0409381
-0.040561
-0.0400521
-0.0394114
-0.0386515
-0.0377888
-0.0368315
-0.0357749
-0.0346092
-0.0333313
-0.0319469
-0.0304621
-0.0288764
-0.0271882
-0.0253997
-0.0235172
-0.0215559
-0.01953
-0.0174434
-0.0152939
-0.013076
-0.0107852
-0.00842705
-0.00601055
-0.00354108
-0.00102694
0.00152256
0.00410065
0.00669423
0.00928599
0.0118711
0.0144589
0.0170586
0.019672
0.0222907
0.0248936
0.027456
0.029967
0.03243
0.0348495
0.037223
0.0395452
0.0418089
0.0440032
0.0461161
0.0481409
0.0500739
0.0519088
0.053635
0.0552454
0.0567432
0.0581384
0.0594397
0.0606478
0.0617537
0.0627415
0.0635944
0.0643024
0.064868
0.0653065
0.0656371
0.0658708
0.0660049
0.0660259
0.0659166
0.0656633
0.0652623
0.0647187
0.0640394
0.0632304
0.0622987
0.0612493
0.0600857
0.0588113
0.0574259
0.0559276
0.0543248
0.052623
0.0506539
0.0482767
-0.0251214
-0.027106
-0.0287592
-0.0302009
-0.0316281
-0.033023
-0.0343563
-0.0356169
-0.0368011
-0.0378963
-0.038892
-0.0397814
-0.0405574
-0.0412165
-0.0417539
-0.042163
-0.0424346
-0.0425643
-0.0425573
-0.042421
-0.0421545
-0.0417495
-0.041204
-0.0405308
-0.0397484
-0.0388663
-0.037882
-0.0367885
-0.0355835
-0.0342715
-0.0328584
-0.0313438
-0.0297214
-0.0279907
-0.0261596
-0.0242396
-0.0222452
-0.0201854
-0.0180592
-0.0158648
-0.0136019
-0.0112712
-0.0088787
-0.00642879
-0.00392085
-0.00136053
0.0012394
0.003865
0.0064994
0.00912835
0.0117529
0.0143851
0.0170332
0.0196956
0.0223604
0.0250066
0.0276139
0.0301755
0.0326949
0.0351713
0.0375962
0.0399615
0.0422627
0.0444954
0.0466536
0.0487313
0.0507211
0.0526106
0.0543856
0.056039
0.0575762
0.0590094
0.0603481
0.061592
0.06273
0.0637453
0.0646218
0.0653514
0.065939
0.0663992
0.0667469
0.066987
0.0671133
0.0671138
0.0669768
0.066694
0.0662642
0.0656916
0.0649795
0.0641298
0.0631481
0.0620413
0.0608152
0.0594752
0.0580227
0.0564562
0.0547831
0.0530081
0.0509551
0.0484755
-0.0258629
-0.027972
-0.0297301
-0.0312564
-0.0327474
-0.0341987
-0.0355844
-0.036892
-0.0381119
-0.0392353
-0.0402513
-0.0411548
-0.0419452
-0.0426154
-0.043156
-0.043558
-0.0438177
-0.0439389
-0.0439266
-0.0437788
-0.0434873
-0.0430479
-0.042471
-0.041776
-0.0409749
-0.0400662
-0.0390447
-0.0379109
-0.0366708
-0.0353295
-0.0338859
-0.0323335
-0.0306665
-0.0288907
-0.0270192
-0.0250629
-0.0230307
-0.0209267
-0.0187502
-0.0165047
-0.0141955
-0.0118245
-0.00939309
-0.00689974
-0.00434158
-0.00172668
0.000926852
0.00360049
0.00627805
0.00895109
0.0116252
0.0143114
0.0170133
0.0197259
0.0224376
0.0251311
0.0277908
0.0304115
0.0329931
0.0355285
0.0380048
0.0404143
0.0427577
0.0450367
0.0472483
0.0493851
0.0514346
0.0533803
0.0552071
0.0569097
0.058495
0.0599751
0.0613578
0.0626408
0.0638125
0.0648576
0.0657629
0.0665223
0.0671402
0.0676282
0.0679959
0.0682434
0.0683619
0.0683423
0.068179
0.0678687
0.0674113
0.066809
0.0660621
0.0651702
0.0641385
0.0629757
0.0616889
0.0602841
0.0587635
0.0571263
0.0553795
0.0535277
0.0513873
0.0488037
-0.026697
-0.0289256
-0.0307857
-0.0324003
-0.0339644
-0.0354779
-0.0369185
-0.0382745
-0.0395321
-0.0406834
-0.0417249
-0.0426515
-0.0434587
-0.044137
-0.0446767
-0.0450736
-0.0453304
-0.0454505
-0.0454303
-0.0452613
-0.0449391
-0.044471
-0.0438735
-0.0431603
-0.0423331
-0.0413877
-0.040326
-0.0391568
-0.0378867
-0.0365141
-0.0350314
-0.0334328
-0.0317189
-0.0299005
-0.02799
-0.0259926
-0.023912
-0.0217526
-0.0195188
-0.01722
-0.0148633
-0.012447
-0.0099663
-0.00741684
-0.0047986
-0.00212466
0.000583724
0.00330826
0.00603656
0.00876492
0.0114995
0.0142466
0.0170047
0.0197682
0.0225296
0.0252768
0.0279972
0.0306834
0.0333296
0.0359231
0.0384503
0.0409068
0.0432988
0.045632
0.0479035
0.0501025
0.0522127
0.054216
0.0560986
0.0578577
0.0595
0.061035
0.0624669
0.0637916
0.0649986
0.0660767
0.0670164
0.0678133
0.0684688
0.0689896
0.0693798
0.0696358
0.0697488
0.0697129
0.0695275
0.0691931
0.0687093
0.0680764
0.0672933
0.0663591
0.0652787
0.0640616
0.0627156
0.0612464
0.0596568
0.0579461
0.0561217
0.0541884
0.0519566
0.0492668
-0.0276337
-0.0299808
-0.0319407
-0.0336456
-0.0352908
-0.0368715
-0.0383693
-0.0397713
-0.0410697
-0.0422566
-0.0433287
-0.044281
-0.045103
-0.0457866
-0.0463279
-0.046728
-0.0469887
-0.0471053
-0.0470686
-0.0468737
-0.0465266
-0.0460402
-0.0454258
-0.0446872
-0.0438236
-0.0428381
-0.0417412
-0.0405417
-0.0392393
-0.0378263
-0.0362958
-0.0346483
-0.0328898
-0.0310304
-0.0290764
-0.0270276
-0.0248875
-0.0226656
-0.0203724
-0.0180192
-0.0156097
-0.0131373
-0.0105944
-0.00797844
-0.00529495
-0.00256056
0.000204959
0.00298743
0.00577816
0.0085743
0.0113783
0.0141906
0.0170069
0.0198245
0.0226415
0.0254504
0.0282385
0.030994
0.033705
0.0363564
0.0389368
0.0414466
0.0438953
0.0462895
0.0486246
0.0508869
0.0530584
0.0551222
0.057067
0.0588909
0.0605985
0.0621945
0.0636793
0.0650478
0.0662926
0.0674074
0.0683869
0.0692268
0.0699249
0.0704815
0.0708957
0.071162
0.0712731
0.0712259
0.0710234
0.0706681
0.0701593
0.0694957
0.0686761
0.0677001
0.0665724
0.0653022
0.063898
0.0623651
0.0607059
0.0589192
0.0570132
0.0549936
0.052667
0.0498691
-0.028677
-0.0311484
-0.0332106
-0.0350081
-0.036736
-0.0383853
-0.0399425
-0.0413967
-0.0427404
-0.0439686
-0.0450733
-0.0460478
-0.0468835
-0.0475767
-0.0481275
-0.0485364
-0.0487984
-0.0489039
-0.0488469
-0.0486317
-0.0482692
-0.0477678
-0.0471295
-0.0463555
-0.045452
-0.0444307
-0.043303
-0.0420707
-0.0407271
-0.0392648
-0.0376836
-0.0359896
-0.0341884
-0.0322837
-0.0302763
-0.0281657
-0.02596
-0.0236743
-0.0213214
-0.0189093
-0.0164371
-0.0138959
-0.0112803
-0.00859253
-0.00584237
-0.00304574
-0.000217113
0.00263408
0.00549986
0.00837409
0.0112537
0.0141348
0.017014
0.0198934
0.0227758
0.0256551
0.0285161
0.0313426
0.0341194
0.036832
0.0394727
0.0420454
0.0445601
0.047021
0.0494215
0.0517471
0.0539816
0.0561108
0.0581256
0.0600226
0.0618018
0.0634627
0.0650027
0.0664176
0.0677041
0.0688606
0.0698847
0.0707711
0.0715137
0.0721074
0.072547
0.0728262
0.0729393
0.0728857
0.0726702
0.0722964
0.0717635
0.0710695
0.0702133
0.0691954
0.0680204
0.0666981
0.065237
0.0636417
0.0619126
0.0600477
0.0580562
0.055947
0.0535238
0.0506171
-0.0298325
-0.0324367
-0.0346049
-0.0364943
-0.0383057
-0.0400277
-0.0416473
-0.0431611