/*--------------------------------*- C++ -*----------------------------------*\
  =========                 |
  \\      /  F ield         | OpenFOAM: The Open Source CFD Toolbox
   \\    /   O peration     | Website:  https://openfoam.org
    \\  /    A nd           | Version:  11
     \\/     M anipulation  |
\*---------------------------------------------------------------------------*/
FoamFile
{
    format      ascii;
    class       surfaceScalarField;
    location    "1.6";
    object      phi;
}
// * * * * * * * * * * * * * * * * * * * * * * * * * * * * * * * * * * * * * //

dimensions      [0 3 -1 0 0 0 0];

internalField   nonuniform List<scalar> 
19980
(
5.61332e-07
-5.61239e-07
6.19056e-06
-5.62929e-06
1.66552e-05
-1.04645e-05
2.70695e-05
-1.04145e-05
3.51052e-05
-8.03565e-06
4.03061e-05
-5.20096e-06
4.2804e-05
-2.49772e-06
4.29409e-05
-1.3708e-07
4.10357e-05
1.90532e-06
3.74254e-05
3.61032e-06
3.23714e-05
5.05391e-06
2.61111e-05
6.26037e-06
1.88606e-05
7.25044e-06
1.07913e-05
8.06944e-06
2.0772e-06
8.7142e-06
-7.1422e-06
9.21931e-06
-1.67322e-05
9.59013e-06
-2.65835e-05
9.85115e-06
-3.6604e-05
1.00205e-05
-4.67135e-05
1.01096e-05
-5.68243e-05
1.01107e-05
-6.6866e-05
1.00416e-05
-7.67844e-05
9.91845e-06
-8.65293e-05
9.74479e-06
-9.60679e-05
9.53851e-06
-0.000105381
9.31327e-06
-0.000114449
9.06713e-06
-0.000123248
8.79892e-06
-0.00013176
8.5126e-06
-0.000139969
8.2091e-06
-0.000147859
7.89e-06
-0.000155417
7.55737e-06
-0.000162628
7.21117e-06
-0.000169482
6.85404e-06
-0.000175969
6.48757e-06
-0.000182079
6.11023e-06
-0.000187803
5.72303e-06
-0.000193137
5.33479e-06
-0.000198093
4.95596e-06
-0.000202679
4.58558e-06
-0.000206894
4.2149e-06
-0.000210731
3.83744e-06
-0.000214185
3.45335e-06
-0.000217256
3.07104e-06
-0.00021995
2.69408e-06
-0.000222262
2.31183e-06
-0.000224178
1.91677e-06
-0.000225693
1.51475e-06
-0.000226804
1.11131e-06
-0.000227512
7.0747e-07
-0.000227817
3.05497e-07
-0.000227719
-9.8327e-08
-0.000227203
-5.1599e-07
-0.000226251
-9.51768e-07
-0.000224855
-1.39655e-06
-0.000223013
-1.84174e-06
-0.000220728
-2.2852e-06
-0.000218003
-2.72452e-06
-0.000214844
-3.15916e-06
-0.000211246
-3.59782e-06
-0.000207196
-4.05017e-06
-0.000202685
-4.51103e-06
-0.000197723
-4.96213e-06
-0.000192334
-5.38888e-06
-0.000186546
-5.7883e-06
-0.000180383
-6.1626e-06
-0.00017387
-6.51281e-06
-0.000167031
-6.83926e-06
-0.00015989
-7.14133e-06
-0.000152476
-7.414e-06
-0.000144827
-7.64854e-06
-0.000136988
-7.83878e-06
-0.000129003
-7.9851e-06
-0.000120912
-8.09112e-06
-0.000112753
-8.15877e-06
-0.000104565
-8.18853e-06
-9.63816e-05
-8.18333e-06
-8.82326e-05
-8.14904e-06
-8.01432e-05
-8.0894e-06
-7.21413e-05
-8.00197e-06
-6.42614e-05
-7.87996e-06
-5.65448e-05
-7.71657e-06
-4.90372e-05
-7.50763e-06
-4.17853e-05
-7.25199e-06
-3.48349e-05
-6.95028e-06
-2.82316e-05
-6.60329e-06
-2.20214e-05
-6.21015e-06
-1.62554e-05
-5.76601e-06
-1.09922e-05
-5.2632e-06
-6.29747e-06
-4.69466e-06
-2.24297e-06
-4.05451e-06
1.09737e-06
-3.34035e-06
3.65216e-06
-2.5548e-06
5.35528e-06
-1.70313e-06
6.15529e-06
-8.00011e-07
6.03317e-06
1.22084e-07
5.02586e-06
1.00731e-06
3.27675e-06
1.74924e-06
1.1962e-06
2.08083e-06
1.19649e-06
-3.75725e-06
3.19598e-06
-2.5945e-06
-6.79207e-06
6.19994e-06
-1.92589e-05
1.70283e-05
-2.12428e-05
2.60952e-05
-1.71025e-05
3.16381e-05
-1.07439e-05
3.31215e-05
-3.98135e-06
3.05472e-05
2.43741e-06
2.42355e-05
8.21668e-06
1.45284e-05
1.33177e-05
1.83542e-06
1.7747e-05
-1.34395e-05
2.15354e-05
-3.09512e-05
2.47622e-05
-5.03349e-05
2.7453e-05
-7.12945e-05
2.96737e-05
-9.35511e-05
3.14761e-05
-0.000116842
3.28807e-05
-0.000140937
3.39468e-05
-0.000165633
3.47157e-05
-0.000190723
3.51997e-05
-0.000216033
3.54212e-05
-0.000241415
3.54234e-05
-0.000266723
3.52262e-05
-0.000291833
3.48544e-05
-0.000316638
3.43446e-05
-0.000341045
3.37199e-05
-0.000364967
3.29893e-05
-0.000388329
3.21602e-05
-0.000411059
3.12434e-05
-0.000433099
3.02481e-05
-0.000454388
2.91791e-05
-0.000474871
2.80413e-05
-0.000494502
2.68415e-05
-0.000513236
2.55883e-05
-0.000531035
2.42866e-05
-0.000547862
2.29377e-05
-0.000563688
2.15484e-05
-0.000578489
2.01364e-05
-0.000592252
1.87186e-05
-0.00060496
1.72939e-05
-0.000616596
1.58508e-05
-0.000627144
1.43856e-05
-0.000636593
1.29019e-05
-0.000644927
1.14051e-05
-0.000652133
9.89982e-06
-0.000658201
8.38019e-06
-0.00066312
6.83529e-06
-0.000666871
5.26659e-06
-0.000669446
3.6863e-06
-0.000670841
2.1018e-06
-0.000671047
5.12216e-07
-0.000670058
-1.08797e-06
-0.000667866
-2.70776e-06
-0.000664464
-4.35319e-06
-0.000659843
-6.01793e-06
-0.000654
-7.68506e-06
-0.000646945
-9.33951e-06
-0.000638692
-1.09775e-05
-0.000629246
-1.26059e-05
-0.000618609
-1.42346e-05
-0.000606794
-1.58646e-05
-0.000593823
-1.74824e-05
-0.000579722
-1.9063e-05
-0.000564529
-2.05819e-05
-0.000548293
-2.20245e-05
-0.000531069
-2.33868e-05
-0.000512911
-2.46702e-05
-0.000493877
-2.58738e-05
-0.000474028
-2.699e-05
-0.000453438
-2.80041e-05
-0.000432187
-2.89e-05
-0.00041036
-2.96657e-05
-0.000388048
-3.02964e-05
-0.000365348
-3.07912e-05
-0.000342356
-3.1151e-05
-0.000319166
-3.13779e-05
-0.000295874
-3.14759e-05
-0.000272575
-3.14485e-05
-0.00024937
-3.12946e-05
-0.000226365
-3.10062e-05
-0.000203674
-3.0571e-05
-0.000181415
-2.99758e-05
-0.000159714
-2.9209e-05
-0.000138702
-2.82632e-05
-0.000118518
-2.71342e-05
-9.9303e-05
-2.58187e-05
-8.12013e-05
-2.43117e-05
-6.43639e-05
-2.26034e-05
-4.8947e-05
-2.06801e-05
-3.51109e-05
-1.85307e-05
-2.30155e-05
-1.61499e-05
-1.28138e-05
-1.3542e-05
-4.64248e-06
-1.07262e-05
1.39373e-06
-7.73936e-06
5.24351e-06
-4.64972e-06
6.94255e-06
-1.57695e-06
6.66053e-06
1.28911e-06
4.76189e-06
3.64735e-06
1.97196e-06
4.87008e-06
3.16864e-06
-9.01556e-06
1.22116e-05
-1.69245e-05
1.11685e-06
-1.78655e-05
-1.83178e-05
-1.55438e-05
-2.35647e-05
-1.35709e-05
-1.90755e-05
-1.41022e-05
-1.02127e-05
-1.82572e-05
1.73732e-07
-2.64845e-05
1.06647e-05
-3.88235e-05
2.05558e-05
-5.50782e-05
2.95724e-05
-7.49436e-05
3.76123e-05
-9.80834e-05
4.46751e-05
-0.000124131
5.081e-05
-0.000152726
5.60482e-05
-0.000183525
6.04722e-05
-0.000216174
6.41252e-05
-0.000250388
6.70951e-05
-0.000285867
6.9426e-05
-0.000322328
7.11766e-05
-0.000359526
7.23967e-05
-0.000397224
7.31199e-05
-0.0004352
7.33988e-05
-0.000473247
7.32732e-05
-0.000511182
7.27894e-05
-0.000548833
7.19955e-05
-0.000586035
7.09223e-05
-0.00062264
6.95943e-05
-0.000658517
6.80369e-05
-0.000693543
6.62693e-05
-0.000727602
6.43074e-05
-0.000760589
6.21659e-05
-0.000792409
5.98612e-05
-0.000822978
5.74103e-05
-0.000852215
5.48255e-05
-0.000880046
5.21179e-05
-0.000906408
4.92995e-05
-0.000931245
4.63851e-05
-0.000954504
4.33954e-05
-0.000976133
4.0348e-05
-0.000996087
3.72481e-05
-0.00101433
3.4093e-05
-0.00103083
3.08823e-05
-0.00104555
2.7622e-05
-0.00105846
2.43223e-05
-0.00106955
2.0987e-05
-0.00107878
1.76115e-05
-0.00108614
1.41949e-05
-0.00109162
1.07431e-05
-0.00109519
7.2627e-06
-0.00109686
3.76249e-06
-0.00109659
2.50444e-07
-0.00109441
-3.27553e-06
-0.00109029
-6.82444e-06
-0.00108425
-1.03959e-05
-0.00107629
-1.39761e-05
-0.00106642
-1.75487e-05
-0.00105466
-2.11004e-05
-0.00104102
-2.46213e-05
-0.00102552
-2.81075e-05
-0.00100819
-3.15617e-05
-0.000989074
-3.49813e-05
-0.00096821
-3.83466e-05
-0.000945648
-4.16254e-05
-0.000921442
-4.4788e-05
-0.000895651
-4.78153e-05
-0.000868342
-5.06957e-05
-0.000839592
-5.34202e-05
-0.000809488
-5.59783e-05
-0.000778123
-5.83551e-05
-0.000745597
-6.05297e-05
-0.000712018
-6.2479e-05
-0.000677501
-6.41832e-05
-0.000642168
-6.56289e-05
-0.000606151
-6.68078e-05
-0.000569589
-6.77138e-05
-0.000532625
-6.83415e-05
-0.000495415
-6.86859e-05
-0.000458122
-6.87419e-05
-0.000420916
-6.85003e-05
-0.000383977
-6.79453e-05
-0.000347492
-6.70565e-05
-0.000311655
-6.58124e-05
-0.000276671
-6.41933e-05
-0.00024275
-6.21839e-05
-0.000210112
-5.97722e-05
-0.000178984
-5.69471e-05
-0.000149598
-5.36977e-05
-0.00012219
-5.00112e-05
-9.69947e-05
-4.58752e-05
-7.42408e-05
-4.12846e-05
-5.41447e-05
-3.62461e-05
-3.69017e-05
-3.0785e-05
-2.26727e-05
-2.49553e-05
-1.15643e-05
-1.88478e-05
-3.60183e-06
-1.26121e-05
1.30513e-06
-6.48376e-06
3.41117e-06
-8.16618e-07
3.19943e-06
3.85927e-06
1.50325e-06
6.56594e-06
4.67191e-06
-1.00795e-05
2.2291e-05
-2.28283e-05
1.38658e-05
-3.13496e-05
-9.79679e-06
-3.73627e-05
-1.75513e-05
-4.34812e-05
-1.29569e-05
-5.16299e-05
-2.06412e-06
-6.30662e-05
1.16103e-05
-7.84212e-05
2.60195e-05
-9.79463e-05
4.00809e-05
-0.000121644
5.32695e-05
-0.000149321
6.52897e-05
-0.000180701
7.6055e-05
-0.000215445
8.55543e-05
-0.000253213
9.38167e-05
-0.000293632
0.000100891
-0.000336367
0.000106861
-0.000381051
0.000111778
-0.000427346
0.000115722
-0.000474943
0.000118773
-0.000523524
0.000120977
-0.000572809
0.000122405
-0.000622527
0.000123118
-0.000672424
0.00012317
-0.000722254
0.00012262
-0.000771785
0.000121526
-0.0008208
0.000119937
-0.000869103
0.000117898
-0.000916512
0.000115446
-0.000962855
0.000112612
-0.00100798
0.000109428
-0.00105173
0.000105919
-0.00109398
0.000102113
-0.00113461
9.80355e-05
-0.00117349
9.37136e-05
-0.00121054
8.91666e-05
-0.00124566
8.44152e-05
-0.00127876
7.94837e-05
-0.00130976
7.43982e-05
-0.00133859
6.91799e-05
-0.00136518
6.38389e-05
-0.00138947
5.83829e-05
-0.00141141
5.28231e-05
-0.00143096
4.71691e-05
-0.00144807
4.14306e-05
-0.0014627
3.56186e-05
-0.00147483
2.97375e-05
-0.00148442
2.37897e-05
-0.00149146
1.77855e-05
-0.00149594
1.17383e-05
-0.00149783
5.65693e-06
-0.00149713
-4.5087e-07
-0.00149383
-6.57681e-06
-0.00148794
-1.27162e-05
-0.00147947
-1.88649e-05
-0.00146843
-2.50111e-05
-0.00145485
-3.11345e-05
-0.00143873
-3.72137e-05
-0.00142012
-4.32329e-05
-0.00139905
-4.91832e-05
-0.00137555
-5.50568e-05
-0.00134969
-6.08387e-05
-0.00132154
-6.65024e-05
-0.00129115
-7.20146e-05
-0.0012586
-7.73426e-05
-0.00122395
-8.24586e-05
-0.00118731
-8.73402e-05
-0.00114876
-9.19678e-05
-0.00110842
-9.63203e-05
-0.0010664
-0.000100372
-0.00102284
-0.000104093
-0.000977865
-0.000107452
-0.000931626
-0.000110422
-0.000884276
-0.00011298
-0.00083598
-0.000115104
-0.00078692
-0.000116774
-0.000737289
-0.000117972
-0.000687293
-0.000118683
-0.000637147
-0.000118888
-0.000587083
-0.000118565
-0.000537341
-0.000117687
-0.000488175
-0.000116223
-0.000439845
-0.000114142
-0.000392623
-0.000111416
-0.000346787
-0.00010802
-0.000302626
-0.000103933
-0.000260438
-9.91355e-05
-0.000220523
-9.36128e-05
-0.000183181
-8.73528e-05
-0.000148707
-8.0349e-05
-0.000117382
-7.26095e-05
-8.94646e-05
-6.41639e-05
-6.51791e-05
-5.50706e-05
-4.47033e-05
-4.5431e-05
-2.81471e-05
-3.54041e-05
-1.55267e-05
-2.52327e-05
-6.73048e-06
-1.52801e-05
-1.47649e-06
-6.07062e-06
7.37565e-07
1.64551e-06
7.36518e-07
6.5669e-06
5.40844e-06
-9.17555e-06
3.14665e-05
-2.37519e-05
2.84422e-05
-3.72475e-05
3.69878e-06
-5.0023e-05
-4.77574e-06
-6.36269e-05
6.46833e-07
-7.94784e-05
1.37873e-05
-9.86069e-05
3.07388e-05
-0.000121677
4.90902e-05
-0.000149034
6.74371e-05
-0.000180724
8.49603e-05
-0.000216642
0.000101208
-0.000256577
0.00011599
-0.000300214
0.000129192
-0.000347223
0.000140826
-0.000397242
0.000150909
-0.000449881
0.0001595
-0.000504783
0.00016668
-0.000561574
0.000172512
-0.000619882
0.000177081
-0.000679363
0.000180458
-0.00073969
0.000182732
-0.000800541
0.000183969
-0.000861614
0.000184242
-0.000922624
0.00018363
-0.000983297
0.000182199
-0.00104337
0.000180011
-0.0011026
0.000177127
-0.00116076
0.000173603
-0.00121764
0.000169491
-0.00127304
0.00016483
-0.00132678
0.000159664
-0.00137871
0.000154036
-0.00142866
0.000147983
-0.00147648
0.000141542
-0.00152206
0.000134743
-0.00156527
0.000127622
-0.001606
0.000120214
-0.00164415
0.000112548
-0.00167962
0.000104653
-0.00171233
9.65494e-05
-0.0017422
8.82548e-05
-0.00176917
7.97892e-05
-0.00179317
7.11713e-05
-0.00181416
6.24154e-05
-0.00183207
5.35357e-05
-0.00184688
4.45473e-05
-0.00185856
3.54647e-05
-0.00186707
2.63012e-05
-0.00187241
1.70701e-05
-0.00187454
7.78784e-06
-0.00187346
-1.52719e-06
-0.00186918
-1.08609e-05
-0.00186169
-2.02036e-05
-0.00185101
-2.95419e-05
-0.00183717
-3.88553e-05
-0.00182018
-4.81199e-05
-0.00180008
-5.73115e-05
-0.00177691
-6.64063e-05
-0.00175071
-7.53833e-05
-0.00172154
-8.42243e-05
-0.00168948
-9.29059e-05
-0.00165458
-0.000101394
-0.00161695
-0.000109649
-0.00157666
-0.000117631
-0.00153382
-0.000125305
-0.00148852
-0.00013264
-0.00144088
-0.000139602
-0.00139105
-0.000146156
-0.00133915
-0.000152265
-0.00128536
-0.000157889
-0.00122982
-0.000162987
-0.00117272
-0.000167522
-0.00111425
-0.000171455
-0.0010546
-0.000174751
-0.000993998
-0.000177374
-0.00093268
-0.00017929
-0.000870893
-0.000180469
-0.000808905
-0.000180876
-0.000746994
-0.000180475
-0.000685455
-0.000179225
-0.000624596
-0.000177082
-0.000564733
-0.000174005
-0.000506195
-0.000169954
-0.00044932
-0.000164895
-0.000394454
-0.000158799
-0.000341948
-0.000151641
-0.000292159
-0.000143402
-0.000245437
-0.000134074
-0.000202124
-0.000123662
-0.00016254
-0.000112194
-0.000126977
-9.97269e-05
-9.56865e-05
-8.63606e-05
-6.88665e-05
-7.22509e-05
-4.66387e-05
-5.76318e-05
-2.90269e-05
-4.28444e-05
-1.59309e-05
-2.83762e-05
-7.09095e-06
-1.49107e-05
-2.05433e-06
-3.39093e-06
-9.71032e-08
4.6097e-06
5.3114e-06
-7.96033e-06
3.94269e-05
-2.30064e-05
4.34883e-05
-3.98699e-05
2.05622e-05
-5.80768e-05
1.3431e-05
-7.83051e-05
2.08751e-05
-0.000101433
3.69153e-05
-0.000128194
5.74996e-05
-0.00015912
8.00164e-05
-0.000194475
0.000102792
-0.00023435
0.000124834
-0.000278688
0.000145546
-0.000327261
0.000164563
-0.000379813
0.000181744
-0.000435991
0.000197003
-0.000495433
0.000210351
-0.000557754
0.000221821
-0.000622547
0.000231473
-0.000689422
0.000239388
-0.000757988
0.000245646
-0.000827864
0.000250335
-0.000898669
0.000253537
-0.000970047
0.000255347
-0.00104166
0.000255857
-0.00111319
0.000255153
-0.0011843
0.000253313
-0.00125471
0.000250422
-0.00132414
0.000246558
-0.00139233
0.00024179
-0.00145902
0.000236183
-0.00152399
0.000229801
-0.00158703
0.000222703
-0.00164794
0.000214946
-0.00170654
0.000206582
-0.00176266
0.000197659
-0.00181614
0.000188225
-0.00186684
0.000178327
-0.00191464
0.00016801
-0.00195941
0.000157314
-0.00200103
0.000146273
-0.0020394
0.000134922
-0.00207443
0.000123291
-0.00210605
0.000111409
-0.00213418
9.93004e-05
-0.00215876
8.69889e-05
-0.00217972
7.45009e-05
-0.00219703
6.18579e-05
-0.00221065
4.908e-05
-0.00222054
3.61907e-05
-0.00222668
2.32122e-05
-0.00222906
1.01654e-05
-0.00222766
-2.92499e-06
-0.00222249
-1.60343e-05
-0.00221355
-2.91428e-05
-0.00220086
-4.22304e-05
-0.00218444
-5.527e-05
-0.00216433
-6.82291e-05
-0.00214057
-8.10752e-05
-0.0021132
-9.37769e-05
-0.00208228
-0.000106305
-0.00204787
-0.000118629
-0.00201007
-0.000130714
-0.00196894
-0.000142516
-0.00192461
-0.000153988
-0.00187715
-0.000165083
-0.0018267
-0.000175758
-0.00177337
-0.000185968
-0.00171731
-0.000195664
-0.00165867
-0.000204799
-0.00159761
-0.000213321
-0.00153432
-0.00022118
-0.00146899
-0.000228321
-0.00140182
-0.000234693
-0.00133303
-0.000240243
-0.00126286
-0.000244916
-0.00119158
-0.000248662
-0.00111944
-0.00025143
-0.00104674
-0.000253169
-0.000973782
-0.00025383
-0.000900899
-0.000253358
-0.000828427
-0.000251697
-0.000756719
-0.00024879
-0.000686142
-0.000244582
-0.000617071
-0.000239025
-0.000549893
-0.000232073
-0.000485003
-0.00022369
-0.000422798
-0.000213846
-0.000363678
-0.000202522
-0.000308036
-0.000189717
-0.000256248
-0.00017545
-0.00020867
-0.000159771
-0.000165626
-0.000142772
-0.000127391
-0.000124595
-9.41887e-05
-0.000105454
-6.61613e-05
-8.56591e-05
-4.33608e-05
-6.56448e-05
-2.57232e-05
-4.60138e-05
-1.30471e-05
-2.75868e-05
-4.97451e-06
-1.14635e-05
-9.39738e-07
5.74983e-07
4.37168e-06
-6.89845e-06
4.63255e-05
-2.20148e-05
5.86046e-05
-4.13499e-05
3.98973e-05
-6.39945e-05
3.60759e-05
-9.00695e-05
4.69501e-05
-0.000119929
6.67753e-05
-0.00015399
9.15607e-05
-0.000192577
0.000118603
-0.000235879
0.000146094
-0.000283934
0.00017289
-0.000336638
0.000198251
-0.000393802
0.000221726
-0.000455135
0.000243077
-0.000520316
0.000262184
-0.000588952
0.000278987
-0.000660646
0.000293516
-0.000734983
0.000305809
-0.000811542
0.000315948
-0.000889901
0.000324005
-0.000969648
0.000330082
-0.00105038
0.000334274
-0.00113172
0.000336682
-0.00121327
0.00033741
-0.00129468
0.000336559
-0.00137559
0.000334231
-0.0014557
0.000330524
-0.00153467
0.00032553
-0.00161221
0.000319337
-0.00168806
0.000312031
-0.00176195
0.000303693
-0.00183365
0.000294398
-0.00190292
0.00028422
-0.00196957
0.000273227
-0.00203339
0.000261484
-0.00209422
0.000249053
-0.00215189
0.000235995
-0.00220624
0.000222366
-0.00225715
0.000208217
-0.00230447
0.000193598
-0.0023481
0.000178551
-0.00238793
0.00016312
-0.00242387
0.000147346
-0.00245583
0.000131262
-0.00248374
0.000114902
-0.00250754
9.83008e-05
-0.00252718
8.14931e-05
-0.0025426
6.45073e-05
-0.00255379
4.7373e-05
-0.0025607
3.01216e-05
-0.00256332
1.27853e-05
-0.00256164
-4.60217e-06
-0.00255566
-2.20091e-05
-0.0025454
-3.94078e-05
-0.00253086
-5.67673e-05
-0.00251208
-7.40493e-05
-0.0024891
-9.12127e-05
-0.00246196
-0.000108218
-0.00243071
-0.000125024
-0.00239542
-0.000141592
-0.00235617
-0.000157878
-0.00231305
-0.000173835
-0.00226616
-0.000189409
-0.0022156
-0.000204544
-0.0021615
-0.000219183
-0.00210399
-0.000233271
-0.00204321
-0.000246748
-0.00197932
-0.000259553
-0.0019125
-0.000271621
-0.00184293
-0.000282889
-0.00177082
-0.000293291
-0.00169638
-0.000302759
-0.00161985
-0.000311223
-0.00154148
-0.000318612
-0.00146154
-0.000324856
-0.00138032
-0.000329884
-0.00129812
-0.000333627
-0.00121528
-0.000336016
-0.00113212
-0.000336984
-0.00104902
-0.000336456
-0.000966364
-0.000334359
-0.000884533
-0.000330621
-0.000803939
-0.000325176
-0.000725001
-0.000317963
-0.000648144
-0.000308929
-0.000573805
-0.000298029
-0.000502421
-0.00028523
-0.000434428
-0.000270515
-0.000370253
-0.000253892
-0.000310307
-0.000235397
-0.000254974
-0.000215104
-0.000204608
-0.000193138
-0.000159515
-0.000169688
-0.000119944
-0.000145024
-8.60743e-05
-0.000119529
-5.7998e-05
-9.37212e-05
-3.57083e-05
-6.83035e-05
-1.90879e-05
-4.42073e-05
-7.90121e-06
-2.26502e-05
-1.76433e-06
-5.56184e-06
2.60731e-06
-6.13198e-06
5.24573e-05
-2.12772e-05
7.375e-05
-4.26344e-05
6.12545e-05
-6.91078e-05
6.2549e-05
-0.000100378
7.82202e-05
-0.000136411
0.000102809
-0.000177354
0.000132503
-0.000223308
0.000164557
-0.000274329
0.000197115
-0.000330368
0.000228928
-0.000391284
0.000259167
-0.000456862
0.000287304
-0.000526794
0.000313009
-0.000600727
0.000336116
-0.00067828
0.00035654
-0.000759031
0.000374267
-0.000842547
0.000389325
-0.000928378
0.000401778
-0.00101609
0.000411715
-0.00110524
0.000419231
-0.00119539
0.000424428
-0.00128614
0.000427426
-0.00137706
0.000428338
-0.00146778
0.000427279
-0.00155792
0.000424367
-0.00164711
0.000419718
-0.00173503
0.000413445
-0.00182134
0.000405652
-0.00190575
0.000396442
-0.00198798
0.000385917
-0.00206775
0.000374172
-0.00214483
0.000361297
-0.00221898
0.000347376
-0.00228999
0.000332491
-0.00235766
0.000316722
-0.00242181
0.000300146
-0.00248227
0.000282829
-0.00253889
0.000264836
-0.00259152
0.00024623
-0.00264004
0.000227071
-0.00268433
0.000207413
-0.00272429
0.000187304
-0.00275982
0.000166792
-0.00279084
0.000145923
-0.00281729
0.000124746
-0.0028391
0.000103302
-0.00285622
8.16278e-05
-0.00286861
5.97661e-05
-0.00287625
3.77594e-05
-0.00287911
1.56488e-05
-0.00287719
-6.52332e-06
-0.00287048
-2.87158e-05
-0.002859
-5.089e-05
-0.00284277
-7.3004e-05
-0.00282181
-9.50084e-05
-0.00279617
-0.000116852
-0.0027659
-0.000138487
-0.00273106
-0.000159862
-0.00269173
-0.000180925
-0.00264799
-0.00020162
-0.00259993
-0.000221888
-0.00254768
-0.000241662
-0.00249135
-0.000260875
-0.00243107
-0.000279459
-0.002367
-0.000297346
-0.00229928
-0.00031446
-0.00222811
-0.000330724
-0.00215368
-0.000346058
-0.00207618
-0.000360383
-0.00199586
-0.000373618
-0.00191294
-0.000385677
-0.00182769
-0.000396471
-0.00174039
-0.000405911
-0.00165134
-0.000413907
-0.00156085
-0.00042037
-0.00146927
-0.000425211
-0.00137694
-0.000428342
-0.00128426
-0.000429672
-0.0011916
-0.00042911
-0.00109939
-0.000426566
-0.00100806
-0.000421952
-0.00091805
-0.000415188
-0.000829811
-0.000406202
-0.000743808
-0.000394932
-0.00066051
-0.000381326
-0.00058039
-0.000365349
-0.000503916
-0.000346989
-0.000431546
-0.000326262
-0.00036372
-0.000303223
-0.000300854
-0.00027797
-0.000243331
-0.000250662
-0.000191489
-0.00022153
-0.000145614
-0.000190899
-0.000105926
-0.000159217
-7.25735e-05
-0.000127074
-4.56221e-05
-9.52549e-05
-2.5052e-05
-6.47774e-05
-1.07632e-05
-3.6939e-05
-2.55712e-06
-1.37679e-05
5.01833e-08
-5.58094e-06
5.80384e-05
-2.09313e-05
8.91e-05
-4.41239e-05
8.44472e-05
-7.40246e-05
9.24498e-05
-0.000109985
0.00011418
-0.000151735
0.000144559
-0.000199124
0.000179893
-0.000252078
0.00021751
-0.000310509
0.000255546
-0.000374271
0.00029269
-0.000443163
0.000328059
-0.000516906
0.000361047
-0.000595185
0.000391288
-0.000677614
0.000418545
-0.000763789
0.000442715
-0.000853262
0.00046374
-0.000945592
0.000481655
-0.00104031
0.000496499
-0.00113695
0.000508357
-0.00123505
0.000517329
-0.00133416
0.000523535
-0.00143383
0.000527096
-0.00153363
0.000528135
-0.00163314
0.000526788
-0.00173196
0.000523192
-0.00182972
0.000517476
-0.00192604
0.000509768
-0.00202059
0.000500196
-0.00211303
0.000488885
-0.00220307
0.000475953
-0.00229041
0.000461514
-0.00237479
0.000445674
-0.00245595
0.00042854
-0.00253367
0.000410213
-0.00260774
0.000390787
-0.00267794
0.000370352
-0.00274411
0.000348994
-0.00280606
0.000326791
-0.00286365
0.000303822
-0.00291674
0.000280159
-0.0029652
0.000255868
-0.00300891
0.000231014
-0.00304777
0.000205656
-0.0030817
0.000179853
-0.00311062
0.000153665
-0.00313446
0.000127144
-0.00315317
0.000100338
-0.00316671
7.33012e-05
-0.00317504
4.60885e-05
-0.00317814
1.87515e-05
-0.003176
-8.65825e-06
-0.00316863
-3.60895e-05
-0.00315603
-6.34918e-05
-0.00313822
-9.08103e-05
-0.00311525
-0.000117984
-0.00308715
-0.000144952
-0.00305398
-0.000171655
-0.00301581
-0.000198033
-0.00297272
-0.000224018
-0.0029248
-0.000249541
-0.00287215
-0.000274528
-0.00281491
-0.000298903
-0.0027532
-0.000322584
-0.00268717
-0.000345491
-0.00261698
-0.000367538
-0.0025428
-0.000388636
-0.00246484
-0.000408688
-0.0023833
-0.000427601
-0.0022984
-0.000445278
-0.0022104
-0.000461619
-0.00211956
-0.000476519
-0.00202616
-0.00048987
-0.00193051
-0.000501562
-0.00183293
-0.000511488
-0.00173376
-0.000519536
-0.00163338
-0.000525597
-0.00153216
-0.000529561
-0.00143051
-0.000531317
-0.00132887
-0.000530755
-0.00122767
-0.000527766
-0.00112738
-0.000522247
-0.00102846
-0.000514105
-0.000931405
-0.000503256
-0.00083671
-0.000489627
-0.000744875
-0.000473161
-0.000656401
-0.000453823
-0.000571787
-0.000431603
-0.000491519
-0.00040653
-0.000416067
-0.000378674
-0.000345879
-0.000348158
-0.000281368
-0.000315172
-0.000222911
-0.000279987
-0.000170833
-0.000242977
-0.000125408
-0.000204642
-8.68455e-05
-0.000165637
-5.52937e-05
-0.000126807
-3.08393e-05
-8.92319e-05
-1.35196e-05
-5.42585e-05
-3.31172e-06
-2.39758e-05
-3.26148e-06
-5.25544e-06
6.32939e-05
-2.09375e-05
0.000104782
-4.59122e-05
0.000109422
-7.89665e-05
0.000125504
-0.000119275
0.000154488
-0.000166333
0.000191617
-0.000219773
0.000233333
-0.000279363
0.000277101
-0.000344874
0.000321057
-0.000416059
0.000363875
-0.000492633
0.000404632
-0.000574281
0.000442695
-0.000660625
0.000477633
-0.00075126
0.000509181
-0.000845748
0.000537203
-0.000943637
0.000561629
-0.00104444
0.000582458
-0.00114767
0.000599734
-0.00125286
0.000613539
-0.00135951
0.000623978
-0.00146714
0.000631169
-0.00157529
0.000635244
-0.0016835
0.000636347
-0.00179134
0.000634629
-0.00189839
0.000630236
-0.00200423
0.000623317
-0.00210848
0.000614022
-0.00221078
0.000602499
-0.00231079
0.00058889
-0.00240817
0.000573334
-0.00250262
0.000555963
-0.00259385
0.000536908
-0.0026816
0.000516292
-0.00276562
0.000494233
-0.00284568
0.000470845
-0.00292156
0.000446235
-0.00299307
0.000420503
-0.00306003
0.000393746
-0.00312226
0.000366058
-0.00317963
0.000337525
-0.00323199
0.000308227
-0.00327922
0.000278242
-0.00332121
0.000247646
-0.00335786
0.000216511
-0.0033891
0.000184906
-0.00341486
0.000152897
-0.00343506
0.000120544
-0.00344968
8.79149e-05
-0.00345866
5.5077e-05
-0.003462
2.20914e-05
-0.00345968
-1.098e-05
-0.0034517
-4.40738e-05
-0.00343806
-7.7126e-05
-0.00341881
-0.000110069
-0.00339396
-0.00014283
-0.00336357
-0.000175338
-0.00332771
-0.000207522
-0.00328643
-0.000239308
-0.00323984
-0.000270614
-0.00318802
-0.000301356
-0.0031311
-0.000331449
-0.0030692
-0.0003608
-0.00300247
-0.000389317
-0.00293106
-0.000416901
-0.00285515
-0.00044345
-0.00277493
-0.000468857
-0.0026906
-0.000493011
-0.00260241
-0.000515798
-0.00251058
-0.000537106
-0.00241539
-0.000556813
-0.00231711
-0.000574794
-0.00221606
-0.00059092
-0.00211256
-0.00060506
-0.00200696
-0.000617086
-0.00189963
-0.000626868
-0.00179096
-0.000634272
-0.00168135
-0.000639166
-0.00157125
-0.000641419
-0.00146111
-0.000640899
-0.00135139
-0.000637481
-0.00124259
-0.000631047
-0.00113521
-0.000621487
-0.00102976
-0.000608706
-0.000926765
-0.000592622
-0.000826755
-0.000573172
-0.000730259
-0.000550319
-0.000637804
-0.000524059
-0.000549905
-0.000494429
-0.000467062
-0.000461516
-0.000389755
-0.000425466
-0.000318432
-0.000386495
-0.00025351
-0.000344909
-0.000195363
-0.000301124
-0.000144319
-0.000255686
-0.000100658
-0.000209298
-6.46157e-05
-0.000162849
-3.63877e-05
-0.00011746
-1.61444e-05
-7.45018e-05
-4.02341e-06
-3.60968e-05
-7.2849e-06
-5.07943e-06
6.83732e-05
-2.12586e-05
0.000120962
-4.80055e-05
0.000136169
-8.40511e-05
0.00016155
-0.000128429
0.000198866
-0.000180433
0.000243621
-0.00023958
0.00029248
-0.00030546
0.000342982
-0.000377717
0.000393313
-0.000456013
0.000442171
-0.00053998
0.0004886
-0.000629235
0.00053195
-0.000723357
0.000571754
-0.000821918
0.000607742
-0.000924431
0.000639716
-0.00103041
0.000667612
-0.00113936
0.00069141
-0.00125079
0.000711154
-0.00136416
0.000726915
-0.00147898
0.000738802
-0.00159476
0.000746944
-0.001711
0.000751484
-0.00182723
0.000752577
-0.00194299
0.000750387
-0.00205783
0.00074508
-0.00217134
0.000736824
-0.0022831
0.000725788
-0.00239274
0.000712138
-0.00249989
0.000696039
-0.00260421
0.000677649
-0.00270537
0.000657121
-0.00280306
0.000634606
-0.00289702
0.000610248
-0.00298697
0.000584185
-0.00307267
0.000556546
-0.00315389
0.000527457
-0.00323043
0.000497038
-0.00330209
0.000465404
-0.00336869
0.000432662
-0.00343008
0.000398914
-0.00348611
0.000364254
-0.00353665
0.000328779
-0.00358158
0.000292578
-0.0036208
0.000255736
-0.00365423
0.000218334
-0.00368179
0.000180452
-0.00370341
0.000142165
-0.00371905
0.000103554
-0.00372867
6.46964e-05
-0.00373224
2.56659e-05
-0.00372976
-1.3464e-05
-0.00372121
-5.26167e-05
-0.00370663
-9.1714e-05
-0.00368602
-0.000130675
-0.00365943
-0.000169417
-0.00362692
-0.000207855
-0.00358853
-0.000245906
-0.00354436
-0.000283481
-0.00349449
-0.000320484
-0.00343903
-0.000356816
-0.0033781
-0.000392376
-0.00331184
-0.000427061
-0.0032404
-0.000460758
-0.00316395
-0.000493353
-0.00308267
-0.000524726
-0.00299677
-0.000554754
-0.00290648
-0.000583306
-0.00281203
-0.000610252
-0.00271368
-0.000635456
-0.00261171
-0.000658778
-0.00250643
-0.00068007
-0.00239817
-0.000699182
-0.00228727
-0.000715962
-0.0021741
-0.00073026
-0.00205904
-0.000741922
-0.00194252
-0.000750794
-0.00182497
-0.00075672
-0.00170684
-0.000759546
-0.00158862
-0.000759122
-0.00147079
-0.000755304
-0.00135388
-0.000747957
-0.00123841
-0.000736958
-0.00112492
-0.000722196
-0.00101396
-0.00070358
-0.000906092
-0.000681044
-0.000801864
-0.000654546
-0.000701834
-0.00062409
-0.000606545
-0.000589718
-0.00051653
-0.000551532
-0.0004323
-0.000509695
-0.000354345
-0.00046445
-0.000283122
-0.000416132
-0.000219057
-0.000365189
-0.000162538
-0.000312205
-0.00011392
-0.000257916
-7.35267e-05
-0.000203242
-4.16614e-05
-0.000149325
-1.86207e-05
-9.75425e-05
-4.68755e-06
-5.00298e-05
-1.19725e-05
-5.02809e-06
7.34014e-05
-2.18535e-05
0.000137787
-5.03627e-05
0.000164678
-8.92732e-05
0.00020046
-0.000137485
0.000247078
-0.000194184
0.00030032
-0.000258716
0.000357012
-0.000330554
0.00041482
-0.000409247
0.000472007
-0.000494341
0.000527264
-0.000585405
0.000579664
-0.000681986
0.000628531
-0.000783621
0.000673389
-0.00088981
0.000713931
-0.00100006
0.000749967
-0.00111386
0.000781408
-0.00123067
0.000808221
-0.00134996
0.000830446
-0.00147121
0.000848161
-0.00159388
0.000861477
-0.00171746
0.000870526
-0.00184144
0.000875465
-0.00196533
0.000876466
-0.00208865
0.000873704
-0.00221093
0.000867363
-0.00233174
0.000857631
-0.00245065
0.000844698
-0.00256726
0.00082875
-0.00268119
0.000809971
-0.00279208
0.00078854
-0.0028996
0.000764635
-0.00300342
0.000738426
-0.00310325
0.000710077
-0.00319881
0.000679745
-0.00328984
0.00064758
-0.00337611
0.000613727
-0.0034574
0.000578326
-0.0035335
0.000541505
-0.00360423
0.000503391
-0.00366942
0.000464101
-0.00372891
0.000423749
-0.00378258
0.000382444
-0.00383029
0.000340291
-0.00387194
0.000297388
-0.00390744
0.000253832
-0.0039367
0.000209716
-0.00395967
0.000165131
-0.00397628
0.00012017
-0.00398651
7.49226e-05
-0.00399032
2.94747e-05
-0.0039877
-1.60869e-05
-0.00397864
-6.16707e-05
-0.00396317
-0.000107185
-0.00394131
-0.000152536
-0.0039131
-0.000197628
-0.00387859
-0.000242364
-0.00383785
-0.000286647
-0.00379096
-0.000330371
-0.00373802
-0.000373425
-0.00367914
-0.000415696
-0.00361445
-0.000457068
-0.00354409
-0.000497422
-0.00346822
-0.000536628
-0.00338702
-0.000574552
-0.00330069
-0.000611057
-0.00320944
-0.000646002
-0.00311351
-0.000679237
-0.00301315
-0.000710612
-0.00290863
-0.000739969
-0.00280027
-0.000767146
-0.00268836
-0.000791973
-0.00257327
-0.000814278
-0.00245534
-0.000833886
-0.00233498
-0.000850624
-0.00221258
-0.000864316
-0.00208859
-0.000874784
-0.00196347
-0.000881848
-0.00183768
-0.000885331
-0.00171174
-0.000885065
-0.00158615
-0.000880887
-0.00146147
-0.000872644
-0.00133823
-0.000860196
-0.001217
-0.00084342
-0.00109837
-0.000822214
-0.000982909
-0.000796506
-0.000871202
-0.000766254
-0.000763831
-0.000731461
-0.000661371
-0.000692178
-0.000564385
-0.000648517
-0.000473423