/*--------------------------------*- C++ -*----------------------------------*\
  =========                 |
  \\      /  F ield         | OpenFOAM: The Open Source CFD Toolbox
   \\    /   O peration     | Website:  https://openfoam.org
    \\  /    A nd           | Version:  11
     \\/     M anipulation  |
\*---------------------------------------------------------------------------*/
FoamFile
{
    format      ascii;
    class       volVectorField;
    location    "1.6";
    object      U;
}
// * * * * * * * * * * * * * * * * * * * * * * * * * * * * * * * * * * * * * //

dimensions      [0 1 -1 0 0 0 0];

internalField   nonuniform List<vector> 
10100
(
(-5.16797e-06 -1.03743e-05 0)
(2.28419e-05 -5.07106e-05 0)
(0.000108252 -7.58856e-05 0)
(0.000219679 -7.18343e-05 0)
(0.000316342 -5.61731e-05 0)
(0.000383033 -3.99534e-05 0)
(0.000421255 -2.50452e-05 0)
(0.000433847 -1.25968e-05 0)
(0.000424234 -2.34434e-06 0)
(0.000396102 6.42473e-06 0)
(0.000352106 1.36375e-05 0)
(0.00029507 1.9376e-05 0)
(0.000227058 2.44369e-05 0)
(0.000150094 2.82883e-05 0)
(6.56152e-05 3.11672e-05 0)
(-2.4194e-05 3.34252e-05 0)
(-0.000118422 3.47564e-05 0)
(-0.000216069 3.5614e-05 0)
(-0.000315518 3.63031e-05 0)
(-0.00041641 3.65912e-05 0)
(-0.000517782 3.63011e-05 0)
(-0.000618627 3.5601e-05 0)
(-0.000718494 3.46765e-05 0)
(-0.000816911 3.36047e-05 0)
(-0.000913442 3.25457e-05 0)
(-0.00100782 3.15691e-05 0)
(-0.00109979 3.05582e-05 0)
(-0.00118915 2.94053e-05 0)
(-0.00127574 2.81024e-05 0)
(-0.00135939 2.67176e-05 0)
(-0.00143991 2.53346e-05 0)
(-0.00151716 2.39813e-05 0)
(-0.00159105 2.26716e-05 0)
(-0.00166144 2.13835e-05 0)
(-0.00172816 2.00844e-05 0)
(-0.00179114 1.8782e-05 0)
(-0.00185031 1.74315e-05 0)
(-0.00190561 1.60589e-05 0)
(-0.00195709 1.48103e-05 0)
(-0.0020048 1.36873e-05 0)
(-0.00204875 1.25916e-05 0)
(-0.00208902 1.14964e-05 0)
(-0.00212552 1.03834e-05 0)
(-0.00215814 9.27967e-06 0)
(-0.00218695 8.25772e-06 0)
(-0.00221199 7.2585e-06 0)
(-0.00223314 6.15931e-06 0)
(-0.00225032 4.98664e-06 0)
(-0.00226349 3.84008e-06 0)
(-0.00227259 2.73534e-06 0)
(-0.00227764 1.64162e-06 0)
(-0.00227869 5.24248e-07 0)
(-0.00227565 -6.75905e-07 0)
(-0.00226832 -1.98536e-06 0)
(-0.00225656 -3.35019e-06 0)
(-0.00224038 -4.7141e-06 0)
(-0.00221977 -6.07835e-06 0)
(-0.00219474 -7.45152e-06 0)
(-0.00216534 -8.82779e-06 0)
(-0.00213155 -1.02364e-05 0)
(-0.00209328 -1.1728e-05 0)
(-0.00205044 -1.3292e-05 0)
(-0.00200306 -1.48435e-05 0)
(-0.00195128 -1.62987e-05 0)
(-0.00189534 -1.7625e-05 0)
(-0.00183551 -1.88237e-05 0)
(-0.00177206 -1.99089e-05 0)
(-0.00170525 -2.09066e-05 0)
(-0.00163529 -2.18335e-05 0)
(-0.00156245 -2.26593e-05 0)
(-0.00148705 -2.33153e-05 0)
(-0.00140951 -2.37594e-05 0)
(-0.00133027 -2.40135e-05 0)
(-0.00124978 -2.41276e-05 0)
(-0.00116846 -2.41266e-05 0)
(-0.00108666 -2.40099e-05 0)
(-0.00100473 -2.37872e-05 0)
(-0.000922975 -2.3489e-05 0)
(-0.000841677 -2.3141e-05 0)
(-0.000761129 -2.27451e-05 0)
(-0.000681644 -2.22869e-05 0)
(-0.000603584 -2.17455e-05 0)
(-0.000527371 -2.10965e-05 0)
(-0.000453462 -2.03208e-05 0)
(-0.000382328 -1.94109e-05 0)
(-0.000314434 -1.83762e-05 0)
(-0.000250238 -1.72301e-05 0)
(-0.00019023 -1.59565e-05 0)
(-0.00013496 -1.45155e-05 0)
(-8.50259e-05 -1.28566e-05 0)
(-4.11128e-05 -1.0913e-05 0)
(-3.97598e-06 -8.65958e-06 0)
(2.56475e-05 -6.105e-06 0)
(4.70302e-05 -3.23543e-06 0)
(5.95653e-05 -9.14097e-08 0)
(6.29032e-05 3.24371e-06 0)
(5.69567e-05 6.59468e-06 0)
(4.26449e-05 9.47293e-06 0)
(2.23723e-05 1.0814e-05 0)
(6.37936e-06 6.49997e-06 0)
(-4.13765e-05 2.06333e-06 0)
(-4.94935e-05 -8.18481e-05 0)
(6.65122e-06 -0.000166798 0)
(0.000114185 -0.000172313 0)
(0.000222466 -0.000136535 0)
(0.000297952 -8.89985e-05 0)
(0.000333668 -4.17437e-05 0)
(0.000327689 5.20154e-07 0)
(0.000282677 3.80995e-05 0)
(0.000201592 6.96996e-05 0)
(8.85131e-05 9.66955e-05 0)
(-5.20651e-05 0.000119712 0)
(-0.000216825 0.000138481 0)
(-0.000402353 0.000154171 0)
(-0.000604528 0.000166696 0)
(-0.000821351 0.000176621 0)
(-0.00104977 0.000183896 0)
(-0.00128698 0.000189262 0)
(-0.00153156 0.000192877 0)
(-0.00178096 0.000194842 0)
(-0.00203334 0.000195332 0)
(-0.00228725 0.00019446 0)
(-0.00254095 0.000192403 0)
(-0.00279327 0.000189409 0)
(-0.00304315 0.000185771 0)
(-0.00328947 0.000181687 0)
(-0.00353132 0.000177183 0)
(-0.00376795 0.000172228 0)
(-0.00399859 0.000166849 0)
(-0.00422257 0.000161071 0)
(-0.00443932 0.000154956 0)
(-0.00464832 0.000148542 0)
(-0.00484901 0.000141834 0)
(-0.00504094 0.000134939 0)
(-0.0052237 0.000127863 0)
(-0.00539687 0.000120546 0)
(-0.0055602 0.000113059 0)
(-0.00571346 0.000105507 0)
(-0.00585634 9.80147e-05 0)
(-0.00598869 9.06463e-05 0)
(-0.00611044 8.32612e-05 0)
(-0.00622139 7.57316e-05 0)
(-0.00632141 6.81178e-05 0)
(-0.00641039 6.05152e-05 0)
(-0.00648811 5.29169e-05 0)
(-0.00655445 4.52376e-05 0)
(-0.00660942 3.73997e-05 0)
(-0.00665287 2.94067e-05 0)
(-0.00668452 2.13354e-05 0)
(-0.00670436 1.32683e-05 0)
(-0.00671242 5.2211e-06 0)
(-0.00670854 -2.89829e-06 0)
(-0.0066926 -1.12249e-05 0)
(-0.00666459 -1.97971e-05 0)
(-0.00662449 -2.85218e-05 0)
(-0.00657217 -3.72766e-05 0)
(-0.00650768 -4.59865e-05 0)
(-0.00643119 -5.46255e-05 0)
(-0.00634273 -6.32281e-05 0)
(-0.00624223 -7.1894e-05 0)
(-0.00612981 -8.06908e-05 0)
(-0.0060058 -8.95298e-05 0)
(-0.00587043 -9.8188e-05 0)
(-0.00572392 -0.000106459 0)
(-0.00556662 -0.000114248 0)
(-0.00539914 -0.000121551 0)
(-0.00522209 -0.000128396 0)
(-0.00503601 -0.000134796 0)
(-0.00484145 -0.000140718 0)
(-0.00463908 -0.000146067 0)
(-0.00442967 -0.000150712 0)
(-0.00421406 -0.000154559 0)
(-0.00399311 -0.000157589 0)
(-0.00376781 -0.000159839 0)
(-0.00353914 -0.000161349 0)
(-0.00330805 -0.000162149 0)
(-0.00307542 -0.000162284 0)
(-0.00284216 -0.000161808 0)
(-0.00260931 -0.000160741 0)
(-0.00237798 -0.000159043 0)
(-0.00214926 -0.000156636 0)
(-0.00192426 -0.000153431 0)
(-0.00170416 -0.000149353 0)
(-0.00149025 -0.000144352 0)
(-0.0012839 -0.000138415 0)
(-0.00108653 -0.000131538 0)
(-0.000899574 -0.000123701 0)
(-0.00072452 -0.000114839 0)
(-0.000562886 -0.000104829 0)
(-0.000416242 -9.35561e-05 0)
(-0.000286199 -8.09416e-05 0)
(-0.000174362 -6.69515e-05 0)
(-8.2221e-05 -5.16549e-05 0)
(-1.10374e-05 -3.52139e-05 0)
(3.83635e-05 -1.79429e-05 0)
(6.58585e-05 -5.13218e-07 0)
(7.22086e-05 1.59763e-05 0)
(6.00928e-05 2.96548e-05 0)
(3.46079e-05 3.60454e-05 0)
(9.87192e-06 2.20508e-05 0)
(-6.75227e-05 6.9562e-05 0)
(-0.00014325 -4.47892e-05 0)
(-0.000186625 -0.000209134 0)
(-0.000171993 -0.000244777 0)
(-0.000141387 -0.000199665 0)
(-0.000130243 -0.000121659 0)
(-0.000152498 -3.53793e-05 0)
(-0.000213365 4.95393e-05 0)
(-0.000316491 0.00012689 0)
(-0.000460562 0.000196421 0)
(-0.000641403 0.000257492 0)
(-0.000857517 0.00031011 0)
(-0.00110448 0.00035543 0)
(-0.00137822 0.000393549 0)
(-0.00167634 0.000425504 0)
(-0.00199431 0.000451376 0)
(-0.00232924 0.000472231 0)
(-0.00267853 0.000488101 0)
(-0.00303878 0.000499688 0)
(-0.00340758 0.000507525 0)
(-0.00378273 0.000511607 0)
(-0.00416166 0.000512591 0)
(-0.00454222 0.000510759 0)
(-0.00492259 0.00050629 0)
(-0.00530094 0.000499662 0)
(-0.00567557 0.000491241 0)
(-0.00604497 0.000481193 0)
(-0.00640774 0.000469667 0)
(-0.00676257 0.00045682 0)
(-0.00710827 0.000442766 0)
(-0.00744372 0.000427539 0)
(-0.00776797 0.000411241 0)
(-0.00808016 0.000393976 0)
(-0.00837934 0.000375832 0)
(-0.0086648 0.000356963 0)
(-0.00893594 0.000337404 0)
(-0.00919209 0.000317184 0)
(-0.00943276 0.000296572 0)
(-0.00965735 0.00027574 0)
(-0.00986528 0.000254649 0)
(-0.0100563 0.00023327 0)
(-0.0102302 0.000211561 0)
(-0.0103863 0.000189496 0)
(-0.0105245 0.000167215 0)
(-0.0106446 0.00014481 0)
(-0.0107463 0.000122143 0)
(-0.0108292 9.91097e-05 0)
(-0.0108935 7.58064e-05 0)
(-0.0109388 5.23386e-05 0)
(-0.010965 2.87464e-05 0)
(-0.010972 5.06693e-06 0)
(-0.0109598 -1.87272e-05 0)
(-0.0109283 -4.27526e-05 0)
(-0.0108774 -6.70515e-05 0)
(-0.0108073 -9.15052e-05 0)
(-0.0107182 -0.000115946 0)
(-0.0106102 -0.000140255 0)
(-0.0104831 -0.000164366 0)
(-0.0103373 -0.000188282 0)
(-0.010173 -0.000212078 0)
(-0.00999062 -0.000235766 0)
(-0.00979059 -0.000259184 0)
(-0.0095734 -0.00028203 0)
(-0.00933949 -0.000304027 0)
(-0.00908933 -0.000325006 0)
(-0.0088236 -0.000344896 0)
(-0.00854309 -0.000363661 0)
(-0.00824862 -0.000381262 0)
(-0.00794107 -0.000397602 0)
(-0.00762137 -0.000412505 0)
(-0.00729056 -0.000425761 0)
(-0.00694977 -0.000437205 0)
(-0.00660019 -0.00044676 0)
(-0.00624313 -0.000454404 0)
(-0.00587992 -0.000460129 0)
(-0.00551196 -0.000463925 0)
(-0.00514069 -0.000465799 0)
(-0.00476769 -0.000465757 0)
(-0.00439469 -0.000463764 0)
(-0.00402351 -0.000459716 0)
(-0.00365598 -0.000453455 0)
(-0.00329393 -0.000444804 0)
(-0.00293932 -0.000433608 0)
(-0.00259423 -0.00041975 0)
(-0.00226084 -0.000403153 0)
(-0.00194142 -0.000383758 0)
(-0.00163828 -0.000361495 0)
(-0.00135375 -0.000336246 0)
(-0.00109018 -0.000307861 0)
(-0.000849886 -0.000276236 0)
(-0.000635116 -0.000241344 0)
(-0.00044799 -0.000203308 0)
(-0.000290322 -0.000162453 0)
(-0.000163514 -0.000119364 0)
(-6.82661e-05 -7.50829e-05 0)
(-4.31049e-06 -3.13125e-05 0)
(2.9789e-05 9.2641e-06 0)
(3.77466e-05 4.25306e-05 0)
(2.58926e-05 6.04472e-05 0)
(7.7788e-06 4.0496e-05 0)
(-6.72452e-05 0.000170669 0)
(-0.000170118 6.51432e-05 0)
(-0.000279066 -0.000157497 0)
(-0.000348018 -0.000225866 0)
(-0.000400848 -0.00018096 0)
(-0.000468731 -8.21863e-05 0)
(-0.000564212 3.88628e-05 0)
(-0.000697258 0.000163559 0)
(-0.00087163 0.000283204 0)
(-0.0010876 0.000393912 0)
(-0.00134544 0.000493621 0)
(-0.00164135 0.000581734 0)
(-0.00197273 0.000659145 0)
(-0.00233639 0.000725572 0)
(-0.00272796 0.000782039 0)
(-0.00314472 0.000829451 0)
(-0.00358268 0.000868082 0)
(-0.00403836 0.000898849 0)
(-0.00450858 0.000922257 0)
(-0.00499017 0.000938734 0)
(-0.00548019 0.000949068 0)
(-0.0059758 0.000953823 0)
(-0.00647455 0.000953363 0)
(-0.00697386 0.00094822 0)
(-0.0074712 0.000938915 0)
(-0.00796438 0.000925798 0)
(-0.00845148 0.000909214 0)
(-0.00893054 0.000889534 0)
(-0.00939969 0.000867041 0)
(-0.00985735 0.000841976 0)
(-0.0103021 0.000814498 0)
(-0.0107324 0.000784761 0)
(-0.0111471 0.000753023 0)
(-0.0115449 0.000719471 0)
(-0.0119248 0.000684232 0)
(-0.0122859 0.000647502 0)
(-0.0126272 0.00060945 0)
(-0.0129479 0.000570286 0)
(-0.0132472 0.000530275 0)
(-0.0135245 0.000489459 0)
(-0.013779 0.000447776 0)
(-0.0140103 0.000405335 0)
(-0.0142179 0.000362267 0)
(-0.0144012 0.000318594 0)
(-0.01456 0.000274363 0)
(-0.0146939 0.000229632 0)
(-0.0148026 0.000184399 0)
(-0.0148858 0.000138702 0)
(-0.0149434 9.26603e-05 0)
(-0.0149753 4.63671e-05 0)
(-0.0149814 -1.3851e-07 0)
(-0.0149613 -4.68265e-05 0)
(-0.0149152 -9.36747e-05 0)
(-0.0148433 -0.000140666 0)
(-0.0147458 -0.000187724 0)
(-0.0146227 -0.000234672 0)
(-0.0144742 -0.000281309 0)
(-0.0143006 -0.000327502 0)
(-0.014102 -0.00037321 0)
(-0.0138789 -0.000418412 0)
(-0.0136319 -0.000463011 0)
(-0.0133617 -0.000506785 0)
(-0.0130689 -0.000549425 0)
(-0.0127541 -0.000590613 0)
(-0.0124178 -0.000630098 0)
(-0.0120611 -0.000667715 0)
(-0.0116849 -0.000703343 0)
(-0.0112902 -0.000736837 0)
(-0.0108781 -0.000767982 0)
(-0.0104499 -0.000796516 0)
(-0.0100068 -0.000822183 0)
(-0.0095504 -0.000844766 0)
(-0.00908207 -0.000864091 0)
(-0.00860343 -0.00088001 0)
(-0.00811623 -0.000892391 0)
(-0.00762229 -0.000901124 0)
(-0.0071236 -0.000906116 0)
(-0.00662227 -0.000907266 0)
(-0.00612059 -0.00090443 0)
(-0.00562097 -0.000897405 0)
(-0.00512586 -0.00088594 0)
(-0.00463777 -0.000869765 0)
(-0.00415931 -0.000848634 0)
(-0.00369325 -0.000822346 0)
(-0.0032425 -0.000790743 0)
(-0.00281002 -0.000753689 0)
(-0.00239879 -0.000711049 0)
(-0.00201178 -0.000662685 0)
(-0.00165199 -0.000608484 0)
(-0.0013223 -0.000548444 0)
(-0.00102548 -0.000482733 0)
(-0.000763991 -0.000411748 0)
(-0.000539862 -0.000336235 0)
(-0.000354577 -0.000257414 0)
(-0.000208821 -0.000177218 0)
(-0.000102168 -9.86522e-05 0)
(-3.29283e-05 -2.61094e-05 0)
(2.9565e-06 3.39436e-05 0)
(1.16731e-05 6.99971e-05 0)
(4.78866e-06 5.20983e-05 0)
(-5.66904e-05 0.000270784 0)
(-0.000162382 0.000209115 0)
(-0.00030683 -4.01899e-05 0)
(-0.000437544 -0.000126089 0)
(-0.000564212 -7.89057e-05 0)
(-0.000708256 4.01604e-05 0)
(-0.000881284 0.000192692 0)
(-0.00109102 0.000356023 0)
(-0.00134264 0.000517936 0)
(-0.00163828 0.000670941 0)
(-0.00197655 0.000811449 0)
(-0.00235648 0.000938842 0)
(-0.00277517 0.00105136 0)
(-0.00322927 0.00115022 0)
(-0.0037154 0.00123515 0)
(-0.00422951 0.00130714 0)
(-0.0047681 0.00136704 0)
(-0.00532753 0.00141537 0)
(-0.00590396 0.00145307 0)
(-0.00649371 0.00148061 0)
(-0.00709347 0.0014988 0)
(-0.00770014 0.00150831 0)
(-0.00831055 0.00150982 0)
(-0.00892166 0.00150408 0)
(-0.00953073 0.00149168 0)
(-0.0101351 0.0014731 0)
(-0.0107323 0.00144883 0)
(-0.0113197 0.0014194 0)
(-0.0118954 0.0013852 0)
(-0.0124573 0.00134657 0)
(-0.0130035 0.00130389 0)
(-0.0135322 0.0012575 0)
(-0.0140419 0.00120772 0)
(-0.0145311 0.00115487 0)
(-0.0149984 0.00109914 0)
(-0.0154427 0.00104079 0)
(-0.0158627 0.000980197 0)
(-0.0162573 0.000917628 0)
(-0.0166256 0.000853256 0)
(-0.0169667 0.000787274 0)
(-0.0172799 0.000719819 0)
(-0.0175642 0.000651001 0)
(-0.0178191 0.000580987 0)
(-0.0180442 0.000509924 0)
(-0.0182388 0.000437879 0)
(-0.0184026 0.000364922 0)
(-0.018535 0.000291195 0)
(-0.018636 0.000216833 0)
(-0.0187053 0.000141917 0)
(-0.0187427 6.6554e-05 0)
(-0.0187481 -9.09951e-06 0)
(-0.0187212 -8.49302e-05 0)
(-0.0186622 -0.000160883 0)
(-0.0185713 -0.000236865 0)
(-0.0184486 -0.000312707 0)
(-0.0182945 -0.000388212 0)
(-0.0181091 -0.000463173 0)
(-0.0178927 -0.000537373 0)
(-0.0176456 -0.000610642 0)
(-0.0173685 -0.000682862 0)
(-0.0170621 -0.000753871 0)
(-0.0167272 -0.000823372 0)
(-0.0163644 -0.000890979 0)
(-0.0159746 -0.00095633 0)
(-0.0155586 -0.00101913 0)
(-0.0151176 -0.00107912 0)
(-0.0146526 -0.00113603 0)
(-0.014165 -0.00118958 0)
(-0.013656 -0.00123946 0)
(-0.0131271 -0.00128532 0)
(-0.01258 -0.00132681 0)
(-0.0120163 -0.00136362 0)
(-0.011438 -0.00139544 0)
(-0.0108469 -0.001422 0)
(-0.0102451 -0.00144303 0)
(-0.00963493 -0.00145827 0)
(-0.00901872 -0.00146747 0)
(-0.00839912 -0.00147039 0)
(-0.00777889 -0.00146675 0)
(-0.00716093 -0.00145623 0)
(-0.00654823 -0.00143845 0)
(-0.00594384 -0.00141303 0)
(-0.00535097 -0.00137964 0)
(-0.00477299 -0.00133798 0)
(-0.00421339 -0.00128782 0)
(-0.00367568 -0.00122893 0)
(-0.00316337 -0.00116114 0)
(-0.00267996 -0.00108434 0)
(-0.00222893 -0.000998492 0)
(-0.00181365 -0.000903774 0)
(-0.00143723 -0.000800613 0)
(-0.00110245 -0.000689771 0)
(-0.000811548 -0.000572537 0)
(-0.00056615 -0.000450869 0)
(-0.000367051 -0.000327689 0)
(-0.000213881 -0.000207267 0)
(-0.000105092 -9.56805e-05 0)
(-3.68871e-05 -1.48473e-06 0)
(-4.10782e-06 6.07718e-05 0)
(1.74216e-06 5.54786e-05 0)
(-4.60364e-05 0.000356796 0)
(-0.000145874 0.000359129 0)
(-0.000309691 0.000114656 0)
(-0.000487139 3.12429e-05 0)
(-0.00067556 9.24929e-05 0)
(-0.000890359 0.000236269 0)
(-0.00113824 0.000422637 0)
(-0.0014257 0.000626272 0)
(-0.0017567 0.000831145 0)
(-0.00213298 0.00102849 0)
(-0.00255444 0.00121281 0)
(-0.00301944 0.00138105 0)
(-0.00352591 0.00153256 0)
(-0.00407048 0.00166635 0)
(-0.00464953 0.00178302 0)
(-0.00525926 0.00188274 0)
(-0.00589582 0.00196633 0)
(-0.00655512 0.00203461 0)
(-0.00723327 0.00208841 0)
(-0.00792648 0.00212855 0)
(-0.00863075 0.00215581 0)
(-0.00934252 0.00217094 0)
(-0.0100583 0.00217483 0)
(-0.0107748 0.00216832 0)
(-0.0114888 0.00215214 0)
(-0.0121971 0.00212703 0)
(-0.0128971 0.00209367 0)
(-0.0135858 0.00205269 0)
(-0.0142607 0.00200466 0)
(-0.0149196 0.00195005 0)
(-0.0155602 0.00188937 0)
(-0.0161804 0.00182319 0)
(-0.0167784 0.00175194 0)
(-0.0173523 0.001676 0)
(-0.0179007 0.00159579 0)
(-0.018422 0.00151167 0)
(-0.0189148 0.00142405 0)
(-0.0193779 0.00133336 0)
(-0.0198101 0.00123983 0)
(-0.0202103 0.0011437 0)
(-0.0205776 0.00104524 0)
(-0.0209111 0.00094475 0)
(-0.0212099 0.000842387 0)
(-0.0214736 0.000738322 0)
(-0.0217014 0.000632782 0)
(-0.021893 0.000525948 0)
(-0.0220476 0.000417973 0)
(-0.0221652 0.00030905 0)
(-0.0222454 0.000199365 0)
(-0.0222881 8.90827e-05 0)
(-0.0222931 -2.15983e-05 0)
(-0.0222602 -0.000132463 0)
(-0.0221894 -0.00024335 0)
(-0.0220812 -0.000354112 0)
(-0.0219357 -0.000464537 0)
(-0.0217531 -0.00057434 0)
(-0.0215337 -0.00068322 0)
(-0.0212778 -0.000790904 0)
(-0.0209862 -0.000897153 0)
(-0.0206593 -0.00100173 0)
(-0.020298 -0.00110434 0)
(-0.0199031 -0.0012046 0)
(-0.0194756 -0.00130207 0)
(-0.0190164 -0.00139634 0)
(-0.0185266 -0.00148702 0)
(-0.0180073 -0.00157371 0)
(-0.01746 -0.00165602 0)
(-0.0168861 -0.00173354 0)
(-0.0162872 -0.00180584 0)
(-0.015665 -0.00187244 0)
(-0.0150213 -0.0019329 0)
(-0.0143583 -0.00198676 0)
(-0.013678 -0.0020336 0)
(-0.0129827 -0.00207295 0)
(-0.0122747 -0.00210439 0)
(-0.0115569 -0.00212748 0)
(-0.0108319 -0.00214185 0)
(-0.0101028 -0.00214706 0)
(-0.00937278 -0.00214268 0)
(-0.0086452 -0.00212822 0)
(-0.00792344 -0.00210316 0)
(-0.00721109 -0.00206704 0)
(-0.00651185 -0.0020194 0)
(-0.00582959 -0.00195986 0)
(-0.00516825 -0.0018881 0)
(-0.00453182 -0.00180384 0)
(-0.00392425 -0.00170688 0)
(-0.00334948 -0.00159716 0)
(-0.00281136 -0.00147479 0)
(-0.00231365 -0.00134016 0)
(-0.00185979 -0.001194 0)
(-0.00145283 -0.00103752 0)
(-0.00109526 -0.000872586 0)
(-0.000788889 -0.000701912 0)
(-0.000534753 -0.000529403 0)
(-0.000332802 -0.00036052 0)
(-0.000181909 -0.000202852 0)
(-7.89067e-05 -6.67066e-05 0)
(-2.02995e-05 3.09714e-05 0)
(-1.16456e-06 5.03038e-05 0)
(-3.66581e-05 0.000430829 0)
(-0.000130299 0.000510443 0)
(-0.000306821 0.000296622 0)
(-0.000519591 0.000237626 0)
(-0.000761262 0.000325554 0)
(-0.00103996 0.000502578 0)
(-0.00135861 0.000727756 0)
(-0.00172117 0.000974388 0)
(-0.00213033 0.001225 0)
(-0.00258736 0.00146847 0)
(-0.0030916 0.00169836 0)
(-0.00364147 0.00191022 0)
(-0.00423467 0.0021023 0)
(-0.00486816 0.00227367 0)
(-0.00553825 0.00242403 0)
(-0.00624095 0.00255365 0)
(-0.00697206 0.00266297 0)
(-0.0077276 0.0027529 0)
(-0.00850324 0.00282416 0)
(-0.00929472 0.00287784 0)
(-0.0100981 0.00291475 0)
(-0.0109095 0.00293583 0)
(-0.0117248 0.00294211 0)
(-0.0125405 0.00293451 0)
(-0.013353 0.00291388 0)
(-0.0141589 0.00288115 0)
(-0.014955 0.00283724 0)
(-0.0157383 0.0027829 0)
(-0.0165059 0.00271887 0)
(-0.0172553 0.00264586 0)
(-0.0179838 0.00256454 0)
(-0.0186891 0.00247558 0)
(-0.0193692 0.00237961 0)
(-0.020022 0.0022771 0)
(-0.0206457 0.00216862 0)
(-0.0212386 0.00205477 0)
(-0.0217991 0.00193604 0)
(-0.0223257 0.00181282 0)
(-0.0228171 0.00168557 0)
(-0.0232722 0.00155466 0)
(-0.0236898 0.00142046 0)
(-0.0240688 0.00128332 0)
(-0.0244084 0.00114354 0)
(-0.024708 0.00100137 0)
(-0.0249667 0.000857113 0)
(-0.025184 0.000711076 0)
(-0.0253594 0.000563512 0)
(-0.0254925 0.000414653 0)
(-0.0255831 0.000264746 0)
(-0.0256309 0.000114071 0)
(-0.0256356 -3.7059e-05 0)
(-0.0255972 -0.000188369 0)
(-0.0255159 -0.000339639 0)
(-0.0253918 -0.000490621 0)
(-0.0252252 -0.000640987 0)
(-0.0250164 -0.000790371 0)
(-0.0247657 -0.000938411 0)
(-0.0244735 -0.00108475 0)
(-0.0241406 -0.00122903 0)
(-0.0237677 -0.00137091 0)
(-0.0233556 -0.00150999 0)
(-0.0229053 -0.00164577 0)
(-0.0224178 -0.00177772 0)
(-0.0218942 -0.00190535 0)
(-0.0213358 -0.00202815 0)
(-0.0207439 -0.00214563 0)
(-0.0201202 -0.00225723 0)
(-0.0194662 -0.00236239 0)
(-0.0187838 -0.00246053 0)
(-0.0180748 -0.00255107 0)
(-0.0173414 -0.00263342 0)
(-0.0165861 -0.00270699 0)
(-0.015811 -0.00277115 0)
(-0.0150188 -0.00282527 0)
(-0.0142122 -0.00286875 0)
(-0.0133943 -0.00290099 0)
(-0.0125682 -0.00292141 0)
(-0.0117373 -0.00292941 0)
(-0.0109051 -0.00292438 0)
(-0.0100754 -0.00290565 0)
(-0.00925199 -0.00287257 0)
(-0.00843881 -0.00282453 0)
(-0.00764004 -0.00276101 0)
(-0.00685995 -0.0026815 0)
(-0.00610291 -0.00258561 0)
(-0.00537325 -0.00247301 0)
(-0.00467532 -0.00234353 0)
(-0.00401341 -0.00219717 0)
(-0.00339174 -0.00203421 0)
(-0.00281438 -0.00185528 0)
(-0.00228509 -0.00166145 0)
(-0.00180717 -0.0014544 0)
(-0.00138339 -0.00123656 0)
(-0.00101587 -0.0010114 0)
(-0.000706015 -0.000783697 0)
(-0.000454241 -0.000560028 0)
(-0.000260082 -0.000349206 0)
(-0.000121287 -0.000162928 0)
(-3.62865e-05 -1.98913e-05 0)
(-3.89206e-06 3.67454e-05 0)
(-2.93786e-05 0.000495504 0)
(-0.00011884 0.000661412 0)
(-0.000304337 0.000501333 0)
(-0.000547618 0.000484315 0)
(-0.00083562 0.000613721 0)
(-0.00117174 0.00083326 0)
(-0.00155641 0.00110385 0)
(-0.00199063 0.00139801 0)
(-0.0024756 0.00169709 0)
(-0.00301105 0.00198948 0)
(-0.0035964 0.00226685 0)
(-0.00422961 0.00252446 0)
(-0.00490786 0.00275919 0)
(-0.0056281 0.00296991 0)
(-0.00638653 0.00315561 0)
(-0.00717915 0.00331663 0)
(-0.00800161 0.00345314 0)
(-0.0088494 0.00356589 0)
(-0.00971816 0.00365573 0)
(-0.0106035 0.00372358 0)
(-0.0115012 0.00377043 0)
(-0.0124067 0.00379751 0)
(-0.013316 0.00380588 0)
(-0.0142252 0.00379652 0)
(-0.0151305 0.00377055 0)
(-0.016028 0.00372909 0)
(-0.0169143 0.00367316 0)
(-0.0177862 0.00360368 0)
(-0.0186406 0.00352157 0)
(-0.0194745 0.00342782 0)
(-0.0202851 0.00332327 0)
(-0.0210699 0.0032087 0)
(-0.0218266 0.00308486 0)
(-0.0225529 0.0029525 0)
(-0.0232468 0.00281231 0)
(-0.0239063 0.00266501 0)
(-0.0245298 0.00251122 0)
(-0.0251155 0.00235147 0)
(-0.0256622 0.0021863 0)
(-0.0261683 0.00201627 0)
(-0.0266326 0.00184187 0)
(-0.0270541 0.00166354 0)
(-0.0274317 0.00148164 0)
(-0.0277646 0.00129659 0)
(-0.0280522 0.00110882 0)
(-0.0282936 0.000918697 0)
(-0.0284883 0.000726555 0)
(-0.0286359 0.000532739 0)
(-0.0287362 0.000337608 0)
(-0.0287889 0.000141529 0)
(-0.0287935 -5.5105e-05 0)
(-0.0287503 -0.00025192 0)
(-0.0286592 -0.000448598 0)
(-0.0285205 -0.000644798 0)
(-0.0283346 -0.000840088 0)
(-0.0281016 -0.00103399 0)
(-0.0278219 -0.00122606 0)
(-0.0274961 -0.00141583 0)
(-0.027125 -0.00160287 0)
(-0.0267094 -0.0017867 0)
(-0.0262502 -0.00196677 0)
(-0.0257484 -0.00214249 0)
(-0.0252051 -0.00231321 0)
(-0.0246217 -0.00247834 0)
(-0.0239996 -0.00263728 0)
(-0.0233402 -0.00278935 0)
(-0.0226454 -0.00293385 0)
(-0.0219169 -0.00307006 0)
(-0.0211566 -0.00319726 0)
(-0.0203669 -0.00331472 0)
(-0.0195501 -0.0034217 0)
(-0.0187086 -0.00351741 0)
(-0.0178452 -0.00360105 0)
(-0.0169627 -0.00367182 0)
(-0.0160642 -0.00372889 0)
(-0.0151529 -0.0037715 0)
(-0.0142324 -0.00379886 0)
(-0.0133064 -0.0038102 0)
(-0.0123787 -0.00380468 0)
(-0.0114534 -0.00378149 0)
(-0.0105346 -0.00373982 0)
(-0.00962673 -0.00367895 0)
(-0.00873429 -0.00359821 0)
(-0.0078619 -0.00349704 0)
(-0.00701426 -0.00337494 0)
(-0.00619604 -0.00323158 0)
(-0.00541193 -0.0030668 0)
(-0.00466654 -0.0028807 0)
(-0.00396441 -0.00267374 0)
(-0.00330992 -0.00244681 0)
(-0.00270711 -0.00220132 0)
(-0.00215959 -0.00193939 0)
(-0.00167045 -0.00166401 0)
(-0.0012422 -0.00137933 0)
(-0.000876693 -0.00109093 0)
(-0.000575029 -0.000806292 0)
(-0.000337506 -0.000535233 0)
(-0.000162923 -0.00029041 0)
(-5.1745e-05 -9.17208e-05 0)
(-6.43271e-06 1.50699e-05 0)
(-2.38626e-05 0.000553461 0)
(-0.000110399 0.000813681 0)
(-0.000306188 0.000724227 0)
(-0.000576 0.000766759 0)
(-0.00090524 0.000950989 0)
(-0.0012944 0.00122323 0)
(-0.00174015 0.00154652 0)
(-0.00224231 0.00189331 0)
(-0.00279942 0.00224527 0)
(-0.00341076 0.00258915 0)
(-0.00407475 0.00291649 0)
(-0.00478875 0.00322163 0)
(-0.00554963 0.00350099 0)
(-0.00635413 0.0037524 0)
(-0.00719828 0.00397507 0)
(-0.00807759 0.00416854 0)
(-0.00898774 0.00433324 0)
(-0.00992413 0.0044696 0)
(-0.0108821 0.00457851 0)
(-0.011857 0.00466091 0)
(-0.0128441 0.00471794 0)
(-0.013839 0.00475083 0)
(-0.0148374 0.00476073 0)
(-0.015835 0.00474889 0)
(-0.0168277 0.00471662 0)
(-0.0178115 0.00466516 0)
(-0.0187828 0.00459564 0)
(-0.019738 0.00450925 0)
(-0.0206738 0.00440712 0)
(-0.0215869 0.00429038 0)
(-0.0224744 0.00416007 0)
(-0.0233336 0.00401717 0)
(-0.024162 0.00386258 0)
(-0.024957 0.00369723 0)
(-0.0257164 0.00352204 0)
(-0.0264382 0.00333783 0)
(-0.0271205 0.00314532 0)
(-0.0277615 0.00294522 0)
(-0.0283597 0.00273825 0)
(-0.0289134 0.00252509 0)
(-0.0294214 0.00230632 0)
(-0.0298825 0.00208251 0)
(-0.0302956 0.00185417 0)
(-0.0306598 0.00162184 0)
(-0.0309742 0.00138605 0)
(-0.0312381 0.00114729 0)
(-0.031451 0.000905981 0)
(-0.0316123 0.000662565 0)
(-0.0317218 0.000417536 0)
(-0.0317791 0.000171379 0)
(-0.0317838 -7.54279e-05 0)
(-0.0317362 -0.000322435 0)
(-0.0316362 -0.00056922 0)
(-0.0314841 -0.000815308 0)
(-0.0312802 -0.00106014 0)
(-0.0310248 -0.00130313 0)
(-0.0307182 -0.00154375 0)
(-0.0303613 -0.00178146 0)
(-0.0299547 -0.00201567 0)
(-0.0294995 -0.00224576 0)
(-0.0289964 -0.00247105 0)
(-0.0284466 -0.00269082 0)
(-0.0278515 -0.00290435 0)
(-0.0272124 -0.00311088 0)
(-0.0265309 -0.00330968 0)
(-0.0258086 -0.0034999 0)
(-0.0250474 -0.00368069 0)
(-0.0242493 -0.00385116 0)
(-0.0234165 -0.00401044 0)
(-0.0225514 -0.00415764 0)
(-0.0216565 -0.00429182 0)
(-0.0207347 -0.004412 0)
(-0.0197887 -0.00451717 0)
(-0.0188217 -0.00460634 0)
(-0.017837 -0.00467851 0)
(-0.0168382 -0.0047327 0)
(-0.0158292 -0.00476793 0)
(-0.0148139 -0.0047832 0)
(-0.0137964 -0.00477749 0)
(-0.0127811 -0.00474979 0)
(-0.0117724 -0.00469917 0)
(-0.0107751 -0.00462475 0)
(-0.00979403 -0.00452578 0)
(-0.00883406 -0.00440157 0)
(-0.0079002 -0.00425158 0)
(-0.00699744 -0.00407544 0)
(-0.00613075 -0.00387303 0)
(-0.00530508 -0.00364458 0)
(-0.00452526 -0.00339073 0)
(-0.00379596 -0.0031126 0)
(-0.00312155 -0.00281194 0)
(-0.00250592 -0.00249126 0)
(-0.00195257 -0.00215408 0)
(-0.00146445 -0.00180515 0)
(-0.00104402 -0.00145073 0)
(-0.000693097 -0.00109902 0)
(-0.00041284 -0.00076057 0)
(-0.000203158 -0.000448668 0)
(-6.65122e-05 -0.000183972 0)
(-8.79364e-06 -1.4358e-05 0)
(-1.93914e-05 0.000607328 0)
(-0.000105922 0.000968352 0)
(-0.000311448 0.000964581 0)
(-0.000606207 0.00108239 0)
(-0.000973879 0.00133278 0)
(-0.00141169 0.00166808 0)
(-0.00191482 0.00205146 0)
(-0.0024806 0.00245701 0)
(-0.00310674 0.00286585 0)
(-0.00379087 0.00326468 0)
(-0.00453043 0.00364464 0)
(-0.00532242 0.00399928 0)
(-0.00616336 0.00432482 0)
(-0.0070493 0.00461846 0)
(-0.00797601 0.00487919 0)
(-0.00893909 0.00510618 0)
(-0.00993372 0.00529976 0)
(-0.0109551 0.00546029 0)
(-0.0119984 0.00558856 0)
(-0.0130588 0.00568561 0)
(-0.0141313 0.00575269 0)
(-0.0152114 0.00579101 0)
(-0.0162943 0.00580187 0)
(-0.0173757 0.00578676 0)
(-0.0184511 0.0057471 0)
(-0.0195165 0.00568429 0)
(-0.0205679 0.00559966 0)
(-0.0216017 0.0054946 0)
(-0.0226141 0.00537048 0)
(-0.0236017 0.00522859 0)
(-0.0245616 0.00507013 0)
(-0.0254907 0.00489628 0)
(-0.0263863 0.00470817 0)
(-0.0272458 0.00450693 0)
(-0.0280667 0.00429362 0)
(-0.0288469 0.00406919 0)
(-0.0295843 0.00383454 0)
(-0.0302771 0.00359056 0)
(-0.0309235 0.00333813 0)
(-0.0315218 0.00307806 0)
(-0.0320707 0.00281104 0)
(-0.032569 0.00253778 0)
(-0.0330153 0.00225894 0)
(-0.0334087 0.00197521 0)
(-0.0337484 0.00168724 0)
(-0.0340335 0.0013956 0)
(-0.0342635 0.0011008 0)
(-0.0344377 0.000803468 0)
(-0.0345559 0.000504216 0)
(-0.0346176 0.000203629 0)
(-0.0346226 -9.77337e-05 0)
(-0.0345709 -0.000399324 0)
(-0.0344628 -0.000700587 0)
(-0.0342983 -0.0010009 0)
(-0.0340777 -0.00129958 0)
(-0.0338014 -0.00159594 0)
(-0.03347 -0.00188937 0)
(-0.0330841 -0.0021792 0)
(-0.0326445 -0.0024647 0)
(-0.0321522 -0.00274509 0)
(-0.0316082 -0.00301956 0)
(-0.0310137 -0.00328728 0)
(-0.0303702 -0.00354737 0)
(-0.0296791 -0.00379897 0)
(-0.0289421 -0.00404113 0)
(-0.0281609 -0.00427287 0)
(-0.0273376 -0.00449314 0)
(-0.0264744 -0.00470091 0)
(-0.0255736 -0.00489513 0)
(-0.0246378 -0.00507473 0)
(-0.0236698 -0.00523856 0)
(-0.0226725 -0.00538542 0)
(-0.0216489 -0.0055141 0)
(-0.0206025 -0.00562341 0)
(-0.0195368 -0.00571217 0)
(-0.0184557 -0.00577918 0)
(-0.0173633 -0.00582322 0)
(-0.0162637 -0.00584308 0)
(-0.0151614 -0.00583756 0)
(-0.0140609 -0.00580547 0)
(-0.012967 -0.0057457 0)
(-0.0118848 -0.00565727 0)
(-0.0108194 -0.00553926 0)
(-0.00977587 -0.00539093 0)
(-0.00875956 -0.00521165 0)
(-0.00777571 -0.00500105 0)
(-0.00682961 -0.00475907 0)
(-0.0059265 -0.00448603 0)
(-0.00507151 -0.00418276 0)
(-0.00426961 -0.00385059 0)
(-0.00352545 -0.00349156 0)
(-0.00284333 -0.00310857 0)
(-0.00222716 -0.00270558 0)
(-0.00168042 -0.00228785 0)
(-0.0012062 -0.00186218 0)
(-0.000807121 -0.00143731 0)
(-0.000485249 -0.0010243 0)
(-0.000241581 -0.00063677 0)
(-8.04735e-05 -0.00029584 0)
(-1.09816e-05 -5.11283e-05 0)
(-1.60733e-05 0.000658602 0)
(-0.000103946 0.00112719 0)
(-0.000320203 0.00122376 0)
(-0.000639018 0.00142781 0)
(-0.00104285 0.00175696 0)
(-0.0015259 0.00216412 0)
(-0.00208264 0.00261516 0)
(-0.00270884 0.0030851 0)
(-0.00340047 0.00355535 0)
(-0.00415402 0.00401286 0)
(-0.00496634 0.00444804 0)
(-0.00583346 0.00485456 0)
(-0.00675137 0.00522779 0)
(-0.00771593 0.00556514 0)
(-0.00872253 0.00586484 0)
(-0.00976624 0.00612632 0)
(-0.0108421 0.00634933 0)
(-0.0119452 0.00653435 0)
(-0.0130705 0.00668213 0)
(-0.0142127 0.00679383 0)
(-0.0153669 0.00687065 0)
(-0.0165282 0.00691386 0)
(-0.0176918 0.006925 0)
(-0.0188528 0.00690573 0)
(-0.0200068 0.00685756 0)
(-0.0211497 0.00678202 0)
(-0.0222771 0.00668072 0)
(-0.0233851 0.00655529 0)
(-0.0244698 0.00640725 0)
(-0.025528 0.00623807 0)
(-0.0265561 0.00604914 0)
(-0.0275511 0.00584185 0)
(-0.0285101 0.00561761 0)
(-0.0294302 0.00537769 0)
(-0.0303091 0.00512329 0)
(-0.0311442 0.00485553 0)
(-0.0319336 0.00457552 0)
(-0.032675 0.00428435 0)
(-0.0333667 0.00398302 0)
(-0.0340071 0.00367247 0)
(-0.0345945 0.00335355 0)
(-0.0351277 0.00302712 0)
(-0.0356053 0.00269401 0)
(-0.0360262 0.00235503 0)
(-0.0363896 0.00201095 0)
(-0.0366948 0.00166243 0)
(-0.0369409 0.00131015 0)
(-0.0371273 0.000954879 0)
(-0.0372537 0.000597354 0)
(-0.0373197 0.000238252 0)
(-0.0373251 -0.000121772 0)
(-0.0372699 -0.000482045 0)
(-0.0371542 -0.00084186 0)
(-0.0369782 -0.00120045 0)
(-0.0367421 -0.00155701 0)
(-0.0364465 -0.00191078 0)
(-0.0360918 -0.002261 0)
(-0.0356788 -0.00260689 0)
(-0.0352083 -0.00294754 0)
(-0.0346814 -0.00328203 0)
(-0.0340991 -0.00360941 0)
(-0.0334628 -0.00392872 0)
(-0.0327739 -0.00423895 0)
(-0.032034 -0.00453905 0)
(-0.031245 -0.00482789 0)
(-0.0304085 -0.00510431 0)