/*--------------------------------*- C++ -*----------------------------------*\
  =========                 |
  \\      /  F ield         | OpenFOAM: The Open Source CFD Toolbox
   \\    /   O peration     | Website:  https://openfoam.org
    \\  /    A nd           | Version:  11
     \\/     M anipulation  |
\*---------------------------------------------------------------------------*/
FoamFile
{
    format      ascii;
    class       surfaceScalarField;
    location    "9.3";
    object      phi;
}
// * * * * * * * * * * * * * * * * * * * * * * * * * * * * * * * * * * * * * //

dimensions      [0 3 -1 0 0 0 0];

internalField   nonuniform List<scalar> 
19980
(
7.10925e-07
-7.10759e-07
2.41244e-06
-1.70163e-06
4.25815e-06
-1.8458e-06
5.68552e-06
-1.42756e-06
6.37793e-06
-6.92466e-07
6.15621e-06
2.21665e-07
4.92993e-06
1.22655e-06
2.66328e-06
2.26674e-06
-6.42872e-07
3.30602e-06
-4.96419e-06
4.3213e-06
-1.02604e-05
5.29629e-06
-1.64807e-05
6.22028e-06
-2.35671e-05
7.08643e-06
-3.14564e-05
7.88949e-06
-4.00826e-05
8.62602e-06
-4.93773e-05
9.29485e-06
-5.9272e-05
9.89457e-06
-6.96972e-05
1.04252e-05
-8.05842e-05
1.0887e-05
-9.18646e-05
1.12805e-05
-0.000103471
1.16068e-05
-0.000115339
1.18677e-05
-0.000127403
1.20642e-05
-0.000139601
1.21979e-05
-0.000151872
1.22711e-05
-0.000164157
1.22853e-05
-0.0001764
1.22424e-05
-0.000188545
1.21446e-05
-0.000200539
1.19942e-05
-0.000212332
1.17929e-05
-0.000223875
1.15428e-05
-0.000235121
1.12464e-05
-0.000246027
1.09057e-05
-0.000256549
1.05226e-05
-0.000266649
1.00995e-05
-0.000276287
9.63845e-06
-0.000285429
9.14167e-06
-0.00029404
8.61138e-06
-0.00030209
8.04969e-06
-0.000309549
7.45892e-06
-0.00031639
6.84137e-06
-0.00032259
6.19916e-06
-0.000328124
5.53447e-06
-0.000332974
4.84976e-06
-0.000337121
4.14751e-06
-0.000340551
3.42989e-06
-0.00034325
2.69909e-06
-0.000345208
1.95767e-06
-0.000346416
1.20816e-06
-0.000346869
4.52893e-07
-0.000346563
-3.0566e-07
-0.000345498
-1.06487e-06
-0.000343676
-1.82215e-06
-0.000341102
-2.57493e-06
-0.000337781
-3.32063e-06
-0.000333724
-4.05666e-06
-0.000328944
-4.78027e-06
-0.000323455
-5.48871e-06
-0.000317276
-6.17925e-06
-0.000310427
-6.84919e-06
-0.000302931
-7.49575e-06
-0.000294815
-8.11607e-06
-0.000286108
-8.70726e-06
-0.000276841
-9.26648e-06
-0.00026705
-9.79101e-06
-0.000256772
-1.02781e-05
-0.000246047
-1.0725e-05
-0.000234918
-1.1129e-05
-0.000223431
-1.14872e-05
-0.000211634
-1.1797e-05
-0.000199578
-1.20559e-05
-0.000187316
-1.22614e-05
-0.000174905
-1.24114e-05
-0.000162402
-1.25034e-05
-0.000149866
-1.25352e-05
-0.000137362
-1.25048e-05
-0.000124951
-1.24106e-05
-0.0001127
-1.2251e-05
-0.000100675
-1.20247e-05
-8.89451e-05
-1.17303e-05
-7.75782e-05
-1.13669e-05
-6.66443e-05
-1.09339e-05
-5.62133e-05
-1.04311e-05
-4.63548e-05
-9.85852e-06
-3.71379e-05
-9.21681e-06
-2.86308e-05
-8.5071e-06
-2.08996e-05
-7.73126e-06
-1.40073e-05
-6.89221e-06
-8.01322e-06
-5.99413e-06
-2.97035e-06
-5.04288e-06
1.0764e-06
-4.04672e-06
4.09382e-06
-3.01738e-06
6.06563e-06
-1.97178e-06
7.0006e-06
-9.34985e-07
6.94552e-06
5.50304e-08
6.00605e-06
9.39476e-07
4.37913e-06
1.62695e-06
2.40812e-06
1.97102e-06
6.76481e-07
1.73162e-06
6.76445e-07
1.76147e-06
-2.47209e-06
4.78836e-06
-4.7285e-06
7.64165e-06
-4.69882e-06
9.32696e-06
-3.11284e-06
9.15365e-06
-5.18984e-07
6.67641e-06
2.69847e-06
1.63293e-06
6.26997e-06
-6.10608e-06
1.00057e-05
-1.65749e-05
1.3775e-05
-2.97399e-05
1.74863e-05
-4.55189e-05
2.10753e-05
-6.37952e-05
2.44964e-05
-8.44266e-05
2.77178e-05
-0.000107254
3.07171e-05
-0.000132107
3.34789e-05
-0.000158806
3.59936e-05
-0.000187166
3.82546e-05
-0.000217
4.02597e-05
-0.000248121
4.20082e-05
-0.000280342
4.35012e-05
-0.000313477
4.47418e-05
-0.000347344
4.57341e-05
-0.000381762
4.64826e-05
-0.000416558
4.69932e-05
-0.000451559
4.72722e-05
-0.000486599
4.73258e-05
-0.000521518
4.71614e-05
-0.000556159
4.67864e-05
-0.000590373
4.62081e-05
-0.000624015
4.54345e-05
-0.000656946
4.44737e-05
-0.000689033
4.33337e-05
-0.00072015
4.20223e-05
-0.000750175
4.05478e-05
-0.000778994
3.89186e-05
-0.000806498
3.71429e-05
-0.000832586
3.52289e-05
-0.00085716
3.31853e-05
-0.000880131
3.10206e-05
-0.000901415
2.87435e-05
-0.000920936
2.63624e-05
-0.000938623
2.38861e-05
-0.000954412
2.13235e-05
-0.000968246
1.86834e-05
-0.000980073
1.59748e-05
-0.00098985
1.32068e-05
-0.00099754
1.03887e-05
-0.00100311
7.52978e-06
-0.00100654
4.63948e-06
-0.00100782
1.7274e-06
-0.00100693
-1.19686e-06
-0.00100387
-4.12347e-06
-0.000998648
-7.04244e-06
-0.000991279
-9.94373e-06
-0.000981782
-1.28172e-05
-0.000970187
-1.56525e-05
-0.000956528
-1.84393e-05
-0.00094085
-2.11669e-05
-0.000923204
-2.38247e-05
-0.000903651
-2.64022e-05
-0.000882258
-2.88887e-05
-0.000859101
-3.12734e-05
-0.000834263
-3.35452e-05
-0.000807836
-3.56935e-05
-0.000779919
-3.77075e-05
-0.000750621
-3.95766e-05
-0.000720055
-4.12905e-05
-0.000688346
-4.28386e-05
-0.000655622
-4.42108e-05
-0.000622022
-4.53971e-05
-0.00058769
-4.63879e-05
-0.000552777
-4.71743e-05
-0.000517442
-4.77473e-05
-0.000481846
-4.80986e-05
-0.000446161
-4.82204e-05
-0.00041056
-4.81055e-05
-0.000375223
-4.77476e-05
-0.000340333
-4.71412e-05
-0.000306077
-4.62814e-05
-0.000272642
-4.51645e-05
-0.000240222
-4.37877e-05
-0.000209006
-4.21497e-05
-0.000179187
-4.02505e-05
-0.000150953
-3.80921e-05
-0.000124491
-3.56784e-05
-9.99826e-05
-3.30159e-05
-7.75994e-05
-3.01144e-05
-5.75038e-05
-2.69878e-05
-3.98426e-05
-2.36553e-05
-2.47421e-05
-2.01433e-05
-1.23011e-05
-1.64877e-05
-2.58053e-06
-1.27379e-05
4.40985e-06
-8.96214e-06
8.73117e-06
-5.25633e-06
1.05425e-05
-1.75635e-06
1.01386e-05
1.34334e-06
8.00063e-06
3.76486e-06
4.8564e-06
5.11517e-06
1.72952e-06
4.85846e-06
2.40592e-06
1.97339e-06
-4.44558e-06
4.94354e-06
-7.69867e-06
7.12593e-06
-6.88126e-06
7.31072e-06
-3.29768e-06
4.62241e-06
2.16925e-06
-1.5397e-06
8.8608e-06
-1.15526e-05
1.62829e-05
-2.56203e-05
2.40732e-05
-4.38139e-05
3.19685e-05
-6.61043e-05
3.97766e-05
-9.23869e-05
4.7358e-05
-0.000122501
5.46107e-05
-0.000156245
6.14618e-05
-0.000193386
6.78581e-05
-0.000233669
7.37624e-05
-0.000276825
7.91492e-05
-0.000322573
8.40025e-05
-0.000370626
8.83128e-05
-0.000420694
9.20764e-05
-0.000472487
9.5294e-05
-0.000525715
9.79699e-05
-0.000580091
0.000100111
-0.000635335
0.000101726
-0.000691168
0.000102827
-0.000747321
0.000103425
-0.00080353
0.000103535
-0.000859539
0.00010317
-0.000915099
0.000102347
-0.000969972
0.000101081
-0.00102393
9.93886e-05
-0.00107674
9.72871e-05
-0.0011282
9.47935e-05
-0.0011781
9.19254e-05
-0.00122626
8.87005e-05
-0.00127247
8.51366e-05
-0.00131658
8.12517e-05
-0.00135842
7.70644e-05
-0.00139783
7.25931e-05
-0.00143466
6.78564e-05
-0.00146879
6.28729e-05
-0.00150009
5.7662e-05
-0.00152845
5.22426e-05
-0.00155376
4.66339e-05
-0.00157593
4.08557e-05
-0.00159488
3.49278e-05
-0.00161055
2.88699e-05
-0.00162286
2.27022e-05
-0.00163177
1.64454e-05
-0.00163726
1.01203e-05
-0.00163928
3.74792e-06
-0.00163782
-2.65062e-06
-0.00163289
-9.05367e-06
-0.0016245
-1.54393e-05
-0.00161265
-2.17855e-05
-0.0015974
-2.807e-05
-0.00157878
-3.42701e-05
-0.00155686
-4.03629e-05
-0.0015317
-4.63254e-05
-0.00150339
-5.21343e-05
-0.00147203
-5.77663e-05
-0.00143772
-6.3198e-05
-0.00140059
-6.84059e-05
-0.00136076
-7.33664e-05
-0.0013184
-7.8056e-05
-0.00127366
-8.24515e-05
-0.0012267
-8.65298e-05
-0.00117773
-9.02682e-05
-0.00112692
-9.36443e-05
-0.0010745
-9.66364e-05
-0.00102067
-9.92232e-05
-0.000965674
-0.000101384
-0.000909748
-0.0001031
-0.000853145
-0.000104351
-0.000796123
-0.000105121
-0.000738951
-0.000105392
-0.000681905
-0.000105151
-0.000625269
-0.000104384
-0.000569331
-0.000103079
-0.000514384
-0.000101228
-0.000460726
-9.88228e-05
-0.000408654
-9.58593e-05
-0.000358468
-9.23362e-05
-0.000310463
-8.82555e-05
-0.000264932
-8.36234e-05
-0.000222159
-7.84512e-05
-0.000182419
-7.2756e-05
-0.000145971
-6.65624e-05
-0.000113054
-5.99043e-05
-8.38819e-05
-5.28276e-05
-5.86313e-05
-4.53939e-05
-3.74341e-05
-3.7685e-05
-2.03614e-05
-2.98106e-05
-7.4054e-06
-2.19181e-05
1.54524e-06
-1.4207e-05
6.73671e-06
-6.94784e-06
8.5899e-06
-5.09838e-07
7.74833e-06
4.60642e-06
5.12928e-06
7.73421e-06
1.97288e-06
8.01482e-06
4.37878e-06
1.59018e-06
-6.03577e-06
3.46649e-06
-9.57524e-06
3.74442e-06
-7.15896e-06
1.12582e-06
-6.78769e-07
-5.34115e-06
8.63593e-06
-1.63267e-05
1.98463e-05
-3.22688e-05
3.22249e-05
-5.34148e-05
4.52196e-05
-7.98602e-05
5.84139e-05
-0.00011158
7.14965e-05
-0.000148456
8.42334e-05
-0.000190295
9.64503e-05
-0.000236851
0.000108018
-0.000287834
0.000118841
-0.000342922
0.000128851
-0.000401772
0.000137999
-0.000464022
0.000146253
-0.000529302
0.000153592
-0.000597233
0.000160008
-0.000667435
0.000165496
-0.000739528
0.000170063
-0.000813133
0.000173716
-0.000887878
0.00017647
-0.000963393
0.000178343
-0.00103932
0.000179352
-0.00111531
0.000179521
-0.00119101
0.000178873
-0.0012661
0.000177435
-0.00134025
0.000175232
-0.00141315
0.000172292
-0.00148451
0.000168645
-0.00155404
0.000164319
-0.00162146
0.000159345
-0.00168651
0.000153752
-0.00174894
0.000147572
-0.00180853
0.000140836
-0.00186504
0.000133575
-0.00191827
0.000125822
-0.00196802
0.000117608
-0.00201411
0.000108966
-0.00205638
9.99299e-05
-0.00209467
9.05318e-05
-0.00212884
8.08059e-05
-0.00215877
7.07859e-05
-0.00218435
6.05062e-05
-0.00220548
5.00017e-05
-0.00222209
3.93075e-05
-0.0022341
2.84593e-05
-0.00224147
1.74931e-05
-0.00224417
6.44548e-06
-0.00224218
-4.64644e-06
-0.00223548
-1.57452e-05
-0.00222411
-2.6813e-05
-0.00220808
-3.78111e-05
-0.00218745
-4.87009e-05
-0.00216228
-5.94432e-05
-0.00213265
-6.99983e-05
-0.00209864
-8.03261e-05
-0.00206039
-9.03865e-05
-0.00201802
-0.000100139
-0.00197167
-0.000109543
-0.00192152
-0.000118558
-0.00186774
-0.000127144
-0.00181054
-0.00013526
-0.00175013
-0.000142865
-0.00168674
-0.000149922
-0.00162061
-0.00015639
-0.00155203
-0.000162231
-0.00148126
-0.000167408
-0.0014086
-0.000171884
-0.00133435
-0.000175626
-0.00125885
-0.0001786
-0.00118243
-0.000180774
-0.00110543
-0.000182119
-0.00102822
-0.000182607
-0.000951153
-0.000182214
-0.000874618
-0.000180919
-0.000798994
-0.000178703
-0.00072467
-0.000175552
-0.000652038
-0.000171455
-0.000581491
-0.000166406
-0.000513422
-0.000160406
-0.000448217
-0.00015346
-0.000386257
-0.000145583
-0.000327911
-0.000136798
-0.000273529
-0.000127137
-0.000223444
-0.000116648
-0.000177955
-0.000105393
-0.000137328
-9.34551e-05
-0.000101778
-8.09444e-05
-7.14585e-05
-6.80039e-05
-4.6448e-05
-5.48211e-05
-2.67248e-05
-4.16415e-05
-1.2144e-05
-2.87877e-05
-2.40726e-06
-1.66846e-05
2.97418e-06
-5.89126e-06
4.72126e-06
2.85934e-06
3.83308e-06
8.62237e-06
1.64535e-06
1.02025e-05
6.02413e-06
8.63856e-07
-6.89952e-06
9.28568e-07
-9.63997e-06
-1.59539e-06
-4.63516e-06
-7.98445e-06
5.71012e-06
-1.91873e-05
1.98393e-05
-3.58852e-05
3.6544e-05
-5.85297e-05
5.48696e-05
-8.73817e-05
7.40715e-05
-0.000122543
9.35756e-05
-0.000163986
0.000112939
-0.000211575
0.000131823
-0.000265094
0.000149969
-0.000324258
0.000167182
-0.00038873
0.000183313
-0.000458135
0.000198256
-0.000532066
0.00021193
-0.000610095
0.000224282
-0.000691779
0.000235276
-0.000776664
0.000244892
-0.000864291
0.000253124
-0.000954201
0.000259972
-0.00104593
0.000265449
-0.00113903
0.000269571
-0.00123305
0.000272362
-0.00132755
0.000273849
-0.00142209
0.000274065
-0.00151626
0.000273043
-0.00160965
0.000270821
-0.00170186
0.000267439
-0.0017925
0.000262937
-0.00188121
0.000257358
-0.00196764
0.000250746
-0.00205144
0.000243147
-0.0021323
0.000234605
-0.00220989
0.000225168
-0.00228394
0.000214883
-0.00235416
0.000203798
-0.0024203
0.000191961
-0.00248212
0.000179422
-0.00253938
0.000166231
-0.00259189
0.000152437
-0.00263945
0.000138091
-0.00268189
0.000123246
-0.00271905
0.000107951
-0.00275081
9.22617e-05
-0.00277704
7.62294e-05
-0.00279764
5.99083e-05
-0.00281253
4.33531e-05
-0.00282166
2.6619e-05
-0.00282497
9.76177e-06
-0.00282246
-7.16203e-06
-0.00281411
-2.40949e-05
-0.00279994
-4.09787e-05
-0.00278
-5.77551e-05
-0.00275433
-7.43646e-05
-0.00272303
-9.07474e-05
-0.00268618
-0.000106843
-0.00264392
-0.00012259
-0.00259638
-0.000137928
-0.00254372
-0.000152795
-0.00248614
-0.00016713
-0.00242382
-0.00018087
-0.00235701
-0.000193954
-0.00228595
-0.000206322
-0.0022109
-0.000217912
-0.00213216
-0.000228665
-0.00205003
-0.000238522
-0.00196483
-0.000247426
-0.00187692
-0.000255319
-0.00178666
-0.000262148
-0.00169442
-0.000267862
-0.00160061
-0.000272409
-0.00150564
-0.000275744
-0.00140994
-0.000277823
-0.00131394
-0.000278605
-0.0012181
-0.000278056
-0.00112288
-0.000276143
-0.00102874
-0.000272841
-0.000936159
-0.000268131
-0.000845616
-0.000261997
-0.000757586
-0.000254436
-0.000672542
-0.000245449
-0.000590952
-0.000235051
-0.000513271
-0.000223264
-0.000439939
-0.00021013
-0.000371375
-0.000195701
-0.000307968
-0.000180055
-0.000250072
-0.000163289
-0.000197991
-0.000145535
-0.000151975
-0.000126961
-0.000112197
-0.000107781
-7.87445e-05
-8.8274e-05
-5.15919e-05
-6.87941e-05
-3.05816e-05
-4.9798e-05
-1.53951e-05
-3.18712e-05
-5.52169e-06
-1.57646e-05
-2.23638e-07
-2.43868e-06
1.50419e-06
6.89453e-06
9.87411e-07
1.07192e-05
7.01155e-06
-4.79502e-08
-6.85153e-06
-2.25818e-06
-7.43007e-06
-8.20277e-06
1.30945e-06
-1.90564e-05
1.6564e-05
-3.57045e-05
3.64872e-05
-5.87897e-05
5.96293e-05
-8.87418e-05
8.48214e-05
-0.000125807
0.000111137
-0.000170075
0.000137843
-0.000221501
0.000164365
-0.000279933
0.000190254
-0.000345125
0.000215161
-0.000416759
0.000238816
-0.000494458
0.000261013
-0.000577799
0.000281597
-0.000666323
0.000300453
-0.000759542
0.000317501
-0.000856951
0.000332685
-0.00095803
0.000345972
-0.00106225
0.000357347
-0.00116909
0.000366808
-0.00127801
0.000374366
-0.00138848
0.000380042
-0.00149998
0.000383865
-0.001612
0.000385871
-0.00172404
0.000386102
-0.0018356
0.000384604
-0.00194621
0.000381427
-0.00205539
0.000376624
-0.00216271
0.000370253
-0.00226772
0.000362372
-0.00237002
0.00035304
-0.00246919
0.000342322
-0.00256487
0.00033028
-0.00265668
0.000316981
-0.00274428
0.000302489
-0.00282736
0.000286871
-0.00290559
0.000270198
-0.00297871
0.000252536
-0.00304643
0.000233957
-0.00310853
0.00021453
-0.00316476
0.000194327
-0.00321494
0.000173422
-0.00325887
0.000151886
-0.0032964
0.000129793
-0.0033274
0.00010722
-0.00335173
8.42416e-05
-0.00336931
6.09348e-05
-0.00338007
3.73775e-05
-0.00338396
1.36485e-05
-0.00338094
-1.01723e-05
-0.00337104
-3.40042e-05
-0.00335425
-5.77655e-05
-0.00333063
-8.13737e-05
-0.00330025
-0.000104745
-0.0032632
-0.000127796
-0.0032196
-0.00015044
-0.0031696
-0.000172593
-0.00311336
-0.000194169
-0.00305107
-0.000215081
-0.00298296
-0.000235242
-0.00290926
-0.000254567
-0.00283025
-0.00027297
-0.00274621
-0.000290364
-0.00265745
-0.000306666
-0.00256433
-0.000321792
-0.00246719
-0.00033566
-0.00236643
-0.00034819
-0.00226244
-0.000359304
-0.00215566
-0.000368927
-0.00204654
-0.000376987
-0.00193553
-0.000383415
-0.00182313
-0.000388148
-0.00170982
-0.000391125
-0.00159614
-0.000392293
-0.00148259
-0.000391603
-0.00136972
-0.000389013
-0.00125807
-0.00038449
-0.00114819
-0.000378009
-0.00104064
-0.000369553
-0.000935955
-0.000359118
-0.000834693
-0.000346712
-0.000737386
-0.000332357
-0.000644558
-0.000316093
-0.00055671
-0.000297977
-0.000474319
-0.000278093
-0.000397825
-0.000256549
-0.000327626
-0.000233489
-0.000264065
-0.000209096
-0.000207421
-0.000183605
-0.000157892
-0.000157311
-0.000115577
-0.000130589
-8.04622e-05
-0.000103909
-5.23967e-05
-7.78635e-05
-3.10699e-05
-5.3198e-05
-1.59863e-05
-3.08482e-05
-6.4377e-06
-1.19872e-05
-1.47244e-06
1.9293e-06
1.43214e-07
9.10357e-06
7.15477e-06
-1.05396e-06
-5.7974e-06
-5.81555e-06
-2.66853e-06
-1.55873e-05
1.10812e-05
-3.13839e-05
3.23602e-05
-5.39831e-05
5.90868e-05
-8.39536e-05
8.95998e-05
-0.000121672
0.00012254
-0.000167346
0.000156811
-0.000221034
0.000191531
-0.000282664
0.000225996
-0.000352056
0.000259646
-0.000428933
0.000292038
-0.000512943
0.000322826
-0.000603672
0.000351741
-0.000700651
0.000378576
-0.000803375
0.000403177
-0.000911304
0.000425431
-0.00102388
0.00044526
-0.00114052
0.000462614
-0.00126064
0.000477468
-0.00138365
0.000489815
-0.00150895
0.000499664
-0.00163595
0.000507039
-0.00176405
0.000511974
-0.0018927
0.000514513
-0.0020213
0.000514708
-0.00214932
0.000512618
-0.0022762
0.000508306
-0.00240141
0.000501843
-0.00252446
0.000493301
-0.00264485
0.000482756
-0.00276209
0.000470287
-0.00287575
0.000455978
-0.00298538
0.00043991
-0.00309057
0.000422171
-0.00319093
0.000402848
-0.00328609
0.00038203
-0.00337569
0.000359806
-0.00345943
0.000336269
-0.00353698
0.000311511
-0.00360808
0.000285627
-0.00367246
0.000258712
-0.0037299
0.000230861
-0.00378019
0.000202172
-0.00382314
0.000172745
-0.0038586
0.000142679
-0.00388643
0.000112075
-0.00390654
8.10361e-05
-0.00391882
4.96652e-05
-0.00392324
1.80678e-05
-0.00391977
-1.36499e-05
-0.00390839
-4.53803e-05
-0.00388914
-7.70147e-05
-0.00386207
-0.000108443
-0.00382726
-0.000139554
-0.00378482
-0.000170237
-0.00373488
-0.000200377
-0.00367762
-0.000229862
-0.00361321
-0.000258576
-0.00354188
-0.000286407
-0.00346388
-0.000313239
-0.00337949
-0.000338958
-0.00328901
-0.00036345
-0.00319278
-0.000386602
-0.00309114
-0.000408302
-0.00298449
-0.000428441
-0.00287324
-0.000446911
-0.00275783
-0.000463605
-0.00263871
-0.000478422
-0.00251637
-0.000491263
-0.00239132
-0.000502035
-0.00226409
-0.000510647
-0.00213522
-0.000517016
-0.00200528
-0.000521065
-0.00187485
-0.000522725
-0.00174452
-0.000521933
-0.0016149
-0.000518637
-0.00148659
-0.000512795
-0.00136023
-0.000504377
-0.00123641
-0.000493365
-0.00111577
-0.000479757
-0.000998919
-0.000463568
-0.000886445
-0.000444831
-0.000778933
-0.000423604
-0.000676943
-0.000399968
-0.000580999
-0.000374036
-0.000491591
-0.000345957
-0.000409157
-0.000315923
-0.000334077
-0.000284175
-0.000266662
-0.00025102
-0.000207134
-0.000216839
-0.00015562
-0.000182104
-0.000112126
-0.000147402
-7.65292e-05
-0.000113461
-4.85494e-05
-8.11777e-05
-2.7737e-05
-5.16606e-05
-1.34495e-05
-2.62747e-05
-4.83273e-06
-6.68739e-06
-7.99816e-07
5.07071e-06
6.35497e-06
-2.09881e-06
-3.6984e-06
-9.56362e-06
4.79627e-06
-2.34098e-05
2.49272e-05
-4.44601e-05
5.34109e-05
-7.33567e-05
8.79832e-05
-0.000110564
0.000126807
-0.000156382
0.000168359
-0.000210961
0.000211389
-0.00027431
0.00025488
-0.000346318
0.000298004
-0.000426766
0.000340094
-0.000515345
0.000380616
-0.000611663
0.000419145
-0.000715267
0.000455345
-0.000825649
0.000488958
-0.000942258
0.000519785
-0.00106451
0.00054768
-0.00119179
0.000572539
-0.00132346
0.000594293
-0.0014589
0.000612904
-0.00159744
0.000628358
-0.00173844
0.000640662
-0.00188124
0.000649841
-0.0020252
0.000655934
-0.00216968
0.000658993
-0.00231406
0.000659081
-0.00245771
0.000656269
-0.00260004
0.000650636
-0.00274046
0.000642268
-0.00287842
0.000631255
-0.00301335
0.000617693
-0.00314475
0.000601682
-0.0032721
0.000583325
-0.00339491
0.000562728
-0.00351274
0.000539999
-0.00362514
0.00051525
-0.0037317
0.000488592
-0.00383204
0.000460143
-0.00392579
0.000430017
-0.00401261
0.000398333
-0.0040922
0.000365212
-0.00416426
0.000330775
-0.00422854
0.000295144
-0.00428481
0.000258445
-0.00433287
0.000220803
-0.00437254
0.000182348
-0.00440367
0.000143206
-0.00442615
0.000103511
-0.00443988
6.33944e-05
-0.0044448
2.29904e-05
-0.00444088
-1.75651e-05
-0.00442813
-5.81345e-05
-0.00440657
-9.85789e-05
-0.00437625
-0.000138758
-0.00433728
-0.00017853
-0.00428976
-0.000217752
-0.00423386
-0.000256279
-0.00416975
-0.000293968
-0.00409766
-0.000330672
-0.00401782
-0.000366247
-0.00393051
-0.000400545
-0.00383605
-0.000433423
-0.00373476
-0.000464735
-0.00362703
-0.000494337
-0.00351324
-0.000522089
-0.00339383
-0.000547851
-0.00326925
-0.000571486
-0.00314
-0.000592861
-0.00300657
-0.000611846
-0.00286952
-0.000628319
-0.00272939
-0.00064216
-0.00258678
-0.000653258
-0.00244229
-0.000661507
-0.00229654
-0.000666813
-0.00215018
-0.000669087
-0.00200386
-0.000668256
-0.00185824
-0.000664254
-0.001714
-0.000657031
-0.00157183
-0.000646553
-0.00143239
-0.000632801
-0.00129637
-0.000615776
-0.00116444
-0.000595502
-0.00103724
-0.000572026
-0.000915422
-0.000545424
-0.000799585
-0.000515806
-0.000690304
-0.000483317
-0.000588111
-0.00044815
-0.000493487
-0.000410547
-0.000406848
-0.000370814
-0.00032854
-0.000329329
-0.000258818
-0.00028656
-0.000197842
-0.00024308
-0.000145656
-0.000199588
-0.000102176
-0.000156941
-6.7177e-05
-0.000116177
-4.02768e-05
-7.85608e-05
-2.09265e-05
-4.5625e-05
-8.39979e-06
-1.92141e-05
-1.78794e-06
-1.54108e-06
4.56704e-06
-3.14998e-06
-5.48663e-07
-1.33852e-05
1.50317e-05
-3.1439e-05
4.2981e-05
-5.79301e-05
7.99017e-05
-9.33419e-05
0.000123395
-0.000138019
0.000171484
-0.000192167
0.000222507
-0.000255859
0.000275081
-0.000329043
0.000328064
-0.000411557
0.000380518
-0.000503136
0.000431673
-0.000603426
0.000480907
-0.000711998
0.000527717
-0.000828356
0.000571703
-0.00095195
0.000612553
-0.00108219
0.000650021
-0.00121843
0.000683928
-0.00136004
0.00071414
-0.00150631
0.00074057
-0.00165657
0.000763164
-0.00181011
0.0007819
-0.00196623
0.000796781
-0.00212423
0.000807833
-0.00228339
0.0008151
-0.00244304
0.000818641
-0.00260249
0.00081853
-0.00276107
0.000814852
-0.00291814
0.0008077
-0.00307305
0.000797178
-0.00322519
0.000783396
-0.00337396
0.000766469
-0.0035188
0.000746519
-0.00365915
0.000723672
-0.00379448
0.000698058
-0.00392429
0.00066981
-0.0040481
0.000639064
-0.00416547
0.00060596
-0.00427597
0.000570639
-0.0043792
0.000533246
-0.00447479
0.000493926
-0.00456241
0.000452828
-0.00464173
0.000410102
-0.00471249
0.000365901
-0.00477442
0.000320379
-0.00482731
0.000273692
-0.00487096
0.000225998
-0.00490522
0.000177459
-0.00492994
0.000128235
-0.00494504
7.8492e-05
-0.00495044
2.83956e-05
-0.00494612
-2.18858e-05
-0.00493207
-7.21821e-05
-0.00490833
-0.000122321
-0.00487496
-0.00017213
-0.00483206
-0.000221432
-0.00477976
-0.000270051
-0.00471823
-0.000317809
-0.00464767
-0.000364527
-0.00456832
-0.000410026
-0.00448044
-0.000454126
-0.00438433
-0.000496647
-0.00428035
-0.00053741
-0.00416884
-0.000576237
-0.00405023
-0.000612952
-0.00392494
-0.000647379
-0.00379344
-0.000679349
-0.00365624
-0.000708693
-0.00351385
-0.000735247
-0.00336684
-0.000758855
-0.0032158
-0.000779364
-0.00306133
-0.00079663
-0.00290407
-0.000810516
-0.00274468
-0.000820896
-0.00258384
-0.000827654
-0.00242224
-0.000830685
-0.0022606
-0.000829898
-0.00209963
-0.000825218
-0.00194008
-0.000816587
-0.00178266
-0.000803965
-0.00162813
-0.000787333
-0.00147721
-0.000766698
-0.00133062
-0.000742092
-0.00118907
-0.000713577
-0.00105324
-0.000681253
-0.00092379
-0.000645255
-0.000801339
-0.000605768
-0.000686461
-0.000563028
-0.000579678
-0.00051733
-0.000481447
-0.000469045
-0.00039215
-0.000418626
-0.000312085
-0.000366624
-0.000241454
-0.000313711
-0.000180348
-0.000260694
-0.000128739
-0.000208549
-8.64719e-05
-0.000158445
-5.32509e-05
-0.000111782
-2.86394e-05
-7.02365e-05
-1.20575e-05
-3.5796e-05
-2.78872e-06
-1.08098e-05
1.77832e-06
-4.18836e-06
3.63967e-06
-1.72069e-05
2.80501e-05
-3.95217e-05
6.52959e-05
-7.15452e-05
0.000111925
-0.000113595
0.000165445
-0.000165883
0.000223771
-0.000228504
0.000285128
-0.000301445
0.000348021
-0.00038458
0.0004112
-0.000477684
0.000473622
-0.000580439
0.000534428
-0.000692443
0.00059291
-0.000813219
0.000648493
-0.000942229
0.000700713
-0.00107888
0.000749203
-0.00122253
0.000793675
-0.00137252
0.00083391
-0.00152812
0.000869749
-0.00168864
0.000901081
-0.00185331
0.000927838
-0.0020214
0.000949989
-0.00219215
0.000967532
-0.00236481
0.000980493
-0.00253863
0.000988921
-0.00271287
0.000992883
-0.0028868
0.000992462
-0.00305971
0.000987758
-0.00323089
0.00097888
-0.00339966
0.00096595
-0.00356536
0.000949097
-0.00372736
0.00092846
-0.00388502
0.000904182
-0.00403776
0.000876413
-0.00418501
0.000845309
-0.00432623
0.000811031
-0.00446091
0.00077374
-0.00458855
0.000733605
-0.00470871
0.000690796
-0.00482095
0.000645487
-0.00492488
0.000597853
-0.00502012
0.000548074
-0.00510635
0.000496331
-0.00518326
0.000442808
-0.00525057
0.000387691
-0.00530805
0.00033117
-0.00535548
0.000273435
-0.0053927
0.00021468
-0.00541957
0.000155102
-0.00543598
9.48985e-05
-0.00544185
3.42708e-05
-0.00543716
-2.6578e-05
-0.0054219
-8.74422e-05
-0.00539611
-0.000148114
-0.00535985
-0.000208385
-0.00531324
-0.000268041
-0.00525642
-0.000326872
-0.00518957
-0.000384661
-0.00511291
-0.000441193
-0.00502668
-0.000496253
-0.00493118
-0.000549622
-0.00482674
-0.000601087
-0.00471372
-0.000650429
-0.00459252
-0.000697437
-0.00446358
-0.000741897
-0.00432736
-0.000783601
-0.00418436
-0.000822343
-0.00403513
-0.000857923
-0.00388024
-0.000890144
-0.00372027
-0.000918817
-0.00355587
-0.000943763
-0.0033877
-0.000964808
-0.00321642
-0.00098179
-0.00304276
-0.00099456
-0.00286744
-0.00100298
-0.0026912
-0.00100692
-0.00251481
-0.00100629
-0.00233904
-0.00100099
-0.00216467
-0.000990951
-0.0019925
-0.000976137
-0.00182331
-0.000956527
-0.00165788
-0.000932131
-0.00149697
-0.000902992
-0.00134136
-0.000869191
-0.00119177
-0.000830848
-0.00104889
-0.00078813
-0.000913402
-0.000741258
-0.000785916
-0.000690513
-0.000666998
-0.000636248
-0.000557148
-0.000578895
-0.000456795
-0.00051898
-0.000366281
-0.000457138
-0.000285858
-0.000394133
-0.000215678
-0.000330875
-0.000155779
-0.000268447
-0.000106088
-0.000208135
-6.64105e-05
-0.00015146
-3.64329e-05
-0.000100214
-1.5731e-05
-5.64979e-05
-3.78294e-06
-2.27578e-05
-2.00462e-06
-5.2044e-06
8.84407e-06
-2.09831e-05
4.38288e-05
-4.7558e-05
9.18706e-05
-8.5139e-05
0.000149506
-0.000133877
0.000214183
-0.000193841
0.000283736
-0.000265012
0.000356299
-0.000347277
0.000430286
-0.000440428
0.000504352
-0.000544171
0.000577365
-0.000658124
0.000648381
-0.000781829
0.000716615
-0.000914762
0.000781425
-0.00105633
0.000842286
-0.00120591
0.000898778
-0.00136281
0.00095057
-0.0015263
0.000997408
-0.00169566
0.0010391
-0.0018701
0.00107552
-0.00204885
0.00110658
-0.0022311
0.00113225
-0.00241607
0.0011525
-0.00260296
0.00116738
-0.00279097
0.00117693
-0.00297931
0.00118123
-0.00316722
0.00118037
-0.00335393
0.00117446
-0.00353869
0.00116364
-0.00372078
0.00114804
-0.0038995
0.00112782
-0.00407417
0.00110312
-0.00424412
0.00107413
-0.00440873
0.00104102
-0.00456738
0.00100397
-0.00471951
0.000963161
-0.00486457
0.000918795
-0.00500203
0.000871066
-0.00513141
0.000820176
-0.00525225
0.000766328
-0.00536413
0.000709732
-0.00546665
0.000650598
-0.00555946
0.000589142
-0.00564224
0.000525581
-0.00571468
0.000460135
-0.00577654
0.000393029
-0.00582759
0.000324488
-0.00586766
0.000254742
-0.00589658
0.000184023
-0.00591425
0.000112567
-0.00592059
4.06107e-05
-0.00591556
-3.16049e-05
-0.00589916
-0.000103837
-0.00587144
-0.000175839
-0.00583246
-0.000247363
-0.00578234
-0.000318159
-0.00572124
-0.000387976
-0.00564934
-0.000456559
-0.00556688
-0.000523654
-0.00547413
-0.000589005
-0.00537139
-0.000652357
-0.00525902
-0.000713455
-0.00513741
-0.000772044
-0.00500697
-0.000827873
-0.00486818
-0.000880691
-0.00472153
-0.000930253
-0.00456756
-0.000976316
-0.00440684
-0.00101864
-0.00423997
-0.00105701
-0.0040676
-0.00109119
-0.0038904
-0.00112097
-0.00370906
-0.00114615
-0.00352431
-0.00116654
-0.00333691
-0.00118196
-0.00314762
-0.00119227
-0.00295724
-0.0011973
-0.00276659
-0.00119695
-0.00257647
-0.0011911
-0.00238772
-0.0011797
-0.00220119
-0.00116267
-0.00201769
-0.00114002
-0.00183807
-0.00111175
-0.00166314
-0.00107792
-0.0014937
-0.00103863
-0.00133053
-0.000994018
-0.00117438
-0.000944282
-0.00102595
-0.000889682
-0.000885918
-0.000830546
-0.000754887
-0.00076728
-0.000633405
-0.000700377
-0.000521948
-0.000630437
-0.000420914
-0.000558172
-0.000330613
-0.000484434
-0.000251263
-0.000410225
-0.000182981
-0.000336729
-0.000125784
-0.000265333
-7.95858e-05
-0.000197658
-4.42046e-05
-0.000135595
-1.93734e-05
-8.13292e-05
-4.7595e-06
-3.73717e-05
-6.76413e-06
-6.19291e-06
1.50369e-05
-2.46879e-05
6.23237e-05
-5.54851e-05
0.000122668
-9.86022e-05
0.000192623
-0.000154023
0.000269604
-0.000221677
0.000351389
-0.00030142
0.000436043
-0.000393037
0.000521903
-0.00049623
0.000607545
-0.000610625
0.00069176
-0.000735774
0.00077353
-0.000871159
0.000852
-0.0010162
0.000926464
-0.00117025
0.000996343
-0.00133264
0.00106117
-0.00150263
0.00112056
-0.00167946
0.00117424
-0.00186234
0.00122198
-0.00205046
0.00126364
-0.00224299
0.00129912
-0.0024391
0.00132836
-0.00263795
0.00135135
-0.00283869
0.00136812
-0.00304049
0.00137873
-0.00324252
0.00138326
-0.00344397
0.00138181
-0.00364402
0.00137452
-0.00384191
0.00136153
-0.00403686
0.00134299
-0.00422813
0.00131909
-0.004415
0.00129
-0.00459678
0.00125591
-0.0047728
0.00121704
-0.00494241
0.00117358
-0.00510501
0.00112576
-0.00526003
0.00107381
-0.0054069
0.00101794
-0.00554512
0.000958397
-0.00567421
0.000895412
-0.00579371
0.00082923
-0.00590321
0.000760096
-0.00600232
0.00068826
-0.00609072
0.000613976
-0.00616808
0.000537499
-0.00623414
0.00045909
-0.00628867
0.000379013
-0.00633146
0.000297536
-0.00636237
0.000214927
-0.00638126
0.000131462
-0.00638807
4.74171e-05
-0.00638275
-3.69278e-05
-0.00636529
-0.00012129
-0.00633575
-0.000205382
-0.0062942
-0.000288917
-0.00624075
-0.000371602
-0.00617558
-0.000453146
-0.00609889
-0.000533254
-0.00601091
-0.000611628
-0.00591194
-0.000687974
-0.00580231
-0.000761993
-0.00568237
-0.000833389
-0.00555255
-0.000901868
-0.00541329
-0.000967138
-0.00526507
-0.00102891
-0.00510843
-0.00108689
-0.00494393
-0.00114081
-0.00477219
-0.00119039
-0.00459382
-0.00123537
-0.00440952
-0.00127549
-0.00421999
-0.0013105
-0.00402596
-0.00134017
-0.00382821
-0.00136429
-0.00362751
-0.00138266
-0.0034247
-0.00139508
-0.00322061
-0.0014014
-0.00301608
-0.00140147
-0.002812
-0.00139519
-0.00260922
-0.00138247
-0.00240864
-0.00136325
-0.00221114
-0.00133753
-0.00201758
-0.00130531
-0.00182884
-0.00126666
-0.00164577
-0.00122171
-0.00146918
-0.00117061
-0.00129986
-0.00111359
-0.00113859
-0.00105096
-0.000986055
-0.000983076
-0.00084293
-0.000910405
-0.000709809
-0.000833498
-0.000587223
-0.000753023
-0.000475629
-0.000669767
-0.000375403
-0.00058466
-0.000286834
-0.000498793
-0.000210127
-0.000413436
-0.000145394
-0.000330065
-9.26648e-05
-0.000250388