/*--------------------------------*- C++ -*----------------------------------*\
  =========                 |
  \\      /  F ield         | OpenFOAM: The Open Source CFD Toolbox
   \\    /   O peration     | Website:  https://openfoam.org
    \\  /    A nd           | Version:  11
     \\/     M anipulation  |
\*---------------------------------------------------------------------------*/
FoamFile
{
    format      ascii;
    class       volVectorField;
    location    "9.3";
    object      U;
}
// * * * * * * * * * * * * * * * * * * * * * * * * * * * * * * * * * * * * * //

dimensions      [0 1 -1 0 0 0 0];

internalField   nonuniform List<vector> 
10100
(
(3.13102e-06 -2.9617e-06 0)
(1.49891e-05 -7.49506e-06 0)
(3.36856e-05 -8.52799e-06 0)
(5.10022e-05 -7.25282e-06 0)
(6.21748e-05 -4.78256e-06 0)
(6.4839e-05 -1.72171e-06 0)
(5.77595e-05 1.59021e-06 0)
(4.03554e-05 4.9578e-06 0)
(1.24847e-05 8.26657e-06 0)
(-2.57144e-05 1.14682e-05 0)
(-7.3899e-05 1.45023e-05 0)
(-0.000131599 1.73573e-05 0)
(-0.000198266 2.0015e-05 0)
(-0.000273295 2.24587e-05 0)
(-0.000356023 2.46922e-05 0)
(-0.000445786 2.67105e-05 0)
(-0.0005419 2.85103e-05 0)
(-0.000643658 3.00969e-05 0)
(-0.00075038 3.14734e-05 0)
(-0.000861381 3.26405e-05 0)
(-0.000975972 3.3608e-05 0)
(-0.0010935 3.43834e-05 0)
(-0.00121331 3.49668e-05 0)
(-0.00133477 3.53634e-05 0)
(-0.00145726 3.5581e-05 0)
(-0.00158018 3.56238e-05 0)
(-0.00170296 3.54969e-05 0)
(-0.00182502 3.52098e-05 0)
(-0.00194584 3.4771e-05 0)
(-0.0020649 3.41832e-05 0)
(-0.00218169 3.34549e-05 0)
(-0.00229575 3.25946e-05 0)
(-0.00240662 3.1605e-05 0)
(-0.00251386 3.04921e-05 0)
(-0.00261707 2.92633e-05 0)
(-0.00271584 2.79254e-05 0)
(-0.00280983 2.6485e-05 0)
(-0.00289867 2.49476e-05 0)
(-0.00298205 2.33199e-05 0)
(-0.00305966 2.16089e-05 0)
(-0.00313123 1.98204e-05 0)
(-0.00319649 1.79602e-05 0)
(-0.00325521 1.60354e-05 0)
(-0.00330717 1.40534e-05 0)
(-0.0033522 1.20215e-05 0)
(-0.00339012 9.94542e-06 0)
(-0.0034208 7.83032e-06 0)
(-0.0034441 5.68352e-06 0)
(-0.00345995 3.51329e-06 0)
(-0.00346826 1.32684e-06 0)
(-0.003469 -8.69059e-07 0)
(-0.00346215 -3.06745e-06 0)
(-0.00344771 -5.26096e-06 0)
(-0.00342571 -7.44184e-06 0)
(-0.00339621 -9.60274e-06 0)
(-0.0033593 -1.17367e-05 0)
(-0.00331508 -1.38359e-05 0)
(-0.00326369 -1.58921e-05 0)
(-0.0032053 -1.78971e-05 0)
(-0.00314011 -1.98434e-05 0)
(-0.00306832 -2.17233e-05 0)
(-0.0029902 -2.35287e-05 0)
(-0.00290601 -2.52508e-05 0)
(-0.00281606 -2.6881e-05 0)
(-0.00272068 -2.84112e-05 0)
(-0.00262024 -2.98336e-05 0)
(-0.00251512 -3.114e-05 0)
(-0.00240574 -3.23225e-05 0)
(-0.00229255 -3.33725e-05 0)
(-0.00217601 -3.42814e-05 0)
(-0.00205662 -3.50413e-05 0)
(-0.0019349 -3.56457e-05 0)
(-0.0018114 -3.60876e-05 0)
(-0.00168668 -3.63594e-05 0)
(-0.00156134 -3.64535e-05 0)
(-0.00143599 -3.63634e-05 0)
(-0.00131126 -3.60841e-05 0)
(-0.00118779 -3.56105e-05 0)
(-0.00106625 -3.49382e-05 0)
(-0.000947314 -3.40624e-05 0)
(-0.000831664 -3.2979e-05 0)
(-0.000719994 -3.16845e-05 0)
(-0.000613004 -3.01761e-05 0)
(-0.000511392 -2.84528e-05 0)
(-0.000415855 -2.65142e-05 0)
(-0.000327081 -2.43609e-05 0)
(-0.000245741 -2.19947e-05 0)
(-0.000172485 -1.94199e-05 0)
(-0.000107928 -1.66441e-05 0)
(-5.26366e-05 -1.36789e-05 0)
(-7.10876e-06 -1.05429e-05 0)
(2.82548e-05 -7.26391e-06 0)
(5.3191e-05 -3.88661e-06 0)
(6.76403e-05 -4.84224e-07 0)
(7.18483e-05 2.82021e-06 0)
(6.65278e-05 5.81353e-06 0)
(5.30829e-05 8.1283e-06 0)
(3.40769e-05 9.11502e-06 0)
(1.46126e-05 7.67303e-06 0)
(2.8193e-06 2.82081e-06 0)
(8.1176e-06 -1.51514e-05 0)
(3.20335e-05 -3.11541e-05 0)
(6.36402e-05 -3.27728e-05 0)
(8.85691e-05 -2.46516e-05 0)
(9.75029e-05 -1.05924e-05 0)
(8.5069e-05 6.9688e-06 0)
(4.79326e-05 2.63775e-05 0)
(-1.57771e-05 4.6572e-05 0)
(-0.000106806 6.68295e-05 0)
(-0.000225107 8.66691e-05 0)
(-0.000370064 0.000105778 0)
(-0.000540646 0.000123919 0)
(-0.000735553 0.000140945 0)
(-0.000953242 0.000156756 0)
(-0.00119207 0.000171275 0)
(-0.00145027 0.000184467 0)
(-0.00172601 0.000196309 0)
(-0.00201744 0.000206795 0)
(-0.00232268 0.00021592 0)
(-0.00263984 0.000223706 0)
(-0.00296708 0.000230166 0)
(-0.00330253 0.000235331 0)
(-0.00364439 0.000239226 0)
(-0.00399089 0.000241883 0)
(-0.00434028 0.000243339 0)
(-0.00469089 0.000243626 0)
(-0.00504108 0.000242783 0)
(-0.00538926 0.000240852 0)
(-0.0057339 0.000237872 0)
(-0.00607353 0.000233887 0)
(-0.00640672 0.000228935 0)
(-0.00673213 0.000223062 0)
(-0.00704846 0.000216308 0)
(-0.00735446 0.000208715 0)
(-0.00764896 0.000200326 0)
(-0.00793084 0.000191184 0)
(-0.00819904 0.000181332 0)
(-0.00845258 0.000170814 0)
(-0.00869052 0.000159674 0)
(-0.00891199 0.000147956 0)
(-0.00911621 0.000135706 0)
(-0.00930241 0.000122965 0)
(-0.00946994 0.00010978 0)
(-0.00961818 9.61968e-05 0)
(-0.00974661 8.22635e-05 0)
(-0.00985473 6.80246e-05 0)
(-0.00994214 5.35261e-05 0)
(-0.0100085 3.88167e-05 0)
(-0.0100536 2.39464e-05 0)
(-0.0100771 8.96284e-06 0)
(-0.0100791 -6.08505e-06 0)
(-0.0100593 -2.11461e-05 0)
(-0.0100179 -3.61688e-05 0)
(-0.00995492 -5.11021e-05 0)
(-0.00987053 -6.58944e-05 0)
(-0.00976499 -8.04932e-05 0)
(-0.00963861 -9.48445e-05 0)
(-0.00949181 -0.000108894 0)
(-0.00932506 -0.000122587 0)
(-0.0091389 -0.000135869 0)
(-0.008934 -0.000148686 0)
(-0.00871105 -0.000160982 0)
(-0.00847086 -0.000172699 0)
(-0.00821429 -0.000183782 0)
(-0.00794232 -0.000194175 0)
(-0.00765597 -0.000203823 0)
(-0.00735636 -0.000212673 0)
(-0.00704467 -0.000220671 0)
(-0.00672217 -0.000227762 0)
(-0.00639021 -0.000233893 0)
(-0.00605018 -0.000239014 0)
(-0.00570358 -0.000243079 0)
(-0.00535194 -0.000246041 0)
(-0.00499687 -0.000247854 0)
(-0.00464005 -0.000248477 0)
(-0.00428318 -0.000247871 0)
(-0.00392805 -0.000246002 0)
(-0.00357646 -0.00024284 0)
(-0.00323026 -0.000238358 0)
(-0.00289134 -0.000232532 0)
(-0.0025616 -0.000225346 0)
(-0.00224295 -0.000216789 0)
(-0.00193731 -0.000206856 0)
(-0.00164658 -0.000195552 0)
(-0.00137266 -0.000182892 0)
(-0.00111738 -0.000168901 0)
(-0.000882516 -0.000153621 0)
(-0.000669749 -0.000137115 0)
(-0.000480637 -0.000119471 0)
(-0.000316559 -0.000100812 0)
(-0.000178664 -8.13108e-05 0)
(-6.7778e-05 -6.12125e-05 0)
(1.57063e-05 -4.08648e-05 0)
(7.19929e-05 -2.07745e-05 0)
(0.000102114 -1.69166e-06 0)
(0.000108249 1.52585e-05 0)
(9.40774e-05 2.83812e-05 0)
(6.5359e-05 3.51229e-05 0)
(3.1773e-05 3.17868e-05 0)
(7.65364e-06 1.45985e-05 0)
(9.50499e-06 -3.47732e-05 0)
(3.4855e-05 -6.34126e-05 0)
(6.3584e-05 -6.08903e-05 0)
(7.82564e-05 -3.72574e-05 0)
(6.75661e-05 4.48778e-07 0)
(2.44765e-05 4.70611e-05 0)
(-5.57105e-05 9.88767e-05 0)
(-0.000175774 0.000153182 0)
(-0.000337035 0.000208109 0)
(-0.000539618 0.0002623 0)
(-0.000782803 0.000314794 0)
(-0.00106524 0.000364909 0)
(-0.00138506 0.000412161 0)
(-0.00174008 0.0004562 0)
(-0.00212785 0.000496787 0)
(-0.00254572 0.000533776 0)
(-0.00299094 0.000567059 0)
(-0.00346066 0.00059659 0)
(-0.00395198 0.00062236 0)
(-0.004462 0.000644372 0)
(-0.00498782 0.000662669 0)
(-0.00552654 0.000677309 0)
(-0.00607534 0.000688354 0)
(-0.0066314 0.000695888 0)
(-0.00719199 0.000700003 0)
(-0.00775444 0.000700791 0)
(-0.00831616 0.000698355 0)
(-0.00887461 0.000692805 0)
(-0.00942736 0.000684248 0)
(-0.00997205 0.000672799 0)
(-0.0105064 0.000658578 0)
(-0.0110283 0.000641701 0)
(-0.0115356 0.000622288 0)
(-0.0120264 0.000600458 0)
(-0.0124987 0.000576335 0)
(-0.0129507 0.000550042 0)
(-0.0133808 0.0005217 0)
(-0.0137874 0.000491436 0)
(-0.014169 0.000459379 0)
(-0.0145241 0.000425654 0)
(-0.0148516 0.000390388 0)
(-0.0151501 0.000353713 0)
(-0.0154187 0.000315758 0)
(-0.0156563 0.000276655 0)
(-0.0158621 0.000236537 0)
(-0.0160354 0.00019554 0)
(-0.0161754 0.0001538 0)
(-0.0162817 0.000111455 0)
(-0.0163537 6.86464e-05 0)
(-0.0163913 2.5516e-05 0)
(-0.0163941 -1.77936e-05 0)
(-0.0163622 -6.11369e-05 0)
(-0.0162955 -0.000104366 0)
(-0.0161943 -0.00014733 0)
(-0.0160587 -0.00018988 0)
(-0.0158892 -0.000231863 0)
(-0.0156863 -0.000273125 0)
(-0.0154507 -0.000313508 0)
(-0.0151832 -0.000352856 0)
(-0.0148845 -0.00039101 0)
(-0.0145559 -0.000427813 0)
(-0.0141984 -0.000463104 0)
(-0.0138132 -0.000496724 0)
(-0.0134019 -0.000528511 0)
(-0.012966 -0.000558308 0)
(-0.0125071 -0.000585958 0)
(-0.0120269 -0.000611307 0)
(-0.0115275 -0.000634203 0)
(-0.0110108 -0.000654494 0)
(-0.010479 -0.000672034 0)
(-0.00993432 -0.000686684 0)
(-0.00937911 -0.000698308 0)
(-0.00881583 -0.000706779 0)
(-0.00824705 -0.000711973 0)
(-0.0076754 -0.000713778 0)
(-0.00710362 -0.000712088 0)
(-0.00653451 -0.000706813 0)
(-0.00597091 -0.00069787 0)
(-0.00541576 -0.000685193 0)
(-0.004872 -0.000668727 0)
(-0.00434261 -0.000648435 0)
(-0.00383059 -0.000624303 0)
(-0.0033389 -0.000596336 0)
(-0.00287051 -0.000564566 0)
(-0.0024283 -0.000529059 0)
(-0.00201508 -0.00048992 0)
(-0.00163353 -0.000447303 0)
(-0.00128615 -0.000401423 0)
(-0.000975223 -0.000352578 0)
(-0.000702729 -0.000301168 0)
(-0.000470241 -0.000247742 0)
(-0.000278814 -0.00019304 0)
(-0.000128816 -0.000138081 0)
(-1.9717e-05 -8.42699e-05 0)
(5.01902e-05 -3.35627e-05 0)
(8.41481e-05 1.13018e-05 0)
(8.72739e-05 4.65071e-05 0)
(6.70365e-05 6.68274e-05 0)
(3.51975e-05 6.53831e-05 0)
(9.10355e-06 3.40407e-05 0)
(8.38058e-06 -5.36481e-05 0)
(2.73968e-05 -8.99425e-05 0)
(4.14718e-05 -7.60672e-05 0)
(3.27877e-05 -2.80889e-05 0)
(-1.06309e-05 4.33748e-05 0)
(-9.65531e-05 0.000130361 0)
(-0.000230357 0.000226741 0)
(-0.000415393 0.000327986 0)
(-0.000653262 0.000430708 0)
(-0.000944272 0.00053244 0)
(-0.00128764 0.000631341 0)
(-0.00168175 0.000726072 0)
(-0.0021244 0.000815649 0)
(-0.00261285 0.000899359 0)
(-0.00314403 0.000976695 0)
(-0.00371459 0.0010473 0)
(-0.004321 0.00111096 0)
(-0.00495957 0.00116752 0)
(-0.00562657 0.00121693 0)
(-0.00631818 0.00125919 0)
(-0.0070306 0.00129434 0)
(-0.00776002 0.00132247 0)
(-0.00850269 0.00134369 0)
(-0.00925489 0.00135814 0)
(-0.010013 0.00136598 0)
(-0.0107734 0.00136738 0)
(-0.0115327 0.00136254 0)
(-0.0122875 0.00135165 0)
(-0.0130345 0.00133492 0)
(-0.0137705 0.00131256 0)
(-0.0144925 0.00128481 0)
(-0.0151976 0.00125187 0)
(-0.015883 0.001214 0)
(-0.016546 0.00117141 0)
(-0.0171841 0.00112434 0)
(-0.0177947 0.00107303 0)
(-0.0183757 0.00101773 0)
(-0.0189249 0.000958673 0)
(-0.0194403 0.00089611 0)
(-0.01992 0.00083029 0)
(-0.0203622 0.000761462 0)
(-0.0207653 0.000689879 0)
(-0.021128 0.000615798 0)
(-0.0214488 0.000539477 0)
(-0.0217266 0.000461177 0)
(-0.0219603 0.00038116 0)
(-0.0221492 0.000299697 0)
(-0.0222924 0.000217058 0)
(-0.0223895 0.000133518 0)
(-0.0224399 4.93538e-05 0)
(-0.0224434 -3.51527e-05 0)
(-0.0224 -0.000119716 0)
(-0.0223096 -0.000204046 0)
(-0.0221725 -0.000287852 0)
(-0.0219891 -0.000370839 0)
(-0.0217599 -0.000452707 0)
(-0.0214856 -0.000533155 0)
(-0.0211672 -0.000611876 0)
(-0.0208056 -0.000688565 0)
(-0.0204021 -0.000762914 0)
(-0.0199582 -0.000834613 0)
(-0.0194752 -0.000903353 0)
(-0.0189551 -0.000968821 0)
(-0.0183997 -0.00103071 0)
(-0.017811 -0.00108871 0)
(-0.0171914 -0.00114253 0)
(-0.0165432 -0.00119186 0)
(-0.015869 -0.0012364 0)
(-0.0151715 -0.00127588 0)
(-0.0144536 -0.00131001 0)
(-0.0137183 -0.00133852 0)
(-0.0129687 -0.00136116 0)
(-0.0122083 -0.00137769 0)
(-0.0114403 -0.00138787 0)
(-0.0106683 -0.00139149 0)
(-0.00989601 -0.00138836 0)
(-0.00912708 -0.00137831 0)
(-0.00836532 -0.00136119 0)
(-0.00761461 -0.00133689 0)
(-0.00687886 -0.00130531 0)
(-0.00616199 -0.00126641 0)
(-0.00546795 -0.00122017 0)
(-0.00480062 -0.00116662 0)
(-0.00416387 -0.00110587 0)
(-0.00356144 -0.00103807 0)
(-0.00299696 -0.000963459 0)
(-0.00247384 -0.000882372 0)
(-0.00199527 -0.000795276 0)
(-0.0015641 -0.00070279 0)
(-0.00118275 -0.000605741 0)
(-0.000853111 -0.00050522 0)
(-0.000576391 -0.000402678 0)
(-0.000352923 -0.000300042 0)
(-0.000181943 -0.000199884 0)
(-6.13123e-05 -0.000105653 0)
(1.28193e-05 -2.19677e-05 0)
(4.63182e-05 4.50091e-05 0)
(4.74785e-05 8.72139e-05 0)
(2.87736e-05 9.43504e-05 0)
(8.17764e-06 5.31228e-05 0)
(5.90716e-06 -6.65199e-05 0)
(1.35773e-05 -0.000101084 0)
(4.65822e-06 -6.67161e-05 0)
(-3.70397e-05 1.48693e-05 0)
(-0.000122976 0.000129652 0)
(-0.00026109 0.000266829 0)
(-0.000456941 0.000417975 0)
(-0.000713976 0.000576586 0)
(-0.00103397 0.000737721 0)
(-0.00141719 0.000897614 0)
(-0.00186279 0.00105343 0)
(-0.00236896 0.00120302 0)
(-0.00293315 0.00134478 0)
(-0.00355221 0.00147752 0)
(-0.00422258 0.00160037 0)
(-0.00494029 0.00171272 0)
(-0.00570117 0.00181415 0)
(-0.00650086 0.00190437 0)
(-0.00733483 0.00198326 0)
(-0.00819854 0.00205078 0)
(-0.00908736 0.00210696 0)
(-0.00999671 0.0021519 0)
(-0.010922 0.00218577 0)
(-0.0118587 0.00220876 0)
(-0.0128024 0.00222111 0)
(-0.0137486 0.00222309 0)
(-0.0146932 0.00221498 0)
(-0.015632 0.0021971 0)
(-0.016561 0.00216978 0)
(-0.0174762 0.00213334 0)
(-0.0183738 0.00208815 0)
(-0.0192504 0.00203457 0)
(-0.0201024 0.00197296 0)
(-0.0209264 0.0019037 0)
(-0.0217194 0.00182716 0)
(-0.0224784 0.00174374 0)
(-0.0232004 0.00165382 0)
(-0.0238828 0.00155781 0)
(-0.0245232 0.00145609 0)
(-0.0251191 0.00134908 0)
(-0.0256684 0.00123718 0)
(-0.0261692 0.00112079 0)
(-0.0266196 0.00100035 0)
(-0.027018 0.000876272 0)
(-0.0273629 0.000748976 0)
(-0.0276531 0.000618898 0)
(-0.0278875 0.000486473 0)
(-0.0280651 0.000352143 0)
(-0.0281854 0.000216356 0)
(-0.0282476 7.95647e-05 0)
(-0.0282517 -5.77724e-05 0)
(-0.0281973 -0.000195189 0)
(-0.0280847 -0.000332215 0)
(-0.027914 -0.000468376 0)
(-0.0276858 -0.00060319 0)
(-0.0274007 -0.000736172 0)
(-0.0270597 -0.000866828 0)
(-0.0266639 -0.000994665 0)
(-0.0262144 -0.00111919 0)
(-0.025713 -0.00123989 0)
(-0.0251613 -0.00135628 0)
(-0.0245613 -0.00146784 0)
(-0.0239151 -0.00157409 0)
(-0.0232251 -0.00167452 0)
(-0.0224939 -0.00176863 0)
(-0.0217242 -0.00185594 0)
(-0.020919 -0.00193597 0)
(-0.0200815 -0.00200825 0)
(-0.0192151 -0.00207231 0)
(-0.0183233 -0.00212772 0)
(-0.0174098 -0.00217405 0)
(-0.0164786 -0.00221088 0)
(-0.0155337 -0.00223783 0)
(-0.0145792 -0.00225455 0)
(-0.0136196 -0.00226069 0)
(-0.0126592 -0.00225597 0)
(-0.0117028 -0.00224011 0)
(-0.0107548 -0.00221291 0)
(-0.00982002 -0.00217419 0)
(-0.00890323 -0.00212382 0)
(-0.00800918 -0.00206175 0)
(-0.00714264 -0.00198798 0)
(-0.00630832 -0.00190262 0)
(-0.00551085 -0.00180583 0)
(-0.00475472 -0.00169793 0)
(-0.00404424 -0.00157933 0)
(-0.00338346 -0.00145064 0)
(-0.00277613 -0.00131264 0)
(-0.00222555 -0.00116639 0)
(-0.00173453 -0.00101324 0)
(-0.00130524 -0.000854977 0)
(-0.000939005 -0.000693889 0)
(-0.000636197 -0.000532965 0)
(-0.000395964 -0.000376084 0)
(-0.000215993 -0.000228291 0)
(-9.22158e-05 -9.61461e-05 0)
(-1.85307e-05 1.18564e-05 0)
(1.35651e-05 8.48834e-05 0)
(1.62054e-05 0.000109282 0)
(5.97757e-06 6.68765e-05 0)
(2.7937e-06 -7.09283e-05 0)
(-3.87219e-06 -9.12255e-05 0)
(-4.14275e-05 -2.55926e-05 0)
(-0.00012289 9.96691e-05 0)
(-0.000258518 0.00026743 0)
(-0.000455861 0.0004643 0)
(-0.00072021 0.000679631 0)
(-0.0010549 0.000905028 0)
(-0.00146151 0.00113395 0)
(-0.00194024 0.0013613 0)
(-0.00249003 0.00158315 0)
(-0.00310885 0.00179648 0)
(-0.00379385 0.00199896 0)
(-0.00454152 0.00218884 0)
(-0.00534782 0.00236483 0)
(-0.00620832 0.00252596 0)
(-0.00711827 0.00267158 0)
(-0.00807269 0.00280124 0)
(-0.00906643 0.00291467 0)
(-0.0100943 0.00301178 0)
(-0.0111509 0.00309257 0)
(-0.012231 0.00315716 0)
(-0.0133292 0.00320574 0)
(-0.0144404 0.00323857 0)
(-0.0155593 0.00325597 0)
(-0.0166808 0.00325831 0)
(-0.0178 0.00324598 0)
(-0.018912 0.00321942 0)
(-0.0200121 0.0031791 0)
(-0.0210957 0.00312549 0)
(-0.0221584 0.0030591 0)
(-0.023196 0.00298045 0)
(-0.0242043 0.00289007 0)
(-0.0251795 0.0027885 0)
(-0.0261178 0.00267629 0)
(-0.0270157 0.002554 0)
(-0.0278699 0.00242221 0)
(-0.0286772 0.00228149 0)
(-0.0294346 0.00213243 0)
(-0.0301395 0.0019756 0)
(-0.0307891 0.00181162 0)
(-0.0313813 0.00164109 0)
(-0.0319138 0.00146461 0)
(-0.0323848 0.00128281 0)
(-0.0327925 0.0010963 0)
(-0.0331355 0.000905725 0)
(-0.0334123 0.000711725 0)
(-0.0336221 0.000514944 0)
(-0.033764 0.000316042 0)
(-0.0338373 0.000115681 0)
(-0.0338417 -8.54623e-05 0)
(-0.0337771 -0.000286708 0)
(-0.0336435 -0.000487365 0)
(-0.0334413 -0.000686737 0)
(-0.0331711 -0.000884119 0)
(-0.0328337 -0.0010788 0)
(-0.0324302 -0.00127006 0)
(-0.0319618 -0.00145717 0)
(-0.0314301 -0.00163941 0)
(-0.030837 -0.00181606 0)
(-0.0301844 -0.00198636 0)
(-0.0294747 -0.00214961 0)
(-0.0287105 -0.00230506 0)
(-0.0278944 -0.00245199 0)
(-0.0270296 -0.00258968 0)
(-0.0261194 -0.00271744 0)
(-0.0251671 -0.00283455 0)
(-0.0241766 -0.00294034 0)
(-0.0231518 -0.00303414 0)
(-0.0220969 -0.00311532 0)
(-0.0210163 -0.00318327 0)
(-0.0199144 -0.00323739 0)
(-0.0187962 -0.00327713 0)
(-0.0176664 -0.00330199 0)
(-0.0165301 -0.00331149 0)
(-0.0153926 -0.00330523 0)
(-0.0142592 -0.00328283 0)
(-0.0131352 -0.00324399 0)
(-0.0120262 -0.0031885 0)
(-0.0109377 -0.00311621 0)
(-0.00987513 -0.00302705 0)
(-0.00884406 -0.00292108 0)
(-0.0078499 -0.00279847 0)
(-0.00689795 -0.00265953 0)
(-0.00599336 -0.00250475 0)
(-0.00514102 -0.00233478 0)
(-0.00434555 -0.00215055 0)
(-0.00361115 -0.00195324 0)
(-0.00294158 -0.00174443 0)
(-0.00233996 -0.00152609 0)
(-0.00180872 -0.00130079 0)
(-0.00134938 -0.00107175 0)
(-0.00096243 -0.000843101 0)
(-0.000647092 -0.000620088 0)
(-0.000401119 -0.000409375 0)
(-0.00022055 -0.000219421 0)
(-9.94522e-05 -6.0942e-05 0)
(-2.95972e-05 5.26504e-05 0)
(3.56949e-09 0.000104658 0)
(3.14545e-06 7.28611e-05 0)
(-5.79809e-07 -6.55956e-05 0)
(-2.32666e-05 -5.68835e-05 0)
(-9.29611e-05 5.21895e-05 0)
(-0.000218798 0.000231963 0)
(-0.000409124 0.000462613 0)
(-0.00067079 0.000728541 0)
(-0.00100852 0.001017 0)
(-0.00142516 0.00131787 0)
(-0.00192199 0.00162304 0)
(-0.00249891 0.0019261 0)
(-0.00315459 0.002222 0)
(-0.00388672 0.00250678 0)
(-0.00469212 0.00277737 0)
(-0.00556691 0.00303141 0)
(-0.00650667 0.00326708 0)
(-0.00750649 0.00348307 0)
(-0.00856112 0.0036784 0)
(-0.00966507 0.00385241 0)
(-0.0108126 0.00400471 0)
(-0.0119979 0.00413509 0)
(-0.013215 0.00424351 0)
(-0.014458 0.00433008 0)
(-0.015721 0.00439502 0)
(-0.016998 0.00443866 0)
(-0.0182831 0.00446138 0)
(-0.0195708 0.00446366 0)
(-0.0208553 0.00444603 0)
(-0.0221311 0.00440904 0)
(-0.0233928 0.00435332 0)
(-0.0246354 0.0042795 0)
(-0.0258538 0.00418826 0)
(-0.0270431 0.00408029 0)
(-0.0281987 0.00395631 0)
(-0.0293162 0.00381705 0)
(-0.0303913 0.00366327 0)
(-0.03142 0.00349571 0)
(-0.0323985 0.00331517 0)
(-0.0333232 0.00312242 0)
(-0.0341906 0.00291825 0)
(-0.0349978 0.00270349 0)
(-0.0357417 0.00247894 0)
(-0.0364198 0.00224543 0)
(-0.0370294 0.0020038 0)
(-0.0375685 0.00175488 0)
(-0.0380352 0.00149955 0)
(-0.0384276 0.00123866 0)
(-0.0387443 0.0009731 0)
(-0.0389842 0.000703749 0)
(-0.0391464 0.000431511 0)
(-0.03923 0.000157296 0)
(-0.0392347 -0.000117972 0)
(-0.0391604 -0.000393361 0)
(-0.0390072 -0.000667924 0)
(-0.0387755 -0.000940709 0)
(-0.0384658 -0.00121075 0)
(-0.0380793 -0.00147708 0)
(-0.037617 -0.00173871 0)
(-0.0370805 -0.00199465 0)
(-0.0364717 -0.00224391 0)
(-0.0357924 -0.0024855 0)
(-0.0350451 -0.00271842 0)
(-0.0342325 -0.00294168 0)
(-0.0333573 -0.00315427 0)
(-0.0324229 -0.00335523 0)
(-0.0314326 -0.00354356 0)
(-0.0303902 -0.00371833 0)
(-0.0292996 -0.00387857 0)
(-0.0281652 -0.00402338 0)
(-0.0269913 -0.00415185 0)
(-0.0257828 -0.00426312 0)
(-0.0245446 -0.00435638 0)
(-0.0232819 -0.00443083 0)
(-0.022 -0.00448573 0)
(-0.0207045 -0.00452042 0)
(-0.0194012 -0.00453427 0)
(-0.0180959 -0.00452673 0)
(-0.0167946 -0.00449734 0)
(-0.0155034 -0.00444572 0)
(-0.0142285 -0.00437158 0)
(-0.0129761 -0.00427476 0)
(-0.0117523 -0.00415523 0)
(-0.0105633 -0.00401308 0)
(-0.00941518 -0.0038486 0)
(-0.00831383 -0.00366226 0)
(-0.00726497 -0.00345476 0)
(-0.00627404 -0.00322705 0)
(-0.00534612 -0.00298043 0)
(-0.00448588 -0.00271654 0)
(-0.00369745 -0.00243752 0)
(-0.0029843 -0.00214606 0)
(-0.00234915 -0.00184552 0)
(-0.00179377 -0.00154015 0)
(-0.00131886 -0.00123524 0)
(-0.000923904 -0.00093738 0)
(-0.000606914 -0.000654825 0)
(-0.000364314 -0.000397826 0)
(-0.000190666 -0.000179133 0)
(-7.83905e-05 -1.44472e-05 0)
(-1.82126e-05 7.69519e-05 0)
(3.49495e-08 6.97633e-05 0)
(-4.00959e-06 -4.99081e-05 0)
(-4.35323e-05 3.9742e-06 0)
(-0.000147445 0.000169821 0)
(-0.000320505 0.000415578 0)
(-0.000568909 0.000719411 0)
(-0.000898448 0.0010637 0)
(-0.00131302 0.001434 0)
(-0.00181482 0.00181851 0)
(-0.00240459 0.00220771 0)
(-0.00308179 0.00259392 0)
(-0.00384474 0.00297099 0)
(-0.00469076 0.00333403 0)
(-0.0056163 0.00367918 0)
(-0.00661712 0.00400342 0)
(-0.00768837 0.00430443 0)
(-0.00882474 0.00458045 0)
(-0.0100205 0.00483019 0)
(-0.0112697 0.00505274 0)
(-0.0125661 0.00524753 0)
(-0.0139033 0.00541422 0)
(-0.0152748 0.00555273 0)
(-0.0166741 0.00566315 0)
(-0.0180947 0.0057457 0)
(-0.0195301 0.00580076 0)
(-0.0209739 0.00582881 0)
(-0.0224197 0.00583043 0)
(-0.0238614 0.00580626 0)
(-0.0252928 0.00575702 0)
(-0.026708 0.00568348 0)
(-0.0281012 0.00558645 0)
(-0.029467 0.00546679 0)
(-0.0308 0.0053254 0)
(-0.0320949 0.00516319 0)
(-0.0333469 0.0049811 0)
(-0.0345513 0.00478011 0)
(-0.0357035 0.0045612 0)
(-0.0367993 0.00432538 0)
(-0.0378347 0.00407366 0)
(-0.038806 0.00380709 0)
(-0.0397097 0.0035267 0)
(-0.0405425 0.00323357 0)
(-0.0413014 0.00292878 0)
(-0.0419837 0.0026134 0)
(-0.042587 0.00228855 0)
(-0.0431092 0.00195534 0)
(-0.0435482 0.00161491 0)
(-0.0439025 0.0012684 0)
(-0.0441708 0.000916972 0)
(-0.044352 0.000561798 0)
(-0.0444454 0.000204068 0)
(-0.0444505 -0.000155013 0)
(-0.0443671 -0.000514228 0)
(-0.0441954 -0.000872347 0)
(-0.0439358 -0.00122813 0)
(-0.0435891 -0.00158031 0)
(-0.0431563 -0.00192762 0)
(-0.0426388 -0.00226879 0)
(-0.0420383 -0.00260254 0)
(-0.0413567 -0.00292757 0)
(-0.0405963 -0.00324259 0)
(-0.0397599 -0.0035463 0)
(-0.0388502 -0.00383742 0)
(-0.0378706 -0.00411466 0)
(-0.0368245 -0.00437674 0)
(-0.0357159 -0.00462241 0)
(-0.0345488 -0.00485042 0)
(-0.0333277 -0.00505956 0)
(-0.0320573 -0.00524864 0)
(-0.0307426 -0.0054165 0)
(-0.0293888 -0.00556205 0)
(-0.0280015 -0.00568423 0)
(-0.0265863 -0.00578202 0)
(-0.0251493 -0.0058545 0)
(-0.0236965 -0.0059008 0)
(-0.0222343 -0.00592014 0)
(-0.0207693 -0.00591183 0)
(-0.0193079 -0.00587531 0)
(-0.0178569 -0.0058101 0)
(-0.0164232 -0.00571588 0)
(-0.0150134 -0.00559246 0)
(-0.0136345 -0.00543984 0)
(-0.012293 -0.00525821 0)
(-0.0109958 -0.00504797 0)
(-0.00974917 -0.00480977 0)
(-0.00855941 -0.00454457 0)
(-0.00743243 -0.00425366 0)
(-0.0063738 -0.00393872 0)
(-0.00538859 -0.00360194 0)
(-0.00448132 -0.00324603 0)
(-0.00365583 -0.00287442 0)
(-0.00291516 -0.00249135 0)
(-0.00226141 -0.00210205 0)
(-0.00169564 -0.00171297 0)
(-0.00121769 -0.00133203 0)
(-0.000826038 -0.000968963 0)
(-0.000517717 -0.000635663 0)
(-0.000288029 -0.000346682 0)
(-0.00013033 -0.000119671 0)
(-3.74132e-05 2.40271e-05 0)
(-3.15829e-06 5.69148e-05 0)
(-7.39496e-06 -2.36757e-05 0)
(-6.40264e-05 9.23665e-05 0)
(-0.000203172 0.000329087 0)
(-0.000425119 0.000652953 0)
(-0.000733657 0.00104053 0)
(-0.00113338 0.00147267 0)
(-0.00162717 0.00193337 0)
(-0.00221635 0.00240944 0)
(-0.002901 0.00289003 0)
(-0.00368003 0.00336627 0)
(-0.00455127 0.00383098 0)
(-0.0055116 0.00427836 0)
(-0.00655706 0.00470376 0)
(-0.00768302 0.00510351 0)
(-0.00888422 0.00547475 0)
(-0.0101549 0.00581526 0)
(-0.0114889 0.0061234 0)
(-0.0128798 0.00639802 0)
(-0.014321 0.00663831 0)
(-0.0158054 0.00684382 0)
(-0.0173261 0.00701439 0)
(-0.0188762 0.00715006 0)
(-0.0204485 0.00725108 0)
(-0.022036 0.00731788 0)
(-0.0236318 0.00735101 0)
(-0.025229 0.00735115 0)
(-0.0268208 0.00731908 0)
(-0.0284006 0.00725566 0)
(-0.0299621 0.00716183 0)
(-0.0314988 0.00703861 0)
(-0.0330049 0.00688703 0)
(-0.0344744 0.00670821 0)
(-0.0359016 0.00650328 0)
(-0.0372813 0.00627342 0)
(-0.0386082 0.00601983 0)
(-0.0398775 0.00574376 0)
(-0.0410845 0.00544644 0)
(-0.0422249 0.00512916 0)
(-0.0432944 0.00479322 0)
(-0.0442894 0.00443994 0)
(-0.0452063 0.00407065 0)
(-0.0460417 0.0036867 0)
(-0.0467928 0.00328947 0)
(-0.0474569 0.00288034 0)
(-0.0480315 0.00246072 0)
(-0.0485146 0.00203204 0)
(-0.0489045 0.00159573 0)
(-0.0491997 0.00115326 0)
(-0.049399 0.000706097 0)
(-0.0495016 0.000255749 0)
(-0.0495071 -0.000196275 0)
(-0.0494152 -0.000648444 0)
(-0.0492262 -0.00109921 0)
(-0.0489404 -0.00154701 0)
(-0.0485587 -0.00199026 0)
(-0.0480823 -0.00242738 0)
(-0.0475127 -0.00285676 0)
(-0.0468517 -0.00327678 0)
(-0.0461016 -0.00368584 0)
(-0.0452647 -0.0040823 0)
(-0.044344 -0.00446456 0)
(-0.0433426 -0.00483098 0)
(-0.0422642 -0.00517998 0)
(-0.0411126 -0.00550995 0)
(-0.0398919 -0.00581932 0)
(-0.0386068 -0.00610654 0)
(-0.037262 -0.00637009 0)
(-0.0358627 -0.00660851 0)
(-0.0344143 -0.00682036 0)
(-0.0329225 -0.00700426 0)
(-0.0313934 -0.00715891 0)
(-0.0298331 -0.00728307 0)
(-0.0282482 -0.00737558 0)
(-0.0266453 -0.00743539 0)
(-0.0250314 -0.00746154 0)
(-0.0234134 -0.00745321 0)
(-0.0217986 -0.0074097 0)
(-0.0201941 -0.00733046 0)
(-0.0186075 -0.00721512 0)
(-0.0170459 -0.0070635 0)
(-0.0155168 -0.00687563 0)
(-0.0140275 -0.00665179 0)
(-0.012585 -0.00639252 0)
(-0.0111964 -0.0060987 0)
(-0.00986846 -0.00577154 0)
(-0.00860747 -0.00541269 0)
(-0.00741945 -0.0050243 0)
(-0.00630992 -0.00460904 0)
(-0.00528379 -0.00417031 0)
(-0.0043453 -0.00371225 0)
(-0.00349787 -0.00323996 0)
(-0.00274402 -0.00275968 0)
(-0.00208524 -0.00227896 0)
(-0.00152189 -0.00180697 0)
(-0.00105306 -0.0013548 0)
(-0.000676567 -0.000935816 0)
(-0.000388634 -0.00056612 0)
(-0.000183746 -0.000264955 0)
(-5.69557e-05 -5.52427e-05 0)
(-6.32944e-06 3.40601e-05 0)
(-1.06653e-05 1.30353e-05 0)
(-8.43717e-05 0.000208636 0)
(-0.000259064 0.000530861 0)
(-0.000530638 0.000945378 0)
(-0.000900419 0.00142763 0)
(-0.00137167 0.00195724 0)
(-0.00194611 0.00251696 0)
(-0.0026241 0.00309235 0)
(-0.00340493 0.00367141 0)
(-0.00428681 0.0042442 0)
(-0.00526701 0.00480257 0)
(-0.0063419 0.00533985 0)
(-0.00750708 0.00585063 0)
(-0.00875742 0.00633059 0)
(-0.0100873 0.00677633 0)
(-0.0114904 0.00718519 0)
(-0.0129603 0.00755516 0)
(-0.0144901 0.00788479 0)
(-0.0160725 0.00817308 0)
(-0.0177003 0.00841943 0)
(-0.019366 0.00862358 0)
(-0.0210621 0.00878553 0)
(-0.022781 0.00890555 0)
(-0.0245153 0.00898409 0)
(-0.0262574 0.00902179 0)
(-0.0280001 0.00901943 0)
(-0.029736 0.00897793 0)
(-0.0314582 0.00889832 0)
(-0.0331596 0.0087817 0)
(-0.0348336 0.00862928 0)
(-0.0364736 0.00844232 0)
(-0.0380734 0.00822214 0)
(-0.0396269 0.00797013 0)
(-0.0411282 0.00768771 0)
(-0.0425719 0.00737633 0)
(-0.0439526 0.0070375 0)
(-0.0452654 0.00667274 0)
(-0.0465055 0.0062836 0)
(-0.0476686 0.00587167 0)
(-0.0487504 0.00543856 0)
(-0.0497471 0.0049859 0)
(-0.0506553 0.00451533 0)
(-0.0514717 0.00402854 0)
(-0.0521934 0.00352723 0)
(-0.0528179 0.00301311 0)
(-0.0533429 0.00248793 0)
(-0.0537666 0.00195345 0)
(-0.0540874 0.00141145 0)
(-0.054304 0.00086375 0)
(-0.0544155 0.000312174 0)
(-0.0544215 -0.000241427 0)
(-0.0543217 -0.000795181 0)
(-0.0541163 -0.0013472 0)
(-0.0538058 -0.00189556 0)
(-0.0533912 -0.00243834 0)
(-0.0528736 -0.0029736 0)
(-0.0522547 -0.00349939 0)
(-0.0515366 -0.00401373 0)
(-0.0507214 -0.00451465 0)
(-0.0498121 -0.00500018 0)
(-0.0488115 -0.00546834 0)
(-0.0477233 -0.00591717 0)
(-0.0465511 -0.00634472 0)
(-0.0452993 -0.00674903 0)
(-0.0439722 -0.00712822 0)
(-0.0425748 -0.00748039 0)
(-0.0411123 -0.0078037 0)
(-0.0395902 -0.00809638 0)
(-0.0380144 -0.00835668 0)
(-0.036391 -0.00858296 0)
(-0.0347265 -0.00877363 0)
(-0.0330275 -0.0089272 0)
(-0.031301 -0.00904229 0)
(-0.0295542 -0.00911763 0)
(-0.0277945 -0.00915209 0)
(-0.0260294 -0.00914469 0)
(-0.0242667 -0.00909461 0)
(-0.0225141 -0.00900123 0)
(-0.0207794 -0.00886413 0)
(-0.0190706 -0.00868312 0)
(-0.0173956 -0.0084583 0)
(-0.015762 -0.00819002 0)
(-0.0141776 -0.00787901 0)
(-0.0126497 -0.00752635 0)
(-0.0111857 -0.00713358 0)
(-0.00979226 -0.00670269 0)
(-0.0084759 -0.00623629 0)
(-0.00724255 -0.00573761 0)
(-0.00609755 -0.00521067 0)
(-0.00504557 -0.00466036 0)
(-0.00409048 -0.00409264 0)
(-0.00323529 -0.00351467 0)
(-0.00248203 -0.00293509 0)
(-0.00183167 -0.0023642 0)
(-0.00128405 -0.0018143 0)
(-0.000837891 -0.00130007 0)
(-0.00049048 -0.00083889 0)
(-0.000237539 -0.000451279 0)
(-7.64466e-05 -0.000161304 0)
(-9.42441e-06 1.1917e-06 0)
(-1.38181e-05 6.00404e-05 0)
(-0.000104334 0.000352692 0)
(-0.000314442 0.000775355 0)
(-0.000635757 0.00129339 0)
(-0.00106716 0.00188152 0)
(-0.00161054 0.0025184 0)
(-0.00226638 0.0031858 0)
(-0.00303397 0.00386825 0)
(-0.00391168 0.00455273 0)
(-0.004897 0.00522836 0)
(-0.00598653 0.00588609 0)
(-0.00717605 0.00651844 0)
(-0.00846064 0.0071193 0)
(-0.0098347 0.00768372 0)
(-0.0112921 0.00820777 0)
(-0.0128262 0.00868834 0)
(-0.01443 0.00912306 0)
(-0.0160961 0.0095102 0)
(-0.0178171 0.00984854 0)
(-0.019585 0.0101373 0)
(-0.021392 0.0103762 0)
(-0.0232301 0.0105651 0)
(-0.0250914 0.0107043 0)
(-0.0269678 0.0107943 0)
(-0.0288516 0.0108358 0)
(-0.0307347 0.0108298 0)
(-0.0326097 0.0107772 0)
(-0.0344689 0.0106793 0)
(-0.0363049 0.0105373 0)
(-0.0381107 0.0103526 0)
(-0.0398793 0.0101269 0)
(-0.041604 0.00986146 0)
(-0.0432783 0.0095581 0)
(-0.0448961 0.00921846 0)
(-0.0464515 0.00884426 0)
(-0.0479387 0.00843728 0)
(-0.0493526 0.00799934 0)
(-0.0506879 0.0075323 0)
(-0.0519402 0.00703804 0)
(-0.0531048 0.00651848 0)
(-0.0541777 0.00597557 0)
(-0.0551553 0.00541127 0)
(-0.056034 0.0048276 0)
(-0.0568107 0.00422658 0)
(-0.0574828 0.00361028 0)
(-0.0580479 0.00298077 0)
(-0.0585039 0.00234016 0)
(-0.0588491 0.00169059 0)
(-0.0590823 0.00103423 0)
(-0.0592025 0.000373254 0)
(-0.0592091 -0.000290116 0)
(-0.059102 -0.000953645 0)
(-0.0588812 -0.00161507 0)
(-0.0585475 -0.00227211 0)
(-0.0581017 -0.00292246 0)
(-0.0575451 -0.0035638 0)
(-0.0568796 -0.00419379 0)
(-0.0561072 -0.0048101 0)
(-0.0552304 -0.00541036 0)
(-0.0542521 -0.00599223 0)
(-0.0531757 -0.00655334 0)
(-0.0520047 -0.00709137 0)
(-0.0507434 -0.00760398 0)
(-0.049396 -0.00808887 0)
(-0.0479675 -0.00854376 0)
(-0.046463 -0.00896643 0)
(-0.0448881 -0.0093547 0)
(-0.0432486 -0.00970644 0)
(-0.0415508 -0.0100196 0)
(-0.0398012 -0.0102922 0)
(-0.0380067 -0.0105225 0)
(-0.0361745 -0.0107086 0)
(-0.0343118 -0.0108489 0)
(-0.0324264 -0.0109419 0)
(-0.0305261 -0.0109863 0)