/*--------------------------------*- C++ -*----------------------------------*\
  =========                 |
  \\      /  F ield         | OpenFOAM: The Open Source CFD Toolbox
   \\    /   O peration     | Website:  https://openfoam.org
    \\  /    A nd           | Version:  11
     \\/     M anipulation  |
\*---------------------------------------------------------------------------*/
FoamFile
{
    format      ascii;
    class       volVectorField;
    location    "6.9";
    object      U;
}
// * * * * * * * * * * * * * * * * * * * * * * * * * * * * * * * * * * * * * //

dimensions      [0 1 -1 0 0 0 0];

internalField   nonuniform List<vector> 
10100
(
(3.09694e-06 -2.89694e-06 0)
(1.45752e-05 -7.18341e-06 0)
(3.24722e-05 -8.06541e-06 0)
(4.88472e-05 -6.78547e-06 0)
(5.92224e-05 -4.40319e-06 0)
(6.1369e-05 -1.46655e-06 0)
(5.41225e-05 1.70447e-06 0)
(3.69332e-05 4.93181e-06 0)
(9.66399e-06 8.11654e-06 0)
(-2.75436e-05 1.11798e-05 0)
(-7.43598e-05 1.40989e-05 0)
(-0.000130333 1.68358e-05 0)
(-0.000194936 1.93765e-05 0)
(-0.000267567 2.1726e-05 0)
(-0.000347613 2.38714e-05 0)
(-0.000434427 2.58115e-05 0)
(-0.000527334 2.7548e-05 0)
(-0.000625683 2.9075e-05 0)
(-0.000728804 3.0394e-05 0)
(-0.000836031 3.15185e-05 0)
(-0.000946722 3.24525e-05 0)
(-0.00106023 3.31975e-05 0)
(-0.00117594 3.37604e-05 0)
(-0.00129322 3.41455e-05 0)
(-0.00141149 3.43567e-05 0)
(-0.00153017 3.43991e-05 0)
(-0.0016487 3.42812e-05 0)
(-0.00176654 3.40069e-05 0)
(-0.00188317 3.35813e-05 0)
(-0.00199809 3.30138e-05 0)
(-0.00211082 3.23101e-05 0)
(-0.00222091 3.14764e-05 0)
(-0.00232791 3.05192e-05 0)
(-0.0024314 2.9444e-05 0)
(-0.002531 2.82585e-05 0)
(-0.00262633 2.69682e-05 0)
(-0.00271703 2.55781e-05 0)
(-0.00280278 2.40959e-05 0)
(-0.00288327 2.25282e-05 0)
(-0.0029582 2.08799e-05 0)
(-0.0030273 1.91568e-05 0)
(-0.00309033 1.73654e-05 0)
(-0.00314707 1.5513e-05 0)
(-0.00319731 1.36061e-05 0)
(-0.00324087 1.16494e-05 0)
(-0.00327758 9.64894e-06 0)
(-0.00330733 7.61202e-06 0)
(-0.00332998 5.54555e-06 0)
(-0.00334544 3.45594e-06 0)
(-0.00335366 1.3488e-06 0)
(-0.00335458 -7.69514e-07 0)
(-0.00334818 -2.89077e-06 0)
(-0.00333446 -5.00706e-06 0)
(-0.00331346 -7.11179e-06 0)
(-0.00328522 -9.19841e-06 0)
(-0.00324984 -1.12597e-05 0)
(-0.0032074 -1.32879e-05 0)
(-0.00315805 -1.52748e-05 0)
(-0.00310193 -1.72128e-05 0)
(-0.00303924 -1.90948e-05 0)
(-0.00297018 -2.09135e-05 0)
(-0.00289499 -2.26612e-05 0)
(-0.00281393 -2.4329e-05 0)
(-0.0027273 -2.5908e-05 0)
(-0.00263541 -2.73908e-05 0)
(-0.00253861 -2.87708e-05 0)
(-0.00243728 -3.00404e-05 0)
(-0.00233181 -3.11914e-05 0)
(-0.00222262 -3.22154e-05 0)
(-0.00211017 -3.31038e-05 0)
(-0.00199493 -3.38487e-05 0)
(-0.00187741 -3.44429e-05 0)
(-0.00175813 -3.48799e-05 0)
(-0.00163765 -3.51524e-05 0)
(-0.00151652 -3.5253e-05 0)
(-0.00139535 -3.51757e-05 0)
(-0.00127474 -3.4916e-05 0)
(-0.0011553 -3.44699e-05 0)
(-0.00103769 -3.3833e-05 0)
(-0.000922556 -3.30003e-05 0)
(-0.000810551 -3.19667e-05 0)
(-0.00070235 -3.07286e-05 0)
(-0.000598628 -2.9284e-05 0)
(-0.000500063 -2.76319e-05 0)
(-0.00040733 -2.57717e-05 0)
(-0.000321095 -2.37031e-05 0)
(-0.000242013 -2.14274e-05 0)
(-0.000170715 -1.89484e-05 0)
(-0.000107803 -1.62729e-05 0)
(-5.38343e-05 -1.3411e-05 0)
(-9.29945e-06 -1.03793e-05 0)
(2.54032e-05 -7.20558e-06 0)
(5.00082e-05 -3.93283e-06 0)
(6.44428e-05 -6.30073e-07 0)
(6.89283e-05 2.5854e-06 0)
(6.41331e-05 5.51175e-06 0)
(5.13873e-05 7.79637e-06 0)
(3.31442e-05 8.80915e-06 0)
(1.43082e-05 7.48088e-06 0)
(2.8021e-06 2.80013e-06 0)
(7.99423e-06 -1.47929e-05 0)
(3.11651e-05 -3.00178e-05 0)
(6.1445e-05 -3.11826e-05 0)
(8.49291e-05 -2.31231e-05 0)
(9.27745e-05 -9.44997e-06 0)
(7.98977e-05 7.49969e-06 0)
(4.31117e-05 2.62235e-05 0)
(-1.93253e-05 4.56793e-05 0)
(-0.000108129 6.51871e-05 0)
(-0.000223224 8.42992e-05 0)
(-0.000364 0.000102687 0)
(-0.000529474 0.000120144 0)
(-0.000718348 0.000136524 0)
(-0.000929177 0.000151728 0)
(-0.00116035 0.000165692 0)
(-0.00141014 0.000178383 0)
(-0.00167683 0.000189773 0)
(-0.00195859 0.000199854 0)
(-0.00225361 0.000208631 0)
(-0.0025601 0.000216114 0)
(-0.00287625 0.000222324 0)
(-0.00320029 0.000227283 0)
(-0.00353047 0.000231021 0)
(-0.00386507 0.000233565 0)
(-0.00420243 0.000234949 0)
(-0.00454092 0.000235208 0)
(-0.00487897 0.000234378 0)
(-0.00521505 0.000232501 0)
(-0.00554768 0.00022961 0)
(-0.00587545 0.000225747 0)
(-0.00619699 0.000220957 0)
(-0.006511 0.000215276 0)
(-0.00681622 0.000208748 0)
(-0.00711148 0.000201415 0)
(-0.00739562 0.000193319 0)
(-0.0076676 0.000184502 0)
(-0.00792638 0.000175002 0)
(-0.00817102 0.000164865 0)
(-0.00840064 0.000154133 0)
(-0.00861439 0.000142846 0)
(-0.00881151 0.000131046 0)
(-0.00899129 0.000118777 0)
(-0.00915309 0.000106086 0)
(-0.00929632 9.30126e-05 0)
(-0.00942047 7.96002e-05 0)
(-0.00952508 6.58932e-05 0)
(-0.00960976 5.19377e-05 0)
(-0.00967418 3.77772e-05 0)
(-0.00971808 2.34569e-05 0)
(-0.00974127 9.02404e-06 0)
(-0.00974363 -5.47374e-06 0)
(-0.0097251 -1.99877e-05 0)
(-0.0096857 -3.44683e-05 0)
(-0.00962552 -4.88663e-05 0)
(-0.0095447 -6.31319e-05 0)
(-0.0094435 -7.72149e-05 0)
(-0.0093222 -9.10641e-05 0)
(-0.00918119 -0.000104626 0)
(-0.00902093 -0.000117849 0)
(-0.00884194 -0.000130681 0)
(-0.00864483 -0.00014307 0)
(-0.0084303 -0.00015496 0)
(-0.00819909 -0.000166296 0)
(-0.00795204 -0.000177024 0)
(-0.00769007 -0.000187091 0)
(-0.00741417 -0.000196447 0)
(-0.00712541 -0.000205041 0)
(-0.00682493 -0.000212817 0)
(-0.00651393 -0.000219722 0)
(-0.00619371 -0.000225706 0)
(-0.00586561 -0.00023072 0)
(-0.00553106 -0.000234716 0)
(-0.00519156 -0.000237647 0)
(-0.00484864 -0.000239471 0)
(-0.00450391 -0.000240147 0)
(-0.00415904 -0.000239637 0)
(-0.00381572 -0.00023791 0)
(-0.00347571 -0.000234935 0)
(-0.00314079 -0.000230687 0)
(-0.00281278 -0.000225143 0)
(-0.00249352 -0.000218285 0)
(-0.00218486 -0.0002101 0)
(-0.00188866 -0.000200582 0)
(-0.00160676 -0.000189736 0)
(-0.00134101 -0.000177574 0)
(-0.00109317 -0.00016412 0)
(-0.000864987 -0.000149411 0)
(-0.000658095 -0.000133505 0)
(-0.000474015 -0.000116483 0)
(-0.000314103 -9.84626e-05 0)
(-0.000179491 -7.96085e-05 0)
(-7.1008e-05 -6.01549e-05 0)
(1.09383e-05 -4.0436e-05 0)
(6.6512e-05 -2.09364e-05 0)
(9.66749e-05 -2.37516e-06 0)
(0.000103493 1.4165e-05 0)
(9.04788e-05 2.70511e-05 0)
(6.316e-05 3.38141e-05 0)
(3.08529e-05 3.08458e-05 0)
(7.47627e-06 1.42948e-05 0)
(9.36014e-06 -3.39316e-05 0)
(3.39398e-05 -6.11533e-05 0)
(6.14274e-05 -5.78986e-05 0)
(7.49427e-05 -3.45294e-05 0)
(6.36686e-05 2.14434e-06 0)
(2.09388e-05 4.72948e-05 0)
(-5.76989e-05 9.73367e-05 0)
(-0.000174928 0.000149753 0)
(-0.000331921 0.000202719 0)
(-0.000528803 0.000254951 0)
(-0.000764858 0.000305526 0)
(-0.00103873 0.000353793 0)
(-0.00134864 0.000399282 0)
(-0.00169245 0.000441663 0)
(-0.00206778 0.000480722 0)
(-0.0024721 0.000516298 0)
(-0.00290271 0.000548305 0)
(-0.00335687 0.0005767 0)
(-0.0038318 0.000601459 0)
(-0.00432468 0.000622603 0)
(-0.00483271 0.000640169 0)
(-0.00535311 0.000654203 0)
(-0.00588314 0.000664776 0)
(-0.0064201 0.000671967 0)
(-0.00696136 0.000675856 0)
(-0.00750434 0.000676543 0)
(-0.00804653 0.000674125 0)
(-0.00858552 0.000668705 0)
(-0.00911895 0.000660392 0)
(-0.00964456 0.000649296 0)
(-0.0101602 0.00063553 0)
(-0.0106637 0.000619209 0)
(-0.0111531 0.00060045 0)
(-0.0116266 0.000579371 0)
(-0.0120822 0.00055609 0)
(-0.0125183 0.000530726 0)
(-0.0129333 0.0005034 0)
(-0.0133255 0.000474231 0)
(-0.0136937 0.000443342 0)
(-0.0140364 0.000410853 0)
(-0.0143524 0.000376888 0)
(-0.0146406 0.000341571 0)
(-0.0148999 0.000305026 0)
(-0.0151294 0.000267382 0)
(-0.0153283 0.000228762 0)
(-0.0154959 0.000189296 0)
(-0.0156314 0.000149114 0)
(-0.0157345 0.000108347 0)
(-0.0158046 6.71272e-05 0)
(-0.0158415 2.55896e-05 0)
(-0.015845 -1.61282e-05 0)
(-0.015815 -5.78852e-05 0)
(-0.0157515 -9.95392e-05 0)
(-0.0156547 -0.000140948 0)
(-0.0155249 -0.000181969 0)
(-0.0153623 -0.000222455 0)
(-0.0151676 -0.000262256 0)
(-0.0149413 -0.000301223 0)
(-0.0146842 -0.000339205 0)
(-0.014397 -0.000376051 0)
(-0.0140809 -0.000411609 0)
(-0.0137369 -0.000445724 0)
(-0.0133663 -0.000478239 0)
(-0.0129703 -0.000509001 0)
(-0.0125504 -0.000537859 0)
(-0.0121083 -0.000564664 0)
(-0.0116457 -0.000589266 0)
(-0.0111643 -0.000611516 0)
(-0.0106661 -0.000631268 0)
(-0.0101532 -0.000648378 0)
(-0.0096277 -0.00066271 0)
(-0.00909191 -0.000674131 0)
(-0.00854818 -0.000682515 0)
(-0.00799896 -0.000687742 0)
(-0.00744681 -0.000689703 0)
(-0.00689434 -0.000688295 0)
(-0.00634427 -0.000683428 0)
(-0.00579934 -0.000675022 0)
(-0.00526238 -0.000663011 0)
(-0.00473624 -0.000647341 0)
(-0.00422379 -0.000627973 0)
(-0.00372794 -0.000604886 0)
(-0.00325158 -0.000578082 0)
(-0.00279755 -0.000547591 0)
(-0.00236867 -0.000513471 0)
(-0.00196768 -0.000475821 0)
(-0.00159717 -0.000434783 0)
(-0.00125959 -0.000390558 0)
(-0.00095718 -0.000343426 0)
(-0.000691869 -0.000293771 0)
(-0.000465218 -0.000242115 0)
(-0.000278286 -0.000189171 0)
(-0.000131469 -0.000135915 0)
(-2.43011e-05 -8.36968e-05 0)
(4.48233e-05 -3.43991e-05 0)
(7.89883e-05 9.33832e-06 0)
(8.30878e-05 4.3829e-05 0)
(6.43009e-05 6.40148e-05 0)
(3.39514e-05 6.31848e-05 0)
(8.82704e-06 3.31351e-05 0)
(8.25065e-06 -5.2337e-05 0)
(2.66444e-05 -8.67181e-05 0)
(3.99271e-05 -7.20398e-05 0)
(3.07692e-05 -2.48218e-05 0)
(-1.2227e-05 4.47385e-05 0)
(-9.64795e-05 0.000129015 0)
(-0.000227129 0.000222218 0)
(-0.000407296 0.000319987 0)
(-0.000638546 0.000419118 0)
(-0.000921086 0.000517221 0)
(-0.00125414 0.000612557 0)
(-0.00163614 0.000703831 0)
(-0.0020649 0.000790103 0)
(-0.00253781 0.000870698 0)
(-0.00305185 0.000945124 0)
(-0.0036038 0.00101305 0)
(-0.00419023 0.00107426 0)
(-0.0048076 0.00112863 0)
(-0.00545226 0.0011761 0)
(-0.00612056 0.00121668 0)
(-0.00680881 0.0012504 0)
(-0.00751336 0.00127735 0)
(-0.00823056 0.00129764 0)
(-0.00895686 0.0013114 0)
(-0.00968873 0.00131879 0)
(-0.0104227 0.00131999 0)
(-0.0111556 0.00131517 0)
(-0.011884 0.00130452 0)
(-0.0126047 0.00128826 0)
(-0.0133149 0.00126659 0)
(-0.0140115 0.00123972 0)
(-0.0146917 0.00120787 0)
(-0.0153529 0.00117127 0)
(-0.0159925 0.00113015 0)
(-0.0166079 0.00108473 0)
(-0.017197 0.00103524 0)
(-0.0177574 0.000981919 0)
(-0.0182872 0.000925 0)
(-0.0187844 0.000864718 0)
(-0.0192472 0.00080131 0)
(-0.0196739 0.000735018 0)
(-0.0200631 0.000666087 0)
(-0.0204131 0.000594759 0)
(-0.020723 0.00052128 0)
(-0.0209914 0.000445899 0)
(-0.0212174 0.000368869 0)
(-0.0214002 0.000290446 0)
(-0.0215391 0.000210887 0)
(-0.0216335 0.000130452 0)
(-0.021683 4.94059e-05 0)
(-0.0216874 -3.19802e-05 0)
(-0.0216466 -0.000113434 0)
(-0.0215605 -0.000194679 0)
(-0.0214294 -0.000275437 0)
(-0.0212538 -0.000355424 0)
(-0.021034 -0.000434354 0)
(-0.0207707 -0.000511937 0)
(-0.0204649 -0.000587881 0)
(-0.0201174 -0.000661893 0)
(-0.0197295 -0.000733676 0)
(-0.0193026 -0.000802934 0)
(-0.018838 -0.000869365 0)
(-0.0183374 -0.000932672 0)
(-0.0178027 -0.000992556 0)
(-0.0172359 -0.00104872 0)
(-0.016639 -0.00110088 0)
(-0.0160145 -0.00114874 0)
(-0.0153647 -0.00119202 0)
(-0.0146923 -0.00123044 0)
(-0.014 -0.00126372 0)
(-0.0132907 -0.00129161 0)
(-0.0125675 -0.00131384 0)
(-0.0118335 -0.0013302 0)
(-0.0110921 -0.00134044 0)
(-0.0103466 -0.00134436 0)
(-0.00960046 -0.00134178 0)
(-0.00885737 -0.00133252 0)
(-0.00812097 -0.00131644 0)
(-0.007395 -0.00129342 0)
(-0.00668322 -0.00126337 0)
(-0.00598944 -0.00122623 0)
(-0.00531748 -0.00118199 0)
(-0.0046711 -0.00113067 0)
(-0.00405406 -0.00107236 0)
(-0.00346999 -0.0010072 0)
(-0.00292241 -0.000935413 0)
(-0.00241465 -0.000857319 0)
(-0.00194983 -0.000773355 0)
(-0.00153072 -0.000684108 0)
(-0.00115971 -0.000590369 0)
(-0.000838674 -0.000493184 0)
(-0.000568817 -0.000393944 0)
(-0.000350513 -0.000294501 0)
(-0.000183078 -0.000197331 0)
(-6.44984e-05 -0.000105755 0)
(8.89301e-06 -2.42353e-05 0)
(4.27087e-05 4.12735e-05 0)
(4.49213e-05 8.29653e-05 0)
(2.75315e-05 9.08041e-05 0)
(7.88529e-06 5.15006e-05 0)
(5.81523e-06 -6.48719e-05 0)
(1.31676e-05 -9.7321e-05 0)
(4.10599e-06 -6.2421e-05 0)
(-3.7001e-05 1.76356e-05 0)
(-0.000121181 0.000129278 0)
(-0.000255975 0.000262233 0)
(-0.000446645 0.000408429 0)
(-0.00069653 0.000561671 0)
(-0.00100722 0.000717213 0)
(-0.00137898 0.000871469 0)
(-0.00181093 0.0010217 0)
(-0.00230129 0.00116587 0)
(-0.00284758 0.00130243 0)
(-0.00344675 0.00143025 0)
(-0.00409531 0.00154851 0)
(-0.00478946 0.0016566 0)
(-0.00552514 0.00175414 0)
(-0.00629812 0.00184086 0)
(-0.00710406 0.00191665 0)
(-0.00793853 0.00198146 0)
(-0.0087971 0.00203533 0)
(-0.00967533 0.00207837 0)
(-0.0105688 0.00211073 0)
(-0.0114731 0.00213261 0)
(-0.0123841 0.00214424 0)
(-0.0132974 0.00214588 0)
(-0.014209 0.00213781 0)
(-0.0151148 0.00212034 0)
(-0.0160111 0.00209377 0)
(-0.0168941 0.00205845 0)
(-0.0177601 0.00201471 0)
(-0.0186056 0.00196289 0)
(-0.0194274 0.00190337 0)
(-0.0202223 0.0018365 0)
(-0.0209872 0.00176265 0)
(-0.0217192 0.00168219 0)
(-0.0224156 0.00159551 0)
(-0.0230739 0.00150297 0)
(-0.0236916 0.00140496 0)
(-0.0242666 0.00130187 0)
(-0.0247966 0.0011941 0)
(-0.0252799 0.00108203 0)
(-0.0257147 0.000966061 0)
(-0.0260995 0.000846603 0)
(-0.0264327 0.000724057 0)
(-0.0267133 0.000598836 0)
(-0.0269401 0.000471355 0)
(-0.0271124 0.000342036 0)
(-0.0272293 0.000211304 0)
(-0.0272905 7.95918e-05 0)
(-0.0272956 -5.26613e-05 0)
(-0.0272445 -0.000185011 0)
(-0.0271372 -0.00031701 0)
(-0.0269741 -0.000448201 0)
(-0.0267555 -0.000578125 0)
(-0.0264822 -0.000706315 0)
(-0.0261549 -0.000832303 0)
(-0.0257747 -0.000955614 0)
(-0.0253429 -0.00107577 0)
(-0.0248609 -0.00119229 0)
(-0.0243303 -0.0013047 0)
(-0.0237531 -0.0014125 0)
(-0.0231313 -0.00151523 0)
(-0.0224671 -0.00161239 0)
(-0.021763 -0.00170351 0)
(-0.0210217 -0.00178812 0)
(-0.020246 -0.00186576 0)
(-0.0194389 -0.00193597 0)
(-0.0186037 -0.0019983 0)
(-0.0177438 -0.00205232 0)
(-0.0168628 -0.00209762 0)
(-0.0159644 -0.00213379 0)
(-0.0150525 -0.00216045 0)
(-0.0141311 -0.00217726 0)
(-0.0132044 -0.00218388 0)
(-0.0122768 -0.00218002 0)
(-0.0113526 -0.00216543 0)
(-0.0104363 -0.00213989 0)
(-0.00953247 -0.00210322 0)
(-0.0086457 -0.00205529 0)
(-0.0077806 -0.00199603 0)
(-0.00694179 -0.00192546 0)
(-0.00613385 -0.00184363 0)
(-0.00536124 -0.00175073 0)
(-0.00462836 -0.00164703 0)
(-0.00393937 -0.00153292 0)
(-0.00329823 -0.00140897 0)
(-0.0027086 -0.00127593 0)
(-0.00217371 -0.00113479 0)
(-0.00169632 -0.000986875 0)
(-0.00127856 -0.000833868 0)
(-0.000921788 -0.000677981 0)
(-0.000626407 -0.000522085 0)
(-0.000391655 -0.000369916 0)
(-0.000215356 -0.000226341 0)
(-9.36389e-05 -9.76954e-05 0)
(-2.06664e-05 7.80771e-06 0)
(1.17296e-05 7.96844e-05 0)
(1.52062e-05 0.000104642 0)
(5.72075e-06 6.46098e-05 0)
(2.76275e-06 -6.91473e-05 0)
(-3.84218e-06 -8.75129e-05 0)
(-4.06286e-05 -2.20038e-05 0)
(-0.000120264 0.000100596 0)
(-0.000252499 0.000263662 0)
(-0.000444557 0.000454462 0)
(-0.000701501 0.000662767 0)
(-0.00102643 0.000880569 0)
(-0.00142088 0.00110159 0)
(-0.00188495 0.00132096 0)
(-0.0024176 0.00153491 0)
(-0.00301684 0.00174053 0)
(-0.00367988 0.00193561 0)
(-0.00440329 0.00211848 0)
(-0.00518319 0.00228789 0)
(-0.00601526 0.00244294 0)
(-0.0068949 0.00258298 0)
(-0.00781731 0.00270761 0)
(-0.0087775 0.00281657 0)
(-0.00977043 0.00290978 0)
(-0.010791 0.00298725 0)
(-0.011834 0.00304909 0)
(-0.0128943 0.00309549 0)
(-0.013967 0.00312672 0)
(-0.015047 0.00314309 0)
(-0.0161294 0.00314495 0)
(-0.0172094 0.00313269 0)
(-0.0182824 0.00310674 0)
(-0.0193438 0.00306754 0)
(-0.0203891 0.00301557 0)
(-0.0214143 0.00295132 0)
(-0.0224151 0.00287528 0)
(-0.0233876 0.00278797 0)
(-0.0243282 0.00268991 0)
(-0.0252332 0.00258165 0)
(-0.0260993 0.00246372 0)
(-0.0269232 0.00233666 0)
(-0.0277019 0.00220104 0)
(-0.0284325 0.00205742 0)
(-0.0291125 0.00190636 0)
(-0.0297394 0.00174843 0)
(-0.0303109 0.00158422 0)
(-0.030825 0.0014143 0)
(-0.0312798 0.00123928 0)
(-0.0316737 0.00105973 0)
(-0.0320053 0.000876281 0)
(-0.0322733 0.000689528 0)
(-0.0324767 0.000500095 0)
(-0.0326147 0.000308606 0)
(-0.0326867 0.000115696 0)
(-0.0326924 -7.79903e-05 0)
(-0.0326317 -0.000271803 0)
(-0.0325045 -0.000465082 0)
(-0.0323113 -0.000657161 0)
(-0.0320525 -0.000847368 0)
(-0.031729 -0.00103502 0)
(-0.0313417 -0.00121943 0)
(-0.0308919 -0.0013999 0)
(-0.030381 -0.00157573 0)
(-0.0298109 -0.00174624 0)
(-0.0291834 -0.00191071 0)
(-0.0285007 -0.00206843 0)
(-0.0277653 -0.00221871 0)
(-0.0269798 -0.00236086 0)
(-0.0261472 -0.00249416 0)
(-0.0252705 -0.00261795 0)
(-0.0243532 -0.00273155 0)
(-0.0233987 -0.0028343 0)
(-0.0224109 -0.00292556 0)
(-0.0213938 -0.00300469 0)
(-0.0203516 -0.00307111 0)
(-0.0192886 -0.00312424 0)
(-0.0182095 -0.00316354 0)
(-0.017119 -0.00318851 0)
(-0.0160218 -0.00319868 0)
(-0.0149232 -0.00319366 0)
(-0.0138281 -0.00317307 0)
(-0.0127418 -0.00313662 0)
(-0.0116696 -0.00308408 0)
(-0.0106169 -0.00301529 0)
(-0.00958886 -0.00293019 0)
(-0.00859095 -0.0028288 0)
(-0.00762837 -0.00271128 0)
(-0.0067063 -0.00257791 0)
(-0.00582971 -0.00242914 0)
(-0.00500337 -0.0022656 0)
(-0.00423179 -0.00208815 0)
(-0.00351905 -0.00189793 0)
(-0.00286884 -0.00169643 0)
(-0.00228423 -0.00148556 0)
(-0.00176761 -0.00126775 0)
(-0.00132052 -0.00104612 0)
(-0.000943489 -0.000824649 0)
(-0.000635826 -0.000608378 0)
(-0.000395426 -0.000403742 0)
(-0.000218528 -0.000218915 0)
(-9.94604e-05 -6.42551e-05 0)
(-3.03278e-05 4.72609e-05 0)
(-5.96065e-07 9.93907e-05 0)
(2.95395e-06 7.01227e-05 0)
(-5.38392e-07 -6.39333e-05 0)
(-2.26848e-05 -5.39693e-05 0)
(-9.06308e-05 5.39324e-05 0)
(-0.00021315 0.000229478 0)
(-0.000398277 0.000453579 0)
(-0.000652508 0.00071122 0)
(-0.000980336 0.000990298 0)
(-0.00138447 0.00128104 0)
(-0.00186609 0.00157571 0)
(-0.00242502 0.00186816 0)
(-0.00305998 0.00215355 0)
(-0.00376868 0.00242808 0)
(-0.00454802 0.00268882 0)
(-0.00539424 0.00293349 0)
(-0.00630302 0.00316038 0)
(-0.00726964 0.00336821 0)
(-0.008289 0.00355607 0)
(-0.00935577 0.00372334 0)
(-0.0104644 0.00386964 0)
(-0.0116094 0.00399477 0)
(-0.0127848 0.00409873 0)
(-0.0139851 0.00418161 0)
(-0.0152044 0.00424363 0)
(-0.0164371 0.00428513 0)
(-0.0176776 0.00430648 0)
(-0.0189202 0.00430815 0)
(-0.0201597 0.00429063 0)
(-0.0213907 0.00425451 0)
(-0.022608 0.00420036 0)
(-0.0238067 0.0041288 0)
(-0.024982 0.0040405 0)
(-0.0261292 0.00393613 0)
(-0.0272438 0.00381638 0)
(-0.0283216 0.00368196 0)
(-0.0293586 0.00353359 0)
(-0.0303508 0.00337201 0)
(-0.0312946 0.00319796 0)
(-0.0321865 0.00301221 0)
(-0.0330234 0.00281551 0)
(-0.0338021 0.00260864 0)
(-0.0345199 0.00239239 0)
(-0.0351743 0.00216754 0)
(-0.0357629 0.0019349 0)
(-0.0362835 0.00169527 0)
(-0.0367344 0.00144948 0)
(-0.0371138 0.00119834 0)
(-0.0374204 0.000942708 0)
(-0.0376531 0.000683419 0)
(-0.0378108 0.000421335 0)
(-0.037893 0.000157326 0)
(-0.0378993 -0.000107725 0)
(-0.0378294 -0.00037293 0)
(-0.0376836 -0.000637387 0)
(-0.0374621 -0.000900183 0)
(-0.0371655 -0.00116039 0)
(-0.0367949 -0.00141709 0)
(-0.0363513 -0.00166933 0)
(-0.0358361 -0.00191617 0)
(-0.0352511 -0.00215666 0)
(-0.0345982 -0.00238985 0)
(-0.0338796 -0.00261477 0)
(-0.0330979 -0.00283046 0)
(-0.0322558 -0.00303598 0)
(-0.0313564 -0.00323037 0)
(-0.0304029 -0.00341269 0)
(-0.029399 -0.00358203 0)
(-0.0283484 -0.00373745 0)
(-0.0272552 -0.00387808 0)
(-0.0261238 -0.00400304 0)
(-0.0249586 -0.00411149 0)
(-0.0237645 -0.00420263 0)
(-0.0225463 -0.0042757 0)
(-0.0213094 -0.00432997 0)
(-0.0200589 -0.00436477 0)
(-0.0188005 -0.0043795 0)
(-0.0175398 -0.00437361 0)
(-0.0162826 -0.00434665 0)
(-0.0150348 -0.00429821 0)
(-0.0138023 -0.00422803 0)
(-0.0125911 -0.00413591 0)
(-0.0114073 -0.00402182 0)
(-0.0102566 -0.00388582 0)
(-0.00914514 -0.00372817 0)
(-0.00807851 -0.00354929 0)
(-0.0070623 -0.00334985 0)
(-0.0061018 -0.00313075 0)
(-0.00520197 -0.00289321 0)
(-0.00436736 -0.0026388 0)
(-0.003602 -0.00236956 0)
(-0.00290932 -0.00208806 0)
(-0.00229199 -0.00179754 0)
(-0.00175178 -0.00150208 0)
(-0.00128946 -0.00120676 0)
(-0.000904569 -0.000917964 0)
(-0.00059527 -0.000643632 0)
(-0.000358172 -0.000393676 0)
(-0.000188087 -0.000180421 0)
(-7.77563e-05 -1.90568e-05 0)
(-1.83131e-05 7.16817e-05 0)
(-7.50969e-08 6.67912e-05 0)
(-3.88586e-06 -4.86562e-05 0)
(-4.23476e-05 5.27893e-06 0)
(-0.000143397 0.000168377 0)
(-0.000311593 0.000408013 0)
(-0.000552817 0.000702993 0)
(-0.000872615 0.00103653 0)
(-0.00127468 0.00139473 0)
(-0.00176107 0.00176633 0)
(-0.00233245 0.00214217 0)
(-0.00298826 0.00251488 0)
(-0.00372683 0.00287858 0)
(-0.00454552 0.00322859 0)
(-0.0054409 0.0035612 0)
(-0.00640883 0.00387351 0)
(-0.00744462 0.00416332 0)
(-0.00854311 0.00442894 0)
(-0.00969877 0.00466915 0)
(-0.0109058 0.00488308 0)
(-0.0121582 0.0050702 0)
(-0.0134498 0.00523019 0)
(-0.0147743 0.005363 0)
(-0.0161254 0.00546869 0)
(-0.017497 0.00554753 0)
(-0.0188826 0.00559988 0)
(-0.0202761 0.00562621 0)
(-0.0216714 0.00562709 0)
(-0.0230625 0.00560314 0)
(-0.0244436 0.00555506 0)
(-0.025809 0.00548361 0)
(-0.0271531 0.00538958 0)
(-0.0284707 0.00527379 0)
(-0.0297564 0.00513712 0)
(-0.0310055 0.00498045 0)
(-0.0322132 0.0048047 0)
(-0.0333748 0.00461081 0)
(-0.0344862 0.00439971 0)
(-0.0355432 0.00417239 0)
(-0.036542 0.00392982 0)
(-0.0374791 0.003673 0)
(-0.0383509 0.00340293 0)
(-0.0391546 0.00312064 0)
(-0.0398871 0.00282716 0)
(-0.0405459 0.00252352 0)
(-0.0411286 0.00221079 0)
(-0.0416331 0.00189004 0)
(-0.0420577 0.00156234 0)
(-0.0424007 0.00122879 0)
(-0.0426609 0.000890487 0)
(-0.0428373 0.000548566 0)
(-0.0429291 0.000204157 0)
(-0.0429359 -0.000141591 0)
(-0.0428575 -0.000487518 0)
(-0.0426941 -0.000832447 0)
(-0.042446 -0.00117519 0)
(-0.042114 -0.00151454 0)
(-0.041699 -0.00184929 0)
(-0.0412024 -0.00217821 0)
(-0.0406257 -0.00250009 0)
(-0.0399708 -0.00281367 0)
(-0.03924 -0.00311772 0)
(-0.0384356 -0.00341099 0)
(-0.0375606 -0.00369224 0)
(-0.0366179 -0.00396024 0)
(-0.035611 -0.00421375 0)
(-0.0345436 -0.00445156 0)
(-0.0334196 -0.00467248 0)
(-0.0322432 -0.00487532 0)
(-0.031019 -0.00505892 0)
(-0.0297517 -0.00522219 0)
(-0.0284465 -0.00536403 0)
(-0.0271085 -0.00548341 0)
(-0.0257432 -0.00557937 0)
(-0.0243565 -0.00565096 0)
(-0.0229542 -0.00569736 0)
(-0.0215425 -0.00571778 0)
(-0.0201275 -0.00571156 0)
(-0.0187156 -0.00567811 0)
(-0.0173134 -0.00561697 0)
(-0.0159274 -0.00552779 0)
(-0.0145641 -0.00541038 0)
(-0.0132302 -0.00526472 0)
(-0.0119321 -0.00509094 0)
(-0.0106763 -0.00488943 0)
(-0.00946914 -0.00466078 0)
(-0.00831656 -0.00440588 0)
(-0.00722436 -0.00412596 0)
(-0.00619797 -0.00382261 0)
(-0.00524233 -0.00349792 0)
(-0.00436187 -0.00315449 0)
(-0.00356035 -0.00279559 0)
(-0.00284077 -0.00242531 0)
(-0.00220525 -0.00204866 0)
(-0.00165485 -0.00167186 0)
(-0.00118951 -0.00130257 0)
(-0.000807821 -0.000950143 0)
(-0.000506992 -0.000626093 0)
(-0.000282556 -0.000344483 0)
(-0.000128162 -0.000122382 0)
(-3.69524e-05 1.94825e-05 0)
(-3.17813e-06 5.3986e-05 0)
(-7.16869e-06 -2.31564e-05 0)
(-6.22146e-05 9.11798e-05 0)
(-0.000197329 0.000323092 0)
(-0.000412754 0.000638453 0)
(-0.000712074 0.00101457 0)
(-0.00109965 0.00143311 0)
(-0.00157821 0.00187874 0)
(-0.00214899 0.00233881 0)
(-0.00281202 0.00280292 0)
(-0.00356618 0.00326256 0)
(-0.00440934 0.00371084 0)
(-0.00533845 0.00414218 0)
(-0.00634967 0.00455216 0)
(-0.00743848 0.00493724 0)
(-0.00859978 0.00529469 0)
(-0.00982801 0.00562239 0)
(-0.0111172 0.0059188 0)
(-0.0124611 0.00618279 0)
(-0.0138533 0.00641363 0)
(-0.0152871 0.0066109 0)
(-0.0167557 0.00677444 0)
(-0.0182525 0.00690432 0)
(-0.0197705 0.0070008 0)
(-0.021303 0.00706429 0)
(-0.0228432 0.00709534 0)
(-0.0243847 0.00709463 0)
(-0.0259208 0.0070629 0)
(-0.0274453 0.00700102 0)
(-0.0289518 0.00690989 0)
(-0.0304345 0.00679049 0)
(-0.0318874 0.00664384 0)
(-0.033305 0.00647101 0)
(-0.0346818 0.0062731 0)
(-0.0360127 0.00605125 0)
(-0.0372927 0.00580663 0)
(-0.0385171 0.00554042 0)
(-0.0396815 0.00525383 0)
(-0.0407816 0.00494809 0)
(-0.0418136 0.00462445 0)
(-0.0427737 0.00428417 0)
(-0.0436586 0.00392854 0)
(-0.044465 0.00355884 0)
(-0.0451903 0.0031764 0)
(-0.0458317 0.00278253 0)
(-0.0463871 0.0023786 0)
(-0.0468544 0.00196594 0)
(-0.0472319 0.00154594 0)
(-0.0475182 0.00112 0)
(-0.0477123 0.00068953 0)
(-0.0478133 0.000255949 0)
(-0.0478207 -0.000179294 0)
(-0.0477343 -0.000614737 0)
(-0.0475544 -0.0010489 0)
(-0.0472813 -0.00148029 0)
(-0.0469158 -0.0019074 0)
(-0.046459 -0.0023287 0)
(-0.0459124 -0.00274267 0)
(-0.0452776 -0.00314775 0)
(-0.0445568 -0.0035424 0)
(-0.0437523 -0.00392505 0)
(-0.0428669 -0.00429416 0)
(-0.0419036 -0.00464817 0)
(-0.0408658 -0.00498553 0)
(-0.0397572 -0.0053047 0)
(-0.0385819 -0.00560418 0)
(-0.037344 -0.00588245 0)
(-0.0360484 -0.00613806 0)
(-0.0346999 -0.00636957 0)
(-0.0333036 -0.00657559 0)
(-0.0318652 -0.00675479 0)
(-0.0303904 -0.00690589 0)
(-0.0288851 -0.00702767 0)
(-0.0273556 -0.00711901 0)
(-0.0258083 -0.00717887 0)
(-0.0242499 -0.00720631 0)
(-0.0226872 -0.0072005 0)
(-0.021127 -0.00716074 0)
(-0.0195764 -0.00708649 0)
(-0.0180425 -0.00697736 0)
(-0.0165324 -0.00683314 0)
(-0.0150532 -0.00665384 0)
(-0.0136121 -0.00643968 0)
(-0.0122158 -0.00619117 0)
(-0.0108712 -0.00590912 0)
(-0.0095848 -0.00559466 0)
(-0.00836284 -0.00524937 0)
(-0.00721116 -0.00487527 0)
(-0.00613511 -0.00447492 0)
(-0.00513952 -0.00405156 0)
(-0.00422852 -0.00360918 0)
(-0.00340551 -0.00315266 0)
(-0.00267299 -0.00268801 0)
(-0.00203246 -0.0022225 0)
(-0.00148435 -0.00176499 0)
(-0.00102787 -0.00132616 0)
(-0.000660966 -0.000918922 0)
(-0.000380076 -0.000558852 0)
(-0.000179942 -0.000264553 0)
(-5.58971e-05 -5.8268e-05 0)
(-6.25359e-06 3.14743e-05 0)
(-1.03567e-05 1.2503e-05 0)
(-8.19043e-05 0.000204048 0)
(-0.000251389 0.000518884 0)
(-0.000514753 0.000922076 0)
(-0.00087321 0.00138986 0)
(-0.00132986 0.0019027 0)
(-0.00188632 0.00244407 0)
(-0.00254288 0.00300012 0)
(-0.00329879 0.00355935 0)
(-0.0041523 0.00411221 0)
(-0.00510074 0.00465088 0)
(-0.00614053 0.00516895 0)
(-0.00726741 0.00566125 0)
(-0.00847641 0.00612364 0)
(-0.00976203 0.00655287 0)
(-0.0111183 0.00694639 0)
(-0.0125388 0.00730229 0)
(-0.0140168 0.00761919 0)
(-0.0155456 0.00789617 0)
(-0.0171179 0.00813265 0)
(-0.0187266 0.0083284 0)
(-0.0203644 0.00848344 0)
(-0.0220241 0.00859805 0)
(-0.0236984 0.00867268 0)
(-0.0253801 0.00870797 0)
(-0.0270621 0.00870469 0)
(-0.0287375 0.00866372 0)
(-0.0303994 0.00858607 0)
(-0.0320412 0.00847284 0)
(-0.0336565 0.00832517 0)
(-0.0352388 0.0081443 0)
(-0.0367823 0.00793152 0)
(-0.0382811 0.00768816 0)
(-0.0397295 0.0074156 0)
(-0.0411223 0.00711523 0)
(-0.0424544 0.00678852 0)
(-0.043721 0.00643692 0)
(-0.0449176 0.00606194 0)
(-0.0460398 0.00566509 0)
(-0.0470839 0.00524792 0)
(-0.048046 0.004812 0)
(-0.0489228 0.0043589 0)
(-0.0497113 0.00389023 0)
(-0.0504086 0.00340761 0)
(-0.0510122 0.0029127 0)
(-0.0515202 0.00240714 0)
(-0.0519305 0.00189263 0)
(-0.0522417 0.00137087 0)
(-0.0524527 0.000843597 0)
(-0.0525625 0.000312543 0)
(-0.0525706 -0.000220519 0)
(-0.0524768 -0.000753803 0)
(-0.0522814 -0.0012855 0)
(-0.0519847 -0.00181378 0)
(-0.0515876 -0.00233681 0)
(-0.0510913 -0.00285272 0)
(-0.0504973 -0.00335964 0)
(-0.0498076 -0.00385569 0)
(-0.0490243 -0.00433898 0)
(-0.04815 -0.00480761 0)
(-0.0471877 -0.00525968 0)
(-0.0461407 -0.00569331 0)
(-0.0450126 -0.0061066 0)
(-0.0438074 -0.0064977 0)
(-0.0425294 -0.00686476 0)
(-0.0411834 -0.00720595 0)
(-0.0397742 -0.00751951 0)
(-0.0383071 -0.0078037 0)
(-0.0367879 -0.00805684 0)
(-0.0352224 -0.00827731 0)
(-0.0336167 -0.00846357 0)
(-0.0319774 -0.00861416 0)
(-0.0303111 -0.00872774 0)
(-0.0286247 -0.00880304 0)
(-0.0269254 -0.00883897 0)
(-0.0252204 -0.00883453 0)
(-0.0235172 -0.00878891 0)
(-0.0218233 -0.00870148 0)
(-0.0201462 -0.00857179 0)
(-0.0184937 -0.00839965 0)
(-0.0168732 -0.00818508 0)
(-0.0152924 -0.00792842 0)
(-0.0137587 -0.00763032 0)
(-0.0122792 -0.00729178 0)
(-0.010861 -0.00691424 0)
(-0.0095108 -0.00649962 0)
(-0.00823478 -0.00605036 0)
(-0.00703878 -0.00556958 0)
(-0.00592801 -0.00506109 0)
(-0.00490705 -0.00452961 0)
(-0.00397972 -0.00398085 0)
(-0.003149 -0.0034217 0)
(-0.00241692 -0.00286049 0)
(-0.0017845 -0.00230714 0)
(-0.00125167 -0.00177355 0)
(-0.000817256 -0.00127386 0)
(-0.000478737 -0.000824901 0)
(-0.000232049 -0.000446491 0)
(-7.47736e-05 -0.00016198 0)
(-9.25056e-06 -7.38583e-07 0)
(-1.34135e-05 5.81343e-05 0)
(-0.000101227 0.000343782 0)
(-0.000304928 0.000755935 0)
(-0.000616329 0.00125939 0)
(-0.00103431 0.00182964 0)
(-0.00156062 0.00244626 0)
(-0.0021957 0.00309175 0)
(-0.00293881 0.00375127 0)
(-0.00378834 0.00441234 0)
(-0.00474181 0.00506451 0)
(-0.00579589 0.00569907 0)
(-0.00694649 0.00630887 0)
(-0.0081888 0.00688805 0)
(-0.0095174 0.00743187 0)
(-0.0109263 0.00793655 0)
(-0.0124092 0.00839914 0)
(-0.0139592 0.00881738 0)
(-0.0155691 0.00918962 0)
(-0.0172318 0.0095147 0)
(-0.0189396 0.00979193 0)
(-0.020685 0.010021 0)
(-0.0224601 0.0102018 0)
(-0.0242575 0.0103348 0)
(-0.0260693 0.0104203 0)
(-0.0278879 0.0104591 0)
(-0.0297057 0.0104521 0)
(-0.0315155 0.0104002 0)
(-0.03331 0.0103048 0)
(-0.035082 0.0101669 0)
(-0.0368246 0.0099881 0)
(-0.0385313 0.00976969 0)
(-0.0401956 0.00951323 0)
(-0.0418112 0.00922029 0)
(-0.0433723 0.00889251 0)
(-0.0448731 0.00853155 0)
(-0.0463082 0.00813913 0)
(-0.0476726 0.007717 0)
(-0.0489613 0.00726694 0)
(-0.0501699 0.00679077 0)
(-0.0512941 0.00629033 0)
(-0.0523299 0.00576747 0)
(-0.0532739 0.00522411 0)
(-0.0541227 0.00466215 0)
(-0.0548734 0.00408353 0)
(-0.0555232 0.00349022 0)
(-0.05607 0.00288421 0)
(-0.0565118 0.00226752 0)
(-0.0568469 0.00164218 0)
(-0.057074 0.00101027 0)
(-0.0571924 0.000373856 0)
(-0.0572014 -0.000264931 0)
(-0.0571008 -0.00090396 0)
(-0.0568907 -0.00154107 0)
(-0.0565717 -0.00217407 0)
(-0.0561447 -0.00280078 0)
(-0.055611 -0.00341896 0)
(-0.0549722 -0.00402639 0)
(-0.0542302 -0.00462081 0)
(-0.0533876 -0.00519997 0)
(-0.0524469 -0.0057616 0)
(-0.0514115 -0.00630346 0)
(-0.0502848 -0.00682328 0)
(-0.0490706 -0.00731883 0)
(-0.0477733 -0.00778787 0)
(-0.0463974 -0.00822823 0)
(-0.0449479 -0.00863775 0)
(-0.0434301 -0.0090143 0)
(-0.0418496 -0.00935584 0)
(-0.0402126 -0.00966038 0)
(-0.0385251 -0.009926 0)
(-0.0367938 -0.0101509 0)
(-0.0350256 -0.0103333 0)
(-0.0332276 -0.0104717 0)