/*--------------------------------*- C++ -*----------------------------------*\
  =========                 |
  \\      /  F ield         | OpenFOAM: The Open Source CFD Toolbox
   \\    /   O peration     | Website:  https://openfoam.org
    \\  /    A nd           | Version:  11
     \\/     M anipulation  |
\*---------------------------------------------------------------------------*/
FoamFile
{
    format      ascii;
    class       volScalarField;
    location    "7.9";
    object      p;
}
// * * * * * * * * * * * * * * * * * * * * * * * * * * * * * * * * * * * * * //

dimensions      [0 2 -2 0 0 0 0];

internalField   nonuniform List<scalar> 
10100
(
-5.90381e-08
9.49841e-05
-0.000119111
-0.000692496
-0.00157679
-0.00271465
-0.00404936
-0.00552686
-0.00709843
-0.00872081
-0.0103563
-0.0119719
-0.0135392
-0.0150334
-0.0164335
-0.0177212
-0.0188809
-0.0198993
-0.0207652
-0.021469
-0.022003
-0.0223616
-0.02254
-0.0225353
-0.0223455
-0.0219698
-0.0214083
-0.0206622
-0.0197333
-0.0186245
-0.017339
-0.0158814
-0.0142564
-0.0124697
-0.0105272
-0.00843546
-0.00620156
-0.00383275
-0.00133678
0.00127821
0.00400374
0.00683093
0.00975051
0.0127529
0.0158282
0.0189668
0.0221584
0.0253927
0.0286589
0.0319459
0.0352427
0.0385383
0.0418216
0.0450814
0.0483066
0.0514861
0.0546087
0.0576633
0.0606391
0.0635256
0.0663124
0.0689896
0.0715472
0.0739757
0.0762661
0.0784099
0.0803991
0.0822261
0.083884
0.0853667
0.0866685
0.0877846
0.088711
0.089445
0.0899845
0.0903289
0.0904788
0.0904358
0.0902028
0.089784
0.0891854
0.0884143
0.0874799
0.0863932
0.085167
0.0838166
0.0823596
0.080816
0.0792085
0.077563
0.0759089
0.0742796
0.0727128
0.0712509
0.0699415
0.0688359
0.0679871
0.0674452
0.0672526
0.067358
-8.72739e-05
1.63621e-06
-0.000211389
-0.000726528
-0.00149427
-0.00247473
-0.00362617
-0.00490619
-0.00627463
-0.00769462
-0.00913255
-0.0105587
-0.0119467
-0.0132736
-0.0145192
-0.0156659
-0.0166986
-0.0176043
-0.0183716
-0.0189913
-0.0194556
-0.0197583
-0.0198946
-0.0198611
-0.0196555
-0.0192767
-0.0187245
-0.0179996
-0.0171037
-0.0160388
-0.0148082
-0.0134154
-0.0118651
-0.0101621
-0.00831227
-0.00632159
-0.00419652
-0.00194387
0.000429095
0.00291471
0.00550495
0.00819145
0.0109654
0.0138177
0.0167391
0.0197203
0.0227517
0.0258233
0.0289251
0.0320464
0.0351769
0.038306
0.0414231
0.0445177
0.0475794
0.0505976
0.0535615
0.056461
0.0592857
0.0620256
0.0646711
0.0672127
0.0696412
0.0719476
0.0741236
0.0761613
0.0780532
0.0797923
0.0813724
0.0827879
0.0840336
0.0851051
0.0859991
0.0867132
0.0872457
0.0875966
0.0877667
0.087758
0.0875735
0.0872175
0.0866962
0.0860171
0.0851891
0.084223
0.0831313
0.0819289
0.0806327
0.0792618
0.0778375
0.0763839
0.074928
0.0735
0.0721331
0.0708638
0.0697313
0.0687762
0.0680369
0.0675487
0.0673575
0.0674636
0.00013475
0.0002125
-4.59887e-06
-0.000490784
-0.00119277
-0.00207762
-0.00311189
-0.00426035
-0.00548895
-0.00676579
-0.00806123
-0.00934814
-0.0106025
-0.0118032
-0.0129312
-0.0139697
-0.0149043
-0.0157219
-0.016412
-0.0169654
-0.0173743
-0.0176326
-0.0177354
-0.0176789
-0.0174608
-0.0170797
-0.0165351
-0.0158275
-0.0149582
-0.013929
-0.0127427
-0.0114027
-0.00991309
-0.0082785
-0.00650424
-0.00459601
-0.0025598
-0.000402038
0.00187038
0.00425023
0.00672983
0.00930116
0.0119559
0.0146853
0.0174807
0.0203332
0.0232335
0.0261721
0.0291394
0.0321253
0.0351197
0.0381128
0.0410943
0.0440542
0.0469826
0.0498693
0.0527041
0.0554771
0.0581788
0.0607996
0.0633303
0.0657618
0.0680855
0.070293
0.0723764
0.0743282
0.0761414
0.0778095
0.0793268
0.0806881
0.0818886
0.0829243
0.0837921
0.08449
0.0850169
0.0853727
0.0855587
0.0855768
0.0854302
0.0851235
0.0846626
0.0840551
0.0833097
0.0824366
0.0814483
0.0803588
0.0791844
0.0779429
0.0766545
0.0753414
0.0740283
0.0727425
0.0715135
0.070373
0.0693543
0.0684913
0.0678153
0.0673559
0.0671655
0.0672724
0.00070503
0.000719871
0.000468465
-1.99397e-05
-0.000696631
-0.00153206
-0.00249756
-0.00356256
-0.00469769
-0.00587506
-0.0070683
-0.00825317
-0.00940778
-0.0105124
-0.0115496
-0.0125038
-0.0133611
-0.0141091
-0.0147375
-0.0152374
-0.0156015
-0.0158237
-0.0158991
-0.0158241
-0.015596
-0.0152134
-0.0146756
-0.0139829
-0.0131362
-0.0121372
-0.0109885
-0.00969323
-0.00825511
-0.00667857
-0.00496853
-0.00313035
-0.00116969
0.000907357
0.00309423
0.00538405
0.00776946
0.0102427
0.0127957
0.0154204
0.0181085
0.0208513
0.0236401
0.0264655
0.0293183
0.0321888
0.0350676
0.0379449
0.0408111
0.0436568
0.046472
0.0492472
0.0519724
0.0546385
0.0572361
0.0597562
0.0621898
0.0645284
0.0667637
0.0688878
0.0708932
0.0727727
0.0745198
0.0761283
0.0775929
0.0789087
0.0800713
0.0810768
0.0819226
0.0826068
0.0831286
0.083488
0.0836864
0.0837259
0.0836097
0.0833423
0.0829297
0.082379
0.0816987
0.0808987
0.0799908
0.0789885
0.0779071
0.0767635
0.0755761
0.0743655
0.0731543
0.0719671
0.0708302
0.0697713
0.0688197
0.0680048
0.0673539
0.0668945
0.0666766
0.066733
0.00157621
0.00147559
0.00115591
0.000638242
-4.07136e-05
-0.00085527
-0.00177999
-0.00278904
-0.00385682
-0.00495894
-0.00607246
-0.00717572
-0.00824885
-0.00927399
-0.010235
-0.0111173
-0.0119082
-0.0125961
-0.0131709
-0.0136244
-0.0139493
-0.0141398
-0.0141912
-0.0140999
-0.0138634
-0.0134799
-0.0129488
-0.0122702
-0.0114447
-0.0104739
-0.00936024
-0.0081065
-0.00671628
-0.00519372
-0.0035434
-0.00177031
0.000120121
0.00212209
0.0042294
0.00643542
0.0087331
0.011115
0.0135734
0.0161007
0.0186888
0.0213297
0.0240145
0.0267346
0.0294809
0.0322442
0.0350154
0.0377852
0.0405445
0.043284
0.0459943
0.048666
0.0512898
0.0538568
0.0563581
0.058785
0.0611288
0.0633816
0.0655354
0.0675826
0.0695161
0.0713291
0.0730152
0.0745688
0.0759849
0.0772589
0.0783864
0.079364
0.0801893
0.0808606
0.0813773
0.0817394
0.0819483
0.0820062
0.0819163
0.0816831
0.0813122
0.0808106
0.0801864
0.0794488
0.0786092
0.0776804
0.0766767
0.0756136
0.0745083
0.0733793
0.0722474
0.0711344
0.0700637
0.0690597
0.0681477
0.0673533
0.0667008
0.066215
0.0659352
0.0658864
0.0026984
0.00244434
0.00202835
0.00145743
0.000751253
-6.717e-05
-0.000976164
-0.00195346
-0.00297726
-0.00402643
-0.00508074
-0.00612135
-0.00713048
-0.00809183
-0.00899067
-0.00981373
-0.0105491
-0.0111861
-0.0117156
-0.0121294
-0.0124208
-0.0125843
-0.0126153
-0.0125105
-0.0122671
-0.0118836
-0.0113592
-0.0106939
-0.00988827
-0.00894374
-0.00786243
-0.00664712
-0.00530115
-0.0038284
-0.00223315
-0.000520128
0.00130554
0.00323828
0.00527217
0.00740086
0.00961747
0.011915
0.0142862
0.0167236
0.0192196
0.0217662
0.0243552
0.0269781
0.0296262
0.0322907
0.0349628
0.0376337
0.0402945
0.0429363
0.0455501
0.0481267
0.0506574
0.0531335
0.0555465
0.0578879
0.0601496
0.0623238
0.0644031
0.06638
0.0682478
0.0699999
0.0716305
0.0731341
0.0745059
0.0757415
0.076837
0.077789
0.0785953
0.0792544
0.0797658
0.0801295
0.080347
0.0804202
0.0803526
0.0801482
0.0798127
0.0793525
0.0787751
0.0780896
0.0773066
0.076438
0.0754972
0.0744983
0.073457
0.0723903
0.0713166
0.0702556
0.0692278
0.0682547
0.067358
0.0665597
0.0658814
0.0653452
0.0649743
0.0647803
0.00402179
0.00358955
0.00305561
0.00241096
0.0016565
0.0008119
-0.00010326
-0.00107069
-0.00207193
-0.00308854
-0.00410313
-0.005099
-0.00606051
-0.0069732
-0.0078237
-0.00859972
-0.00929049
-0.00988623
-0.0103784
-0.0107595
-0.0110232
-0.0111644
-0.0111788
-0.011063
-0.0108146
-0.010432
-0.00991446
-0.00926174
-0.00847454
-0.00755417
-0.0065026
-0.00532247
-0.00401694
-0.00258962
-0.00104458
0.000613644
0.00238024
0.00424991
0.00621687
0.00827499
0.0104177
0.0126383
0.0149299
0.0172854
0.0196974
0.0221582
0.0246599
0.0271942
0.0297529
0.0323274
0.0349094
0.0374904
0.0400617
0.0426148
0.0451409
0.0476313
0.0500776
0.0524713
0.0548044
0.0570685
0.0592559
0.0613592
0.0633712
0.0652848
0.0670933
0.0687907
0.0703712
0.0718297
0.0731616
0.0743627
0.0754291
0.0763577
0.0771466
0.0777943
0.0783003
0.0786646
0.0788884
0.078974
0.0789245
0.0787438
0.078437
0.0780104
0.0774709
0.0768272
0.0760891
0.0752679
0.0743755
0.073425
0.0724306
0.0714076
0.0703727
0.0693431
0.0683371
0.0673729
0.0664696
0.0656457
0.0649206
0.0643133
0.063829
0.0634636
0.00549942
0.00487361
0.004206
0.0034716
0.00265139
0.00176252
0.000822435
-0.000153778
-0.00115065
-0.00215259
-0.00314439
-0.0041115
-0.00504027
-0.00591787
-0.00673234
-0.00747265
-0.0081289
-0.00869221
-0.00915472
-0.00950966
-0.00975121
-0.00987451
-0.00987564
-0.00975155
-0.00949992
-0.00911917
-0.00860849
-0.00796783
-0.00719781
-0.00629968
-0.00527536
-0.00412734
-0.00285863
-0.00147264
2.67844e-05
0.00163529
0.00334824
0.00516062
0.0070668
0.00906082
0.0111364
0.0132872
0.0155066
0.0177878
0.0201236
0.0225066
0.0249291
0.0273832
0.0298609
0.0323539
0.0348544
0.037354
0.0398446
0.0423174
0.0447644
0.0471771
0.0495473
0.0518669
0.0541279
0.0563225
0.0584432
0.0604829
0.0624346
0.0642914
0.0660468
0.0676951
0.0692308
0.070649
0.071945
0.073115
0.0741552
0.0750627
0.0758357
0.0764727
0.0769731
0.0773369
0.0775653
0.0776604
0.077625
0.077463
0.0771789
0.0767787
0.0762689
0.0756575
0.0749537
0.0741678
0.0733108
0.0723945
0.0714316
0.0704361
0.0694227
0.0684067
0.0674038
0.0664301
0.0655014
0.0646338
0.0638443
0.0631496
0.0625358
0.0619826
0.00708908
0.00626123
0.00544927
0.00461272
0.00371308
0.00276525
0.0017847
0.000784054
-0.000224113
-0.0012266
-0.00221035
-0.00316284
-0.00407207
-0.00492673
-0.00571634
-0.00643109
-0.00706188
-0.00760084
-0.00804082
-0.00837565
-0.00860013
-0.00870979
-0.008701
-0.00857104
-0.00831778
-0.00793969
-0.00743606
-0.00680696
-0.00605297
-0.00517529
-0.00417584
-0.00305704
-0.00182171
-0.000473122
0.000985028
0.00254862
0.00421317
0.00597376
0.00782499
0.00976111
0.0117761
0.013864
0.0160183
0.0182324
0.0204994
0.0228123
0.0251634
0.0275452
0.0299499
0.0323697
0.0347969
0.0372235
0.0396414
0.0420423
0.0444183
0.0467614
0.0490635
0.0513167
0.0535134
0.0556459
0.0577071
0.0596902
0.0615881
0.0633943
0.0651025
0.0667073
0.0682032
0.0695854
0.0708496
0.0719919
0.0730086
0.0738972
0.0746557
0.0752828
0.0757775
0.0761399
0.0763711
0.076473
0.0764482
0.0763001
0.0760332
0.0756527
0.075165
0.0745774
0.0738983
0.0731371
0.0723037
0.0714087
0.0704638
0.0694813
0.0684744
0.0674564
0.0664408
0.0654416
0.0644722
0.0635458
0.0626781
0.0618833
0.0611288
0.0603789
0.00875388
0.00772031
0.00675731
0.00580947
0.0048198
0.00380106
0.00276755
0.00172919
0.000696463
-0.000319621
-0.00130816
-0.00225834
-0.00315969
-0.00400239
-0.00477719
-0.00547545
-0.00608909
-0.00661101
-0.00703492
-0.0073553
-0.0075674
-0.00766728
-0.00765169
-0.00751817
-0.00726475
-0.00689011
-0.00639371
-0.00577564
-0.00503653
-0.00417763
-0.00320079
-0.00210837
-0.000903117
0.000411829
0.00183291
0.0033562
0.00497735
0.00669149
0.00849338
0.0103776
0.0123384
0.0143699
0.0164659
0.01862
0.0208256
0.0230756
0.0253629
0.0276801
0.0300197
0.0323742
0.0347361
0.0370976
0.0394507
0.0417876
0.0441006
0.0463819
0.0486235
0.0508179
0.0529576
0.0550352
0.057044
0.058977
0.0608276
0.0625892
0.064256
0.0658225
0.0672835
0.0686342
0.0698703
0.0709881
0.0719843
0.072856
0.0736015
0.0742192
0.0747082
0.0750685
0.0753009
0.0754072
0.0753897
0.0752515
0.0749966
0.07463
0.0741575
0.0735858
0.0729225
0.0721762
0.0713558
0.0704709
0.0695318
0.0685498
0.0675362
0.0665027
0.0654609
0.0644228
0.0633997
0.0624025
0.0614455
0.0605413
0.059639
0.0586884
0.010462
0.00922244
0.00810457
0.00703915
0.00595111
0.00485216
0.00375525
0.00266832
0.00159986
0.000558874
-0.000445476
-0.00140402
-0.00230776
-0.00314814
-0.00391712
-0.00460705
-0.005211
-0.00572256
-0.00613627
-0.00644728
-0.00665134
-0.00674498
-0.00672541
-0.00659041
-0.00633821
-0.00596774
-0.00547864
-0.00487108
-0.00414573
-0.00330391
-0.00234748
-0.00127874
-0.000100362
0.00118461
0.00257274
0.00406015
0.00564264
0.0073155
0.00907364
0.0109118
0.0128245
0.014806
0.0168503
0.0189512
0.0211023
0.0232967
0.0255275
0.0277876
0.0300697
0.0323666
0.0346708
0.0369748
0.0392709
0.0415515
0.0438092
0.0460362
0.0482248
0.0503676
0.0524575
0.0544874
0.0564504
0.0583399
0.0601493
0.0618723
0.0635031
0.0650365
0.0664673
0.0677907
0.0690026
0.0700993
0.0710775
0.0719346
0.0726685
0.0732776
0.073761
0.0741184
0.0743507
0.0744592
0.0744461
0.074314
0.0740666
0.0737085
0.073245
0.0726821
0.0720268
0.0712867
0.0704699
0.0695849
0.0686412
0.0676485
0.0666168
0.0655562
0.0644766
0.0633883
0.0623009
0.0612232
0.0601685
0.0591483
0.0580941
0.056942
0.012186
0.0107421
0.00946791
0.00828054
0.00708808
0.00590139
0.00473282
0.00358841
0.00247472
0.00139926
0.000369653
-0.000606487
-0.00152151
-0.00236801
-0.00313903
-0.00382798
-0.00442882
-0.00493607
-0.00534492
-0.00565108
-0.00585096
-0.00594163
-0.00592061
-0.0057859
-0.00553612
-0.0051705
-0.00468872
-0.00409104
-0.00337829
-0.00255191
-0.00161374
-0.000565989
0.000588672
0.00184722
0.00320632
0.00466219
0.00621069
0.00784726
0.00956699
0.0113648
0.0132353
0.015173
0.017172
0.0192264
0.0213298
0.0234756
0.025657
0.0278673
0.0300993
0.0323459
0.0345999
0.0368538
0.0391004
0.0413323
0.043542
0.045722
0.0478649
0.0499633
0.0520105
0.0539993
0.0559231
0.0577754
0.0595496
0.0612397
0.0628401
0.0643455
0.0657507
0.067051
0.0682423
0.0693211
0.0702841
0.0711286
0.0718524
0.0724539
0.0729319
0.0732861
0.0735171
0.0736261
0.0736147
0.0734855
0.0732416
0.0728872
0.0724271
0.0718667
0.0712123
0.0704707
0.069649
0.0687552
0.0677975
0.0667844
0.0657247
0.0646271
0.0635
0.0623524
0.061192
0.0600261
0.0588674
0.0577264
0.0565184
0.0551661
0.0139021
0.0122567
0.0108259
0.00951395
0.00821282
0.00693274
0.00568585
0.00447654
0.00330985
0.0021919
0.0011289
0.0001272
-0.000806739
-0.00166666
-0.00244656
-0.00314099
-0.00374463
-0.00425286
-0.0046615
-0.00496695
-0.00516619
-0.00525669
-0.00523634
-0.00510356
-0.0048573
-0.00449693
-0.00402231
-0.00343387
-0.00273261
-0.00191997
-0.000997825
3.15364e-05
0.0011655
0.00240111
0.00373505
0.00516358
0.00668264
0.00828782
0.00997437
0.0117373
0.0135715
0.0154714
0.0174314
0.0194456
0.0215079
0.0236119
0.0257509
0.0279184
0.0301074
0.032311
0.034522
0.0367333
0.0389377
0.0411281
0.043297
0.0454372
0.0475413
0.0496024
0.0516137
0.0535681
0.0554591
0.0572803
0.0590254
0.0606883
0.0622635
0.0637458
0.0651299
0.0664112
0.0675858
0.06865
0.0696006
0.0704346
0.07115
0.0717447
0.0722178
0.0725685
0.0727975
0.0729054
0.0728936
0.0727643
0.0725204
0.0721655
0.0717039
0.0711405
0.0704807
0.0697308
0.0688971
0.0679867
0.0670068
0.065965
0.0648688
0.0637256
0.062543
0.0613282
0.0600879
0.0588279
0.0575605
0.0562957
0.0549333
0.0533834
0.0155898
0.0137464
0.0121595
0.0107215
0.0093086
0.00793096
0.00660052
0.00532039
0.00409433
0.00292715
0.00182393
0.000789917
-0.000169515
-0.00104915
-0.00184401
-0.00254943
-0.00316106
-0.00367489
-0.00408743
-0.00439579
-0.00459742
-0.0046902
-0.00467243
-0.00454297
-0.00430103
-0.00394618
-0.00347846
-0.00289853
-0.00220751
-0.0014069
-0.000498628
0.000514987
0.0016313
0.00284736
0.00415988
0.00556519
0.00705931
0.00863794
0.0102964
0.0120299
0.0138333
0.0157013
0.0176284
0.0196087
0.0216364
0.0237051
0.0258086
0.0279402
0.0300932
0.0322607
0.0344358
0.0366116
0.038781
0.0409369
0.0430722
0.0451796
0.047252
0.0492826
0.0512646
0.0531911
0.0550557
0.0568519
0.0585736
0.0602148
0.0617702
0.0632342
0.0646018
0.0658684
0.0670299
0.0680828
0.0690237
0.0698496
0.0705581
0.0711474
0.0716161
0.0719636
0.0721898
0.0722955
0.0722816
0.0721498
0.0719027
0.0715437
0.0710763
0.070505
0.0698345
0.0690702
0.0682181
0.0672843
0.0662752
0.0651974
0.0640575
0.0628617
0.0616166
0.0603285
0.0590027
0.057644
0.0562644
0.054874
0.0533575
0.0516133
0.017231
0.0151932
0.0134516
0.0118867
0.0103601
0.00888184
0.00746381
0.00610818
0.00481748
0.00359554
0.00244647
0.00137447
0.000383903
-0.000520866
-0.00133586
-0.00205715
-0.0026812
-0.00320464
-0.00362471
-0.0039391
-0.00414569
-0.00424277
-0.00422922
-0.00410424
-0.00386722
-0.00351791
-0.0030567
-0.00248446
-0.00180238
-0.00101202
-0.00011538
0.000885113
0.00198676
0.00318662
0.00448146
0.00586764
0.00734124
0.00889804
0.0105335
0.0122428
0.014021
0.0158628
0.0177628
0.0197154
0.0217148
0.0237548
0.0258293
0.0279317
0.0300555
0.0321938
0.03434
0.0364873
0.0386287
0.0407571
0.0428656
0.0449471
0.0469946
0.0490014
0.0509608
0.0528658
0.05471
0.0564873
0.0581914
0.0598166
0.0613572
0.0628079
0.0641635
0.0654195
0.0665718
0.0676168
0.0685508
0.069371
0.0700746
0.0706598
0.071125
0.0714695
0.0716928
0.0717954
0.0717778
0.0716415
0.0713888
0.0710224
0.0705457
0.0699622
0.0692763
0.0684926
0.0676166
0.0666536
0.0656092
0.0644892
0.0632992
0.0620449
0.0607317
0.059365
0.0579493
0.0564882
0.0549941
0.0534769
0.0518073
0.0498724
0.0188095
0.0165814
0.0146867
0.0129948
0.0113533
0.00977205
0.00826341
0.00682853
0.00546903
0.00418783
0.00298819
0.00187347
0.000847102
-8.75032e-05
-0.000927039
-0.00166835
-0.00230855
-0.00284512
-0.00327587
-0.00359886
-0.00381252
-0.00391574
-0.00390778
-0.00378806
-0.00355621
-0.00321237
-0.00275719
-0.00219166
-0.00151705
-0.000735038
0.000152188
0.00114215
0.00223214
0.00341919
0.00470007
0.00607116
0.0075286
0.00906824
0.0106856
0.0123759
0.0141343
0.0159555
0.0178343
0.0197652
0.0217424
0.0237601
0.025812
0.0278918
0.029993
0.032109
0.0342331
0.0363587
0.0384789
0.0405867
0.0426753
0.0447376
0.046767
0.0487567
0.0506998
0.0525896
0.0544197
0.056184
0.0578765
0.059491
0.0610221
0.0624643
0.0638125
0.0650621
0.0662091
0.0672495
0.0681798
0.0689966
0.0696975
0.0702802
0.0707431
0.0710851
0.0713055
0.0714043
0.071382
0.0712397
0.0709792
0.070603
0.0701138
0.0695146
0.0688091
0.0680017
0.067097
0.0660997
0.0650148
0.0638473
0.0626022
0.0612842
0.0598982
0.0584488
0.0569396
0.0553734
0.0537629
0.0521184
0.050297
0.0481751
0.0203112
0.0178966
0.0158508
0.0140322
0.0122749
0.0105893
0.0089877
0.00747065
0.00603897
0.00469491
0.00344089
0.00227944
0.00121325
0.000244972
-0.000622744
-0.00138758
-0.00204727
-0.00259991
-0.00304381
-0.00337756
-0.00360018
-0.00371103
-0.00370961
-0.00359559
-0.00336903
-0.00303044
-0.00258061
-0.00202059
-0.00135185
-0.000576288
0.000303803
0.00128591
0.00236728
0.00354491
0.00481554
0.00617558
0.0076212
0.00914827
0.0107523
0.0124288
0.0141726
0.0159788
0.0178421
0.0197572
0.0217184
0.02372
0.0257557
0.0278193
0.0299045
0.0320047
0.0341135
0.0362242
0.0383299
0.0404238
0.0424992
0.0445492
0.0465671
0.0485461
0.0504794
0.0523602
0.0541824
0.0559398
0.0576262
0.0592356
0.0607623
0.0622009
0.0635464
0.064794
0.0659396
0.066979
0.0679085
0.0687248
0.0694252
0.0700073
0.0704693
0.0708096
0.0710273
0.0711222
0.0710945
0.070945
0.0706753
0.0702871
0.0697827
0.0691648
0.0684365
0.0676016
0.0666642
0.0656284
0.0644986
0.0632792
0.0619744
0.0605885
0.0591257
0.0575902
0.0559847
0.0543113
0.0525832
0.0508113
0.0488396
0.046534
0.0217235
0.0191259
0.0169311
0.0149865
0.0131132
0.011322
0.00962563
0.00802424
0.00651782
0.00510789
0.00379629
0.00258488
0.0014756
0.000470466
-0.000428614
-0.00121989
-0.00190179
-0.0024729
-0.00293198
-0.00327833
-0.00351144
-0.00363094
-0.00363662
-0.00352858
-0.00330728
-0.00297346
-0.00252801
-0.00197216
-0.00130764
-0.000536539
0.000338789
0.00131578
0.00239163
0.00356325
0.00482736
0.00618036
0.00761846
0.00913754
0.0107332
0.0124007
0.0141353
0.0159319
0.0177854
0.0196905
0.0216418
0.0236333
0.025659
0.0277129
0.0297886
0.0318797
0.0339797
0.036082
0.0381799
0.0402666
0.0423355
0.0443799
0.0463928
0.0483675
0.0502972
0.0521754
0.0539958
0.0557521
0.0574382
0.0590479
0.0605755
0.0620156
0.0633631
0.0646132
0.0657614
0.0668034
0.0677355
0.0685542
0.0692566
0.0698402
0.0703028
0.0706424
0.0708581
0.0709493
0.070916
0.0707586
0.0704784
0.0700766
0.069555
0.0689159
0.068162
0.0672966
0.0663232
0.0652454
0.0640669
0.0627917
0.0614236
0.0599664
0.0584237
0.0567991
0.0550949
0.0533127
0.0514662
0.0495668
0.0474463
0.0449601
0.0230351
0.0202579
0.0179157
0.0158459
0.0138567
0.0119592
0.010167
0.00847942
0.00689616
0.00541805
0.00404631
0.00278223
0.00162718
0.000582583
-0.000350439
-0.0011706
-0.00187684
-0.00246829
-0.00294434
-0.00330476
-0.0035494
-0.00367817
-0.00369127
-0.00358928
-0.00337295
-0.00304311
-0.00260087
-0.00204774
-0.00138571
-0.000616974
0.000256076
0.0012308
0.00230427
0.00347333
0.00473464
0.00608463
0.00751952
0.00903518
0.0106271
0.0122908
0.0140213
0.0158137
0.0176631
0.0195641
0.0215113
0.0234988
0.0255207
0.0275711
0.0296438
0.0317322
0.0338299
0.0359304
0.0380271
0.0401132
0.0421823
0.0442275
0.0462419
0.0482187
0.0501512
0.0520331
0.0538577
0.055619
0.0573104
0.0589258
0.0604597
0.0619064
0.0632608
0.0645178
0.0656727
0.0667212
0.0676593
0.0684836
0.0691908
0.0697782
0.0702431
0.0705836
0.0707982
0.0708863
0.0708475
0.0706821
0.0703906
0.0699739
0.0694336
0.0687714
0.0679897
0.0670913
0.0660792
0.0649564
0.0637262
0.0623921
0.0609576
0.0594261
0.0578008
0.0560849
0.0542801
0.0523876
0.050422
0.0483954
0.0461273
0.0434632
0.0242359
0.0212817
0.018794
0.0165997
0.0144947
0.0124906
0.0106016
0.00882663
0.00716487
0.00561673
0.00418281
0.00286394
0.00166096
0.00057465
-0.000394313
-0.00124525
-0.00197752
-0.00259083
-0.00308522
-0.00346073
-0.0037175
-0.00385586
-0.00387654
-0.00378043
-0.00356841
-0.00324149
-0.00280114
-0.00224922
-0.00158782
-0.000819166
5.42443e-05
0.00102961
0.00210388
0.00327383
0.00453614
0.00588722
0.00732323
0.00883998
0.010433
0.0120977
0.0138294
0.0156232
0.017474
0.0193766
0.0213255
0.023315
0.0253394
0.0273927
0.0294685
0.0315606
0.0336625
0.0357677
0.0378698
0.039962
0.0420378
0.0440902
0.0461125
0.0480978
0.0500396
0.0519313
0.0537663
0.0555383
0.0572408
0.0588676
0.0604132
0.0618717
0.0632379
0.0645063
0.0656722
0.0667312
0.0676791
0.0685122
0.0692272
0.0698208
0.0702903
0.0706332
0.0708482
0.0709342
0.0708905
0.070717
0.0704139
0.0699817
0.0694215
0.0687348
0.0679237
0.0669904
0.0659374
0.0647672
0.0634827
0.0620872
0.0605837
0.0589755
0.0572654
0.0554561
0.053549
0.0515452
0.04946
0.0473063
0.0448917
0.0420518
0.0253163
0.0221876
0.0195557
0.0172377
0.0150171
0.0129062
0.0109198
0.00905653
0.00731498
0.00569528
0.00419765
0.00282234
0.0015697
0.000439936
-0.000566533
-0.0014496
-0.00220925
-0.00284569
-0.00335929
-0.0037504
-0.00401958
-0.00416772
-0.00419586
-0.00410504
-0.00389633
-0.00357116
-0.00313136
-0.00257894
-0.00191606
-0.00114502
-0.000268527
0.000710432
0.00178873
0.00296315
0.00423034
0.00558662
0.00702804
0.00855038
0.0101492
0.0118201
0.0135582
0.0153588
0.0172166
0.0191264
0.0210829
0.0230806
0.0251135
0.0271758
0.0292612
0.0313633
0.0334758
0.0355923
0.0377063
0.0398112
0.0419001
0.0439662
0.0460028
0.0480031
0.0499605
0.0518683
0.0537197
0.0555083
0.0572277
0.0588717
0.0604344
0.06191
0.0632929
0.0645775
0.0657589
0.0668325
0.0677941
0.0686397
0.0693655
0.0699681
0.0704445
0.0707921
0.0710092
0.0710944
0.0710468
0.0708657
0.0705509
0.0701029
0.0695222
0.0688103
0.0679686
0.0669989
0.0659031
0.0646836
0.0633428
0.0618837
0.0603093
0.0586224
0.0568255
0.054921
0.0529103
0.0507941
0.0485888
0.0463082
0.0437478
0.0407337
0.0262672
0.0229661
0.0201914
0.0177503
0.0154144
0.0131966
0.0111123
0.0091599
0.00733763
0.0056453
0.00408271
0.00264962
0.00134595
0.000171664
-0.000873476
-0.00178983
-0.00257786
-0.00323817
-0.00377136
-0.0041783
-0.00446006
-0.00461786
-0.0046529
-0.00456641
-0.00435991
-0.00403524
-0.00359442
-0.00303952
-0.0023728
-0.00159682
-0.000714496
0.000271101
0.00135683
0.00253944
0.00381543
0.00518097
0.00663208
0.00816457
0.00977412
0.0114562
0.013206
0.0150187
0.016889
0.0188118
0.0207819
0.0227937
0.0248413
0.0269188
0.02902
0.0311385
0.0332681
0.0354025
0.0375349
0.0396588
0.0417674
0.0438537
0.0459112
0.047933
0.0499123
0.0518423
0.0537162
0.0555275
0.0572697
0.0589366
0.0605221
0.0620201
0.0634247
0.0647303
0.0659319
0.0670246
0.0680039
0.0688656
0.0696057
0.0702204
0.0707064
0.0710612
0.0712825
0.0713687
0.0713184
0.0711305
0.0708046
0.0703408
0.0697397
0.0690021
0.068129
0.0671217
0.0659819
0.0647115
0.0633129
0.0617887
0.0601416
0.0583742
0.0564888
0.0544877
0.052372
0.0501426
0.0478167
0.045409
0.0427034
0.0395161
0.0270801
0.0236082
0.0206917
0.0181282
0.0156772
0.0133524
0.0111699
0.00912788
0.00722422
0.00545839
0.00382986
0.00233809
0.000982537
-0.000237174
-0.00132184
-0.00227226
-0.00308921
-0.00377362
-0.00432656
-0.00474941
-0.00504358
-0.00521046
-0.00525146
-0.00516825
-0.00496279
-0.00463714
-0.0041934
-0.00363377
-0.00296077
-0.00217725
-0.0012862
-0.000290715
0.000806013
0.00200054
0.0032892
0.0046681
0.00613329
0.00768064
0.00930579
0.0110041
0.0127708
0.0146009
0.0164893
0.0184309
0.0204204
0.0224524
0.0245208
0.0266197
0.0287429
0.0308843
0.0330375
0.0351961
0.0373536
0.039503
0.0416377
0.0437509
0.0458358
0.0478855
0.0498931
0.0518516
0.0537542
0.0555943
0.0573654
0.059061
0.0606749
0.0622007
0.0636323
0.0649641
0.0661907
0.067307
0.0683084
0.0691902
0.0699482
0.0705783
0.0710772
0.0714418
0.0716698
0.071759
0.0717075
0.0715141
0.0711781
0.0706993
0.070078
0.0693146
0.0684097
0.0673642
0.0661794
0.0648571
0.0633995
0.0618089
0.0600878
0.0582384
0.0562631
0.054164
0.0519422
0.0495987
0.0471516
0.0446165
0.0417657
0.0384057
0.0277466
0.0241054
0.021048
0.0183624
0.0157966
0.0133646
0.0110837
0.00895169
0.00696612
0.00512619
0.00343112
0.00188008
0.00047214
-0.000793703
-0.00191844
-0.00290321
-0.0037492
-0.00445774
-0.00503043
-0.00546894
-0.00577488
-0.00594988
-0.00599579
-0.00591473
-0.00570888
-0.00538042
-0.00493158
-0.00436486
-0.0036831
-0.00288927
-0.00198638
-0.000977569
0.000133742
0.0013439
0.00264916
0.00404564
0.00552944
0.0070964
0.00874202
0.0104616
0.0122503
0.0141032
0.0160153
0.0179815
0.0199964
0.0220544
0.0241496
0.0262761
0.0284278
0.0305984
0.0327817
0.0349712
0.03716
0.0393416
0.0415091
0.0436558
0.0457747
0.0478588
0.0499011
0.0518945
0.0538322
0.0557074
0.0575135
0.0592437
0.0608917
0.0624509
0.063915
0.0652781
0.0665348
0.0676796
0.0687075
0.0696136
0.0703934
0.0710428
0.0715579
0.0719356
0.0721729
0.0722674
0.0722168
0.0720196
0.0716749
0.0711822
0.0705414
0.0697525
0.0688157
0.0677316
0.0665014
0.0651266
0.0636091
0.0619511
0.0601549
0.0582224
0.0561558
0.0539575
0.0516286
0.0491701
0.046601
0.043938
0.0409416
0.0374089
0.028259
0.0244493
0.0212514
0.018444
0.0157634
0.0132245
0.0108449
0.00862257
0.00655478
0.00464047
0.00287857
0.00126783
-0.000192915
-0.00150512
-0.00267004
-0.00368915
-0.00456407
-0.00529661
-0.00588867
-0.00634214
-0.00665887
-0.00684093
-0.00689061
-0.00681028
-0.00660223
-0.00626883
-0.00581261
-0.00523641
-0.00454323
-0.00373605
-0.00281798
-0.00179238
-0.000662901
0.000566679
0.00189262
0.00331109
0.0048181
0.00640936
0.00808029
0.00982616
0.0116421
0.0135233
0.0154648
0.0174613
0.0195074
0.0215974
0.0237255
0.0258858
0.0280723
0.0302787
0.0324985
0.0347252
0.0369521
0.0391724
0.0413795
0.0435663
0.0457258
0.0478509
0.0499344
0.0519692
0.0539484
0.0558651
0.0577124
0.0594834
0.0611713
0.0627697
0.0642719
0.065672
0.0669639
0.0681422
0.0692014
0.0701363
0.0709423
0.0716149
0.0721501
0.0725442
0.0727939
0.0728963
0.0728491
0.0726502
0.0722986
0.0717935
0.0711342
0.0703203
0.069352
0.0682295
0.0669538
0.0655262
0.0639484
0.0622223
0.06035
0.0583333
0.0561745
0.053876
0.0514389
0.0488644
0.0461724
0.0433805
0.0402378
0.0365317
0.0286094
0.0246316
0.0212936
0.0183644
0.0155691
0.0129231
0.0104448
0.00813197
0.00598183
0.00399299
0.00216407
0.000493529
-0.00102019
-0.00237864
-0.00358356
-0.00463681
-0.00554038
-0.00629641
-0.00690705
-0.00737444
-0.00770087
-0.00788882
-0.00794084
-0.00785944
-0.0076471
-0.0073065
-0.00684057
-0.00625229
-0.00554472
-0.00472095
-0.00378432
-0.00273844
-0.00158712
-0.000334143
0.00101677
0.00246172
0.00399653
0.00561679
0.00731787
0.00909513
0.0109437
0.0128588
0.0148352
0.0168677
0.0189508
0.0210788
0.023246
0.0254464
0.0276741
0.0299225
0.0321853
0.0344558
0.0367274
0.0389933
0.0412466
0.0434802
0.045687
0.0478597
0.0499912
0.0520741
0.0541014
0.0560661
0.0579608
0.0597787
0.0615128
0.0631563
0.0647026
0.0661452
0.067478
0.0686949
0.0697904
0.070759
0.0715958
0.0722961
0.0728553
0.0732695
0.073535
0.0736486
0.0736075
0.0734095
0.0730533
0.0725374
0.0718609
0.0710233
0.0700241
0.0688637
0.0675428
0.0660624
0.0644241
0.0626294
0.0606803
0.0585787
0.0563268
0.0539271
0.0513808
0.0486891
0.0458732
0.0429513
0.0396611
0.0357803
0.0287899
0.0246442
0.0211661
0.0181152
0.015205
0.0124517
0.00987476
0.00747147
0.00523892
0.00317552
0.00127955
-0.000450696
-0.00201713
-0.00342157
-0.00466616
-0.0057531
-0.00668471
-0.00746335
-0.00809147
-0.00857163
-0.00890652
-0.00909888
-0.00915143
-0.00906687
-0.00884802
-0.00849791
-0.00801969
-0.00741643
-0.00669128
-0.0058476
-0.00488901
-0.00381929
-0.00264224
-0.00136167
1.86068e-05
0.0014945
0.0030617
0.0047157
0.00645194
0.0082658
0.0101524
0.0121068
0.0141238
0.016198
0.0183239
0.020496
0.0227084
0.0249553
0.0272304
0.0295274
0.0318396
0.0341606
0.0364836
0.0388018
0.0411081
0.0433952
0.0456561
0.0478832
0.0500694
0.0522073
0.0542895
0.0563086
0.0582574
0.0601286
0.0619152
0.0636101
0.0652065
0.0666976
0.0680769
0.0693381
0.0704753
0.0714828
0.0723554
0.0730879
0.0736756
0.0741139
0.074399
0.0745272
0.0744955
0.0743014
0.0739429
0.0734184
0.0727266
0.0718666
0.0708378
0.0696404
0.0682748
0.0667419
0.065043
0.0631795
0.0611532
0.058966
0.0566202
0.0541185
0.0514619
0.0486519
0.0457106
0.0426575
0.0392182
0.0351609
0.0287929
0.024479
0.0208606
0.0176877
0.0146625
0.0118021
0.00912636
0.0066326
0.00431764
0.00217975
0.000216989
-0.00157273
-0.00319145
-0.00464146
-0.00592517
-0.00704506
-0.00800373
-0.00880385
-0.00944824
-0.00993986
-0.0102817
-0.0104766
-0.0105276
-0.0104376
-0.0102099
-0.00984777
-0.00935439
-0.00873299
-0.007987
-0.00712007
-0.00613601
-0.00503862
-0.00383174
-0.00251926
-0.00110522
0.000406109
0.00201032
0.00370296
0.0054795
0.00733526
0.00926531
0.0112645
0.0133276
0.0154492
0.017624
0.0198463
0.0221102
0.0244098
0.0267387
0.0290906
0.0314589
0.0338371
0.0362183
0.0385956
0.0409616
0.0433091
0.0456309
0.0479194
0.0501673
0.052367
0.0545108
0.0565912
0.0586007
0.0605319
0.0623775
0.0641304
0.0657832
0.067329
0.0687608
0.0700721
0.0712568
0.0723087
0.0732224
0.0739922
0.074613
0.0750799
0.0753887
0.0755354
0.0755167
0.0753297
0.0749718
0.0744412
0.0737363
0.0728557
0.0717989
0.0705657
0.0691563
0.0675715
0.0658122
0.0638798
0.0617761
0.0595029
0.0570626
0.0544579
0.0516899
0.0487603
0.0456922
0.042506