/*--------------------------------*- C++ -*----------------------------------*\
  =========                 |
  \\      /  F ield         | OpenFOAM: The Open Source CFD Toolbox
   \\    /   O peration     | Website:  https://openfoam.org
    \\  /    A nd           | Version:  11
     \\/     M anipulation  |
\*---------------------------------------------------------------------------*/
FoamFile
{
    format      ascii;
    class       volScalarField;
    location    "0.4";
    object      p;
}
// * * * * * * * * * * * * * * * * * * * * * * * * * * * * * * * * * * * * * //

dimensions      [0 2 -2 0 0 0 0];

internalField   nonuniform List<scalar> 
10100
(
9.1054e-08
0.0102743
0.0190829
-0.00295023
-0.0536885
-0.121088
-0.195507
-0.271178
-0.344067
-0.410979
-0.470227
-0.521548
-0.565862
-0.604259
-0.637416
-0.6661
-0.690954
-0.712159
-0.730121
-0.745172
-0.757339
-0.767068
-0.774818
-0.780687
-0.784822
-0.787526
-0.789179
-0.790259
-0.791333
-0.792793
-0.794624
-0.796582
-0.798348
-0.799625
-0.800297
-0.800475
-0.800417
-0.800281
-0.800097
-0.799955
-0.799842
-0.799523
-0.798696
-0.797048
-0.794404
-0.790846
-0.786616
-0.782173
-0.778056
-0.774464
-0.771194
-0.767882
-0.764235
-0.760266
-0.756284
-0.752617
-0.749475
-0.746849
-0.744345
-0.741314
-0.737226
-0.731926
-0.725785
-0.719607
-0.714011
-0.708886
-0.70366
-0.697891
-0.691389
-0.684131
-0.676412
-0.668713
-0.661137
-0.653271
-0.644796
-0.635859
-0.626613
-0.616775
-0.60599
-0.594337
-0.582149
-0.569568
-0.556635
-0.543684
-0.531283
-0.519773
-0.509138
-0.499346
-0.490511
-0.482639
-0.475466
-0.468714
-0.462355
-0.456512
-0.451265
-0.446584
-0.442389
-0.439019
-0.436905
-0.43622
0.0163182
-0.0110415
-0.0319661
-0.0688495
-0.122289
-0.183804
-0.248037
-0.311381
-0.372069
-0.428408
-0.479001
-0.5236
-0.562654
-0.596819
-0.627022
-0.653802
-0.677257
-0.697806
-0.71562
-0.730676
-0.743265
-0.753605
-0.761902
-0.768454
-0.773489
-0.777273
-0.780142
-0.782446
-0.78453
-0.786635
-0.788781
-0.790861
-0.792712
-0.794079
-0.794859
-0.795215
-0.795347
-0.795416
-0.795566
-0.795849
-0.796186
-0.796299
-0.7958
-0.794441
-0.79211
-0.788797
-0.78484
-0.780833
-0.7772
-0.774036
-0.771079
-0.76782
-0.764015
-0.7599
-0.755784
-0.751963
-0.748835
-0.746421
-0.744076
-0.741042
-0.736881
-0.731456
-0.725165
-0.718974
-0.713476
-0.708235
-0.702513
-0.696093
-0.689023
-0.681268
-0.673084
-0.665063
-0.657352
-0.649395
-0.64079
-0.631836
-0.622835
-0.613416
-0.603017
-0.591667
-0.579824
-0.567691
-0.555187
-0.542497
-0.530221
-0.518891
-0.508601
-0.499208
-0.490646
-0.482923
-0.475959
-0.469538
-0.463447
-0.457694
-0.452469
-0.447781
-0.443591
-0.44013
-0.437557
-0.436147
0.0286273
-0.0288543
-0.0714233
-0.119688
-0.17555
-0.234036
-0.291781
-0.347054
-0.39909
-0.447289
-0.491096
-0.530319
-0.564924
-0.59568
-0.62328
-0.647938
-0.669919
-0.689287
-0.706099
-0.720623
-0.732994
-0.743286
-0.75174
-0.758516
-0.76384
-0.76816
-0.771812
-0.77502
-0.778005
-0.780842
-0.783459
-0.785776
-0.787756
-0.789302
-0.790321
-0.790959
-0.7914
-0.791739
-0.79218
-0.792813
-0.793447
-0.793803
-0.793516
-0.79229
-0.790086
-0.786962
-0.783258
-0.779689
-0.776651
-0.773956
-0.77124
-0.76808
-0.764219
-0.759921
-0.755671
-0.751809
-0.748675
-0.746325
-0.744059
-0.740911
-0.736434
-0.73076
-0.724445
-0.718331
-0.712852
-0.707469
-0.701357
-0.694378
-0.686869
-0.67898
-0.670823
-0.662778
-0.655015
-0.647085
-0.638524
-0.629529
-0.620499
-0.611216
-0.601035
-0.589786
-0.577946
-0.565951
-0.553789
-0.541434
-0.529335
-0.518204
-0.508393
-0.499666
-0.491603
-0.484076
-0.477206
-0.470928
-0.464924
-0.459085
-0.4536
-0.448655
-0.444406
-0.44086
-0.438152
-0.435714
0.00928011
-0.0638666
-0.118935
-0.172944
-0.227553
-0.281268
-0.333061
-0.381824
-0.427115
-0.468731
-0.506803
-0.541151
-0.572018
-0.599752
-0.624723
-0.647307
-0.667489
-0.685217
-0.700683
-0.714098
-0.725667
-0.735611
-0.743989
-0.750843
-0.756451
-0.761149
-0.765217
-0.768971
-0.772582
-0.775928
-0.778877
-0.781401
-0.783444
-0.785008
-0.786167
-0.787044
-0.787767
-0.788383
-0.789052
-0.789912
-0.790736
-0.791196
-0.791038
-0.789971
-0.787905
-0.785061
-0.781886
-0.778975
-0.776611
-0.774483
-0.772057
-0.768957
-0.765106
-0.760764
-0.756357
-0.752371
-0.749266
-0.74694
-0.744495
-0.741026
-0.736306
-0.730579
-0.724354
-0.718372
-0.712926
-0.707332
-0.700771
-0.693338
-0.685634
-0.677822
-0.669797
-0.661776
-0.653955
-0.645965
-0.637352
-0.628296
-0.61923
-0.609965
-0.599838
-0.588667
-0.576978
-0.565219
-0.553289
-0.541086
-0.529161
-0.518384
-0.509054
-0.500672
-0.492691
-0.485162
-0.478377
-0.472162
-0.466042
-0.459937
-0.454195
-0.44932
-0.445408
-0.441974
-0.4392
-0.436266
-0.0408681
-0.116233
-0.174529
-0.228491
-0.279847
-0.327595
-0.37298
-0.415584
-0.455105
-0.491362
-0.524454
-0.554703
-0.5822
-0.607104
-0.629688
-0.650097
-0.668355
-0.68445
-0.698518
-0.710744
-0.721379
-0.730681
-0.738724
-0.745605
-0.751493
-0.756542
-0.760975
-0.765031
-0.76881
-0.772226
-0.775193
-0.777693
-0.779671
-0.781172
-0.782372
-0.783374
-0.784237
-0.785044
-0.785899
-0.786848
-0.787735
-0.788278
-0.788222
-0.787353
-0.785589
-0.783181
-0.780723
-0.778717
-0.777089
-0.77543
-0.773359
-0.770491
-0.766675
-0.762284
-0.75785
-0.753827
-0.750655
-0.748219
-0.745524
-0.741679
-0.736734
-0.73115
-0.725274
-0.719508
-0.714018
-0.708217
-0.701397
-0.693756
-0.686006
-0.678308
-0.670374
-0.662253
-0.654191
-0.645982
-0.637233
-0.628082
-0.61895
-0.609694
-0.599674
-0.588692
-0.57725
-0.565757
-0.554042
-0.541973
-0.530171
-0.519572
-0.510389
-0.501978
-0.493818
-0.486133
-0.479273
-0.473013
-0.466899
-0.46083
-0.455182
-0.450528
-0.446805
-0.443834
-0.441148
-0.438071
-0.11155
-0.179056
-0.233424
-0.283243
-0.329566
-0.371551
-0.410411
-0.447099
-0.481303
-0.512914
-0.541979
-0.568685
-0.593279
-0.615763
-0.636134
-0.654535
-0.670996
-0.685543
-0.698369
-0.709683
-0.719616
-0.72832
-0.735965
-0.742745
-0.748726
-0.753964
-0.758638
-0.762829
-0.766511
-0.769693
-0.772392
-0.774639
-0.77647
-0.777935
-0.779144
-0.780193
-0.781118
-0.782
-0.782937
-0.783882
-0.784728
-0.785348
-0.785422
-0.784692
-0.783289
-0.781535
-0.779852
-0.778613
-0.777651
-0.776436
-0.774632
-0.771983
-0.768326
-0.76398
-0.759554
-0.755567
-0.752368
-0.749713
-0.746618
-0.742402
-0.737407
-0.732182
-0.726802
-0.721323
-0.715875
-0.710065
-0.703273
-0.695641
-0.687905
-0.680268
-0.672312
-0.6639
-0.655341
-0.646722
-0.637809
-0.62862
-0.619426
-0.610135
-0.600263
-0.589642
-0.578631
-0.567462
-0.555906
-0.543926
-0.532246
-0.521744
-0.512449
-0.503665
-0.495092
-0.487201
-0.480381
-0.474367
-0.468619
-0.462811
-0.457297
-0.452842
-0.449479
-0.446863
-0.444247
-0.441196
-0.191718
-0.247353
-0.293542
-0.336571
-0.376859
-0.412937
-0.446284
-0.477344
-0.506623
-0.534031
-0.559473
-0.58315
-0.605119
-0.625303
-0.643729
-0.660348
-0.675099
-0.688224
-0.699942
-0.710382
-0.719682
-0.727964
-0.735342
-0.741921
-0.747772
-0.752972
-0.75762
-0.761711
-0.765181
-0.768074
-0.770474
-0.772459
-0.774157
-0.775635
-0.776881
-0.777959
-0.778913
-0.779736
-0.780559
-0.781432
-0.782203
-0.782753
-0.782874
-0.782315
-0.781229
-0.780035
-0.779043
-0.77835
-0.777717
-0.77676
-0.775218
-0.772772
-0.76924
-0.765042
-0.760837
-0.757003
-0.753699
-0.750697
-0.747217
-0.742792
-0.737922
-0.733184
-0.728439
-0.72342
-0.718191
-0.712569
-0.706053
-0.69866
-0.690985
-0.683253
-0.67507
-0.66625
-0.657144
-0.648055
-0.638925
-0.629715
-0.62053
-0.611256
-0.601542
-0.591302
-0.580782
-0.570021
-0.558707
-0.54687
-0.535274
-0.524694
-0.515048
-0.50577
-0.496833
-0.488833
-0.482145
-0.476526
-0.471301
-0.465893
-0.460639
-0.456367
-0.453351
-0.450955
-0.448532
-0.445654
-0.272547
-0.315513
-0.352673
-0.387912
-0.421538
-0.452105
-0.480311
-0.506707
-0.531656
-0.555234
-0.577522
-0.598413
-0.617836
-0.635837
-0.652336
-0.667205
-0.680505
-0.692378
-0.703016
-0.71259
-0.72122
-0.729035
-0.736127
-0.74246
-0.748085
-0.75311
-0.757524
-0.761321
-0.764535
-0.767211
-0.769434
-0.771311
-0.772978
-0.774515
-0.775827
-0.776869
-0.777733
-0.77842
-0.778991
-0.779611
-0.780255
-0.780707
-0.780722
-0.780237
-0.779491
-0.778723
-0.778053
-0.777545
-0.777024
-0.776172
-0.774768
-0.772513
-0.769239
-0.7654
-0.761609
-0.758025
-0.754616
-0.751263
-0.747514
-0.74312
-0.738602
-0.734474
-0.730439
-0.726009
-0.721178
-0.715923
-0.709842
-0.702801
-0.695214
-0.68731
-0.678799
-0.669544
-0.659968
-0.650522
-0.64123
-0.631958
-0.622689
-0.613357
-0.60377
-0.593864
-0.583726
-0.573252
-0.56216
-0.55054
-0.539038
-0.528208
-0.517989
-0.508155
-0.498958
-0.490947
-0.484407
-0.479139
-0.47435
-0.469295
-0.464325
-0.460406
-0.45783
-0.455734
-0.453672
-0.451095
-0.348894
-0.379952
-0.408456
-0.436408
-0.463741
-0.489085
-0.512858
-0.535294
-0.556525
-0.576873
-0.596254
-0.614466
-0.631506
-0.64731
-0.661766
-0.674905
-0.686824
-0.697559
-0.707244
-0.716036
-0.72403
-0.731324
-0.737982
-0.743963
-0.749293
-0.754033
-0.758121
-0.761574
-0.764526
-0.767019
-0.769134
-0.771038
-0.772762
-0.774281
-0.775562
-0.776526
-0.777141
-0.777496
-0.777799
-0.778183
-0.778582
-0.778861
-0.778854
-0.778502
-0.777995
-0.77745
-0.776857
-0.776293
-0.775695
-0.774843
-0.773579
-0.771635
-0.76884
-0.765603
-0.762419
-0.759208
-0.755765
-0.752159
-0.748349
-0.744272
-0.740311
-0.736825
-0.733456
-0.729628
-0.725265
-0.72042
-0.714781
-0.708112
-0.700645
-0.692585
-0.683776
-0.674201
-0.664347
-0.654698
-0.645248
-0.635761
-0.626192
-0.616614
-0.606982
-0.597183
-0.587144
-0.576748
-0.56586
-0.554563
-0.543184
-0.531995
-0.521132
-0.510878
-0.501665
-0.493777
-0.487325
-0.482147
-0.477455
-0.47256
-0.467924
-0.464548
-0.462499
-0.460814
-0.459183
-0.457086
-0.418713
-0.439092
-0.459608
-0.481228
-0.503318
-0.524135
-0.544018
-0.562971
-0.58116
-0.598569
-0.615157
-0.6309
-0.645635
-0.659231
-0.671734
-0.683265
-0.693817
-0.703492
-0.712384
-0.720526
-0.727994
-0.734807
-0.740937
-0.74644
-0.751355
-0.755666
-0.759336
-0.762405
-0.765044
-0.76734
-0.76931
-0.771105
-0.772808
-0.774267
-0.775321
-0.775981
-0.7763
-0.77634
-0.776343
-0.776517
-0.776785
-0.777019
-0.777108
-0.776993
-0.776736
-0.776292
-0.775606
-0.774865
-0.774155
-0.773325
-0.772269
-0.770804
-0.768747
-0.766348
-0.763892
-0.761111
-0.757745
-0.754092
-0.750483
-0.746947
-0.74362
-0.740672
-0.737783
-0.734404
-0.730401
-0.725852
-0.72054
-0.71419
-0.706877
-0.698763
-0.689802
-0.680097
-0.670154
-0.660397
-0.650716
-0.640804
-0.630683
-0.620625
-0.610715
-0.600768
-0.5906
-0.580189
-0.569587
-0.558778
-0.547671
-0.536295
-0.525087
-0.51478
-0.505793
-0.498045
-0.491501
-0.486071
-0.481119
-0.476185
-0.471883
-0.469097
-0.467563
-0.466349
-0.465075
-0.463533
-0.481839
-0.49284
-0.506353
-0.522573
-0.540169
-0.557237
-0.573635
-0.589534
-0.604884
-0.619544
-0.633583
-0.646933
-0.659413
-0.671013
-0.681844
-0.691992
-0.701424
-0.710213
-0.718456
-0.726112
-0.733114
-0.739403
-0.74498
-0.749956
-0.754307
-0.757964
-0.761064
-0.763726
-0.765948
-0.767822
-0.769523
-0.771118
-0.772548
-0.773709
-0.774466
-0.77478
-0.774744
-0.774523
-0.774389
-0.774502
-0.774775
-0.775141
-0.775534
-0.775786
-0.775761
-0.77531
-0.774454
-0.773547
-0.772768
-0.77199
-0.771203
-0.77037
-0.769248
-0.767787
-0.766028
-0.763672
-0.760539
-0.757107
-0.753939
-0.751062
-0.748326
-0.745707
-0.742992
-0.739781
-0.735932
-0.731506
-0.726359
-0.720238
-0.713138
-0.705156
-0.696269
-0.686611
-0.676672
-0.666828
-0.656884
-0.646469
-0.63568
-0.624999
-0.61467
-0.604486
-0.594204
-0.583901
-0.573752
-0.56359
-0.552943
-0.541698
-0.530566
-0.520494
-0.511701
-0.503861
-0.496978
-0.491124
-0.485849
-0.480945
-0.477092
-0.474909
-0.473808
-0.47293
-0.471838
-0.47076
-0.538439
-0.54207
-0.549699
-0.560918
-0.574567
-0.588231
-0.601565
-0.614557
-0.627134
-0.639293
-0.650958
-0.662033
-0.672499
-0.682428
-0.691906
-0.700948
-0.709582
-0.717764
-0.725503
-0.732695
-0.739154
-0.744865
-0.749868
-0.754171
-0.7578
-0.760792
-0.76324
-0.765289
-0.767007
-0.768417
-0.76965
-0.77083
-0.771896
-0.772682
-0.773052
-0.773033
-0.772786
-0.772475
-0.772313
-0.772445
-0.772857
-0.773541
-0.774345
-0.774914
-0.775
-0.774484
-0.773472
-0.772404
-0.771542
-0.770828
-0.770368
-0.770238
-0.770072
-0.769463
-0.768266
-0.76632
-0.763623
-0.76072
-0.758197
-0.756002
-0.75374
-0.751243
-0.748442
-0.74514
-0.741238
-0.736784
-0.731705
-0.725811
-0.719041
-0.711385
-0.702754
-0.693265
-0.683407
-0.673544
-0.663431
-0.652629
-0.641274
-0.630035
-0.619332
-0.60899
-0.598738
-0.588688
-0.57903
-0.569426
-0.559176
-0.548172
-0.537287
-0.527416
-0.518537
-0.510341
-0.503089
-0.497036
-0.49184
-0.487367
-0.484167
-0.4825
-0.481625
-0.480809
-0.479845
-0.479146
-0.589158
-0.587328
-0.590036
-0.59692
-0.606743
-0.617211
-0.627678
-0.637904
-0.647989
-0.657833
-0.667287
-0.676393
-0.685194
-0.693731
-0.702094
-0.710286
-0.718275
-0.725943
-0.73317
-0.739794
-0.745588
-0.750578
-0.754924
-0.758552
-0.761416
-0.763736
-0.76566
-0.76715
-0.76825
-0.769124
-0.769919
-0.770676
-0.771301
-0.771681
-0.771754
-0.771575
-0.771262
-0.770912
-0.770728
-0.77092
-0.771526
-0.772511
-0.773601
-0.774317
-0.774404
-0.773808
-0.772661
-0.771426
-0.770469
-0.769852
-0.769756
-0.770291
-0.770941
-0.77099
-0.770202
-0.768694
-0.766682
-0.764611
-0.76288
-0.761323
-0.75943
-0.756972
-0.753981
-0.750434
-0.746329
-0.74179
-0.736836
-0.731278
-0.724929
-0.717655
-0.709338
-0.700108
-0.690454
-0.680716
-0.670606
-0.65964
-0.647979
-0.636408
-0.625472
-0.615043
-0.604837
-0.594959
-0.585548
-0.576142
-0.565992
-0.555113
-0.544437
-0.53464
-0.525538
-0.517023
-0.509682
-0.503847
-0.499144
-0.495353
-0.492789
-0.491402
-0.490541
-0.489642
-0.488933
-0.488641
-0.634737
-0.628669
-0.627611
-0.630738
-0.636907
-0.644336
-0.652134
-0.660001
-0.667875
-0.675638
-0.683214
-0.690666
-0.698047
-0.705397
-0.712766
-0.720138
-0.727402
-0.734432
-0.740909
-0.746635
-0.751667
-0.755997
-0.759569
-0.76246
-0.764828
-0.766766
-0.76824
-0.769221
-0.769847
-0.770308
-0.770695
-0.77102
-0.771256
-0.771376
-0.77133
-0.771111
-0.770767
-0.770356
-0.770112
-0.770308
-0.771007
-0.772122
-0.773297
-0.77402
-0.774089
-0.773494
-0.772305
-0.770952
-0.76995
-0.769525
-0.769849
-0.770932
-0.772139
-0.772601
-0.772135
-0.771162
-0.770044
-0.768975
-0.768059
-0.767068
-0.765508
-0.763109
-0.759923
-0.756056
-0.751687
-0.747107
-0.742399
-0.737246
-0.731246
-0.724201
-0.716113
-0.707205
-0.6979
-0.68842
-0.678441
-0.667518
-0.655846
-0.644222
-0.633191
-0.622641
-0.612338
-0.602415
-0.592957
-0.583441
-0.573212
-0.56245
-0.552034
-0.542352
-0.533143
-0.524563
-0.517374
-0.511862
-0.5076
-0.504325
-0.502156
-0.500852
-0.499926
-0.499007
-0.498613
-0.498774
-0.675628
-0.666404
-0.662331
-0.662235
-0.665361
-0.670014
-0.675513
-0.681385
-0.687323
-0.693313
-0.699342
-0.705398
-0.711508
-0.717689
-0.724046
-0.730551
-0.73687
-0.74279
-0.748205
-0.752974
-0.757098
-0.760625
-0.763551
-0.765992
-0.76809
-0.769785
-0.770937
-0.771574
-0.771875
-0.771975
-0.771957
-0.771914
-0.771915
-0.77196
-0.771939
-0.771748
-0.771364
-0.770846
-0.770486
-0.770605
-0.771253
-0.772318
-0.773472
-0.774247
-0.774454
-0.774043
-0.772969
-0.771638
-0.770757
-0.770688
-0.771447
-0.772859
-0.7743
-0.774983
-0.774827
-0.774433
-0.774192
-0.774046
-0.773853
-0.773358
-0.772094
-0.769735
-0.766327
-0.762117
-0.757507
-0.752952
-0.748504
-0.743623
-0.737705
-0.730623
-0.722639
-0.714091
-0.705237
-0.696089
-0.686314
-0.675608
-0.664218
-0.652829
-0.64186
-0.631201
-0.620733
-0.610668
-0.601064
-0.591413
-0.581202
-0.570728
-0.560683
-0.551199
-0.542029
-0.533547
-0.526523
-0.521139
-0.517008
-0.513952
-0.511964
-0.510682
-0.509702
-0.508855
-0.508656
-0.509225
-0.712381
-0.700748
-0.694092
-0.691578
-0.692305
-0.694763
-0.698316
-0.702384
-0.706683
-0.711192
-0.71585
-0.720587
-0.725519
-0.730677
-0.735983
-0.741318
-0.746451
-0.751082
-0.75519
-0.758856
-0.762047
-0.76478
-0.767194
-0.769412
-0.771355
-0.772809
-0.773668
-0.774016
-0.773993
-0.773696
-0.77328
-0.772979
-0.772932
-0.773084
-0.773203
-0.773079
-0.772662
-0.772048
-0.771568
-0.771548
-0.772032
-0.772988
-0.774216
-0.775268
-0.775843
-0.775786
-0.775003
-0.77392
-0.773375
-0.773759
-0.774855
-0.77633
-0.777738
-0.778515
-0.778629
-0.778684
-0.779056
-0.779562
-0.779924
-0.77983
-0.778756
-0.776321
-0.772634
-0.768137
-0.763383
-0.758855
-0.754503
-0.749607
-0.743492
-0.736214
-0.728321
-0.720203
-0.711875
-0.703124
-0.693665
-0.683381
-0.672548
-0.661662
-0.650956
-0.640323
-0.629783
-0.619616
-0.609877
-0.600131
-0.590057
-0.579984
-0.570346
-0.561051
-0.55198
-0.543673
-0.5368
-0.531425
-0.52727
-0.524286
-0.522379
-0.521114
-0.520092
-0.519354
-0.519263
-0.520153
-0.745365
-0.73177
-0.72326
-0.718894
-0.717828
-0.71857
-0.720389
-0.722924
-0.725795
-0.728854
-0.732255
-0.735974
-0.739891
-0.744046
-0.748369
-0.752519
-0.756236
-0.759481
-0.762332
-0.764838
-0.767019
-0.769023
-0.771044
-0.773027
-0.774667
-0.775735
-0.776221
-0.776194
-0.775722
-0.774947
-0.774201
-0.77384
-0.773957
-0.774347
-0.774659
-0.774645
-0.774267
-0.773607
-0.772979
-0.772737
-0.773026
-0.773965
-0.775463
-0.776982
-0.778034
-0.778419
-0.778095
-0.777474
-0.777381
-0.778174
-0.779465
-0.780848
-0.782101
-0.782887
-0.783149
-0.78341
-0.784058
-0.784917
-0.785647
-0.78583
-0.784819
-0.782207
-0.778264
-0.773623
-0.768867
-0.764347
-0.759882
-0.754732
-0.74834
-0.740985
-0.73338
-0.725834
-0.718099
-0.709811
-0.700798
-0.691115
-0.680998
-0.670722
-0.660369
-0.649883
-0.639369
-0.629095
-0.619119
-0.609197
-0.599282
-0.589655
-0.580429
-0.571331
-0.56241
-0.554326
-0.547635
-0.542299
-0.538147
-0.535203
-0.533316
-0.532038
-0.531001
-0.530426
-0.530596
-0.531786
-0.774558
-0.75994
-0.750161
-0.744233
-0.741691
-0.740961
-0.741229
-0.74223
-0.743761
-0.745675
-0.748038
-0.750954
-0.754255
-0.757697
-0.761043
-0.764038
-0.766462
-0.768395
-0.769983
-0.771289
-0.772496
-0.773866
-0.775431
-0.776909
-0.77798
-0.778527
-0.778533
-0.777961
-0.776905
-0.775705
-0.774848
-0.774652
-0.77504
-0.775684
-0.776198
-0.776339
-0.776018
-0.775246
-0.774345
-0.773808
-0.773949
-0.774989
-0.776839
-0.778828
-0.780314
-0.781142
-0.781376
-0.781338
-0.781709
-0.782831
-0.784286
-0.78564
-0.786797
-0.787555
-0.787831
-0.788104
-0.788809
-0.789821
-0.79077
-0.79113
-0.790134
-0.787385
-0.783336
-0.778764
-0.774159
-0.769654
-0.764985
-0.759548
-0.753036
-0.745923
-0.738907
-0.732061
-0.724881
-0.716985
-0.708395
-0.699291
-0.689799
-0.679982
-0.669869
-0.659507
-0.649032
-0.638625
-0.628351
-0.61826
-0.608587
-0.59952
-0.590781
-0.581929
-0.573168
-0.565265
-0.558708
-0.553419
-0.549292
-0.54636
-0.544422
-0.54307
-0.542069
-0.541716
-0.542355
-0.543882
-0.800474
-0.785542
-0.774885
-0.767736
-0.763693
-0.761383
-0.760129
-0.759691
-0.759986
-0.761042
-0.762857
-0.76537
-0.768328
-0.771271
-0.77381
-0.775774
-0.777084
-0.777786
-0.778086
-0.778276
-0.778677
-0.779415
-0.7803
-0.781036
-0.781452
-0.781442
-0.78085
-0.779627
-0.778067
-0.776693
-0.775955
-0.775986
-0.776582
-0.777398
-0.778061
-0.77827
-0.777843
-0.776758
-0.775445
-0.774604
-0.774668
-0.775829
-0.777936
-0.780252
-0.782062
-0.783279
-0.784078
-0.784654
-0.785505
-0.786988
-0.788746
-0.790302
-0.791545
-0.792304
-0.792518
-0.792717
-0.793417
-0.794512
-0.795593
-0.796071
-0.795129
-0.792408
-0.78848
-0.784172
-0.779823
-0.775363
-0.770515
-0.764909
-0.758521
-0.751925
-0.745646
-0.739423
-0.732548
-0.724747
-0.716322
-0.707567
-0.698446
-0.688829
-0.678782
-0.668512
-0.658162
-0.647768
-0.637398
-0.627391
-0.618187
-0.609784
-0.601532
-0.592914
-0.584297
-0.576542
-0.570085
-0.564843
-0.560737
-0.557769
-0.555716
-0.554206
-0.553219
-0.553051
-0.554088
-0.555932
-0.823686
-0.808692
-0.797637
-0.789304
-0.783659
-0.779761
-0.776923
-0.775174
-0.774583
-0.77513
-0.776771
-0.779221
-0.781963
-0.784438
-0.786313
-0.787389
-0.787622
-0.787147
-0.786351
-0.785695
-0.785415
-0.785438
-0.78555
-0.785607
-0.785469
-0.784888
-0.783658
-0.781908
-0.780135
-0.77883
-0.778238
-0.778348
-0.778968
-0.779804
-0.780444
-0.780478
-0.779688
-0.778132
-0.776401
-0.775347
-0.775402
-0.776622
-0.778804
-0.781262
-0.783277
-0.784799
-0.786087
-0.787255
-0.788642
-0.790616
-0.792873
-0.794859
-0.796349
-0.797142
-0.79725
-0.797347
-0.798049
-0.799222
-0.800377
-0.800914
-0.800068
-0.797542
-0.793942
-0.790017
-0.785932
-0.781498
-0.776527
-0.770895
-0.764781
-0.758744
-0.753057
-0.747144
-0.740195
-0.732155
-0.723642
-0.715041
-0.706133
-0.696624
-0.686649
-0.676567
-0.666514
-0.656379
-0.646234
-0.636596
-0.627965
-0.620117
-0.612198
-0.603797
-0.595485
-0.588124
-0.581997
-0.576943
-0.572888
-0.569839
-0.567598
-0.565846
-0.564749
-0.564623
-0.565763
-0.567799
-0.844466
-0.829657
-0.81835
-0.808951
-0.80172
-0.796302
-0.792153
-0.789383
-0.788229
-0.788601
-0.790213
-0.792572
-0.795032
-0.797018
-0.798193
-0.798374
-0.797575
-0.796151
-0.794636
-0.793399
-0.792491
-0.791824
-0.791341
-0.790938
-0.790322
-0.789165
-0.787426
-0.785452
-0.78372
-0.782499
-0.781858
-0.781811
-0.782266
-0.782942
-0.783322
-0.782939
-0.781665
-0.779714
-0.777767
-0.77668
-0.776786
-0.777973
-0.78004
-0.782457
-0.784551
-0.786243
-0.787857
-0.789513
-0.791458
-0.794019
-0.796867
-0.799326
-0.801052
-0.80183
-0.80178
-0.801755
-0.802463
-0.803692
-0.804847
-0.805358
-0.804597
-0.802371
-0.799242
-0.795761
-0.791891
-0.787424
-0.782367
-0.776826
-0.771044
-0.765433
-0.76002
-0.754066
-0.746817
-0.738479
-0.729926
-0.721552
-0.712932
-0.703632
-0.69385
-0.684058
-0.674358
-0.664524
-0.654659
-0.645383
-0.637163
-0.629601
-0.621878
-0.613857
-0.606287
-0.599839
-0.594455
-0.589788
-0.58579
-0.582571
-0.580045
-0.578007
-0.576716
-0.576561
-0.577679
-0.579803
-0.863253
-0.848692
-0.837029
-0.826882
-0.818391
-0.811686
-0.806662
-0.80334
-0.80188
-0.802126
-0.803583
-0.805622
-0.807589
-0.808953
-0.809319
-0.808604
-0.807013
-0.805025
-0.803092
-0.80138
-0.799906
-0.798737
-0.797878
-0.797077
-0.795936
-0.794281
-0.792307
-0.790365
-0.788691
-0.78735
-0.786431
-0.786081
-0.786259
-0.786612
-0.786563
-0.785711
-0.78411
-0.782088
-0.780244
-0.779287
-0.779439
-0.780486
-0.78227
-0.78446
-0.786452
-0.788114
-0.789818
-0.791777
-0.794205
-0.797323
-0.800653
-0.803394
-0.805167
-0.805823
-0.805604
-0.805481
-0.806186
-0.80741
-0.808475
-0.80888
-0.808193
-0.806348
-0.803805
-0.80083
-0.797166
-0.792663
-0.787605
-0.782292
-0.776902
-0.771596
-0.76621
-0.760038
-0.752556
-0.744221
-0.735977
-0.728062
-0.719832
-0.710792
-0.701222
-0.691653
-0.682118
-0.67234
-0.662514
-0.65337
-0.645327
-0.637914
-0.63048
-0.623179
-0.61678
-0.611581
-0.607095
-0.602798
-0.598734
-0.595214
-0.592326
-0.590044
-0.588639
-0.588569
-0.589872
-0.592127
-0.880341
-0.865969
-0.854071
-0.843427
-0.834182
-0.826743
-0.8213
-0.817801
-0.816158
-0.81611
-0.817151
-0.818645
-0.819918
-0.820453
-0.82
-0.818617
-0.816591
-0.814288
-0.811971
-0.809768
-0.80783
-0.806284
-0.805009
-0.803655
-0.801973
-0.800043
-0.798091
-0.796214
-0.794411
-0.79275
-0.791475
-0.790807
-0.790632
-0.790541
-0.790041
-0.788908
-0.787335
-0.785608
-0.784086
-0.783278
-0.783383
-0.784187
-0.785569
-0.787356
-0.789037
-0.790458
-0.792057
-0.794148
-0.796919
-0.800422
-0.803972
-0.806681
-0.808275
-0.808771
-0.808495
-0.80839
-0.809093
-0.810215
-0.811102
-0.811394
-0.81084
-0.809466
-0.807605
-0.805229
-0.801865
-0.797449
-0.792553
-0.787638
-0.782721
-0.777674
-0.772217
-0.765839
-0.75835
-0.750382
-0.742749
-0.735383
-0.727451
-0.718512
-0.70901
-0.699514
-0.689954
-0.680031
-0.670071
-0.660945
-0.653055
-0.645922
-0.639036
-0.632689
-0.627481
-0.623312
-0.619394
-0.615189
-0.610913
-0.607073
-0.603896
-0.601499
-0.600165
-0.600333
-0.602028
-0.604536
-0.895599
-0.881619
-0.869677
-0.858857
-0.849497
-0.841969
-0.836477
-0.832948
-0.831119
-0.830651
-0.831094
-0.831848
-0.832303
-0.832014
-0.830942
-0.829186
-0.826888
-0.824215
-0.821385
-0.818658
-0.816253
-0.814186
-0.812253
-0.810261
-0.80823
-0.806292
-0.804423
-0.802446
-0.800336
-0.79832
-0.79673
-0.795709
-0.795055
-0.794449
-0.793632
-0.792522
-0.791277
-0.790007
-0.788809
-0.788047
-0.788008
-0.788542
-0.789501
-0.790793
-0.792034
-0.793137
-0.794599
-0.796754
-0.799698
-0.803307
-0.806752
-0.809167
-0.810488
-0.810929
-0.810811
-0.810882
-0.81157
-0.812467
-0.813096
-0.813321
-0.813015
-0.812195
-0.81105
-0.809322
-0.806392
-0.802273
-0.797734
-0.793308
-0.788853
-0.784001
-0.778443
-0.771922
-0.764567
-0.757088
-0.750048
-0.743041
-0.735143
-0.726109
-0.716616
-0.707238
-0.697756
-0.687821
-0.677876
-0.668913
-0.661328
-0.65464
-0.648405
-0.642887
-0.638451
-0.634735
-0.63091
-0.626605
-0.622215
-0.618322
-0.615162
-0.612852
-0.611714
-0.6121
-0.61406
-0.616823
-0.9089
-0.895666
-0.883933
-0.873387
-0.864459
-0.857307
-0.852014
-0.848512
-0.846476
-0.845525
-0.84527
-0.845221
-0.844912
-0.844059
-0.842607
-0.840549
-0.837852
-0.834629
-0.831194
-0.827874
-0.824812
-0.821972
-0.819311
-0.816905
-0.814836
-0.812983
-0.811038
-0.808779
-0.80633
-0.804001
-0.802039
-0.800486
-0.799205
-0.798125
-0.797208
-0.796347
-0.795493
-0.794584
-0.793589
-0.79282
-0.792661
-0.793011
-0.793645
-0.794502
-0.795359
-0.796257
-0.797699
-0.799896
-0.802778
-0.806134
-0.809171
-0.811186
-0.812322
-0.812898
-0.813126
-0.813462
-0.814086
-0.814632
-0.814935
-0.815137
-0.81516
-0.814906
-0.814404
-0.813272
-0.810843
-0.80718
-0.803115
-0.799145
-0.794986
-0.790175
-0.784483
-0.777885
-0.770696
-0.763582
-0.756851
-0.749901
-0.741878
-0.732813
-0.723565
-0.714617
-0.705553
-0.695941
-0.686297
-0.677656
-0.670388
-0.66402
-0.658163
-0.653048
-0.648891
-0.645253
-0.641414
-0.637202
-0.633096
-0.629615
-0.626876
-0.624865
-0.62392
-0.624359
-0.626274
-0.629136
-0.920463
-0.908262
-0.89713
-0.887172
-0.878943
-0.872416
-0.867457
-0.863972
-0.86166
-0.86016
-0.859188
-0.858462
-0.857624
-0.856427
-0.85466
-0.852179
-0.848925
-0.845086
-0.841012
-0.83697
-0.833087
-0.829498
-0.826411
-0.823958
-0.821976
-0.820052
-0.817818
-0.815207
-0.812432
-0.809705
-0.807144
-0.80486
-0.802957
-0.801588
-0.800761
-0.800176
-0.799554
-0.798811
-0.797959
-0.797275
-0.797135
-0.797434
-0.797903
-0.798522
-0.799207
-0.800088
-0.801591
-0.803708
-0.806207
-0.808941
-0.811363
-0.813029
-0.814186
-0.815072
-0.815705
-0.816279
-0.816778
-0.816917
-0.816865
-0.817039
-0.817378
-0.817611
-0.817605
-0.816923
-0.814946
-0.811784
-0.808213
-0.804587
-0.800521
-0.795604
-0.789795
-0.783244
-0.776285
-0.769414
-0.762752
-0.755703
-0.747657
-0.738908
-0.730326
-0.722154
-0.713735
-0.704587
-0.695295
-0.686881
-0.679665
-0.673207
-0.667259
-0.662139
-0.658061
-0.654584
-0.65105
-0.647342
-0.643912
-0.641149
-0.639028
-0.637405
-0.636575
-0.636948
-0.638716
-0.641579
-0.9308
-0.919836
-0.909629
-0.9004
-0.892908
-0.887006
-0.882287
-0.878629
-0.875868
-0.873792
-0.87223
-0.871025
-0.869866
-0.868381
-0.866259
-0.863311
-0.859525
-0.855114
-0.85038
-0.845586
-0.841028
-0.83707
-0.83396
-0.831596
-0.829529
-0.82729
-0.824662
-0.821687
-0.818495
-0.815154
-0.811824
-0.808868
-0.806608
-0.805193
-0.804492
-0.804025
-0.803417
-0.802709
-0.80203
-0.801561
-0.801545
-0.801866
-0.802306
-0.802919
-0.803658
-0.804611
-0.806068
-0.807842
-0.809649
-0.811534
-0.813307
-0.814786
-0.816181
-0.817478
-0.818466
-0.819181
-0.819523
-0.819296
-0.818926
-0.819035
-0.819571
-0.820136
-0.820466
-0.820087
-0.818455
-0.815739
-0.812631
-0.809297
-0.805258
-0.80023
-0.79442
-0.788118
-0.781555
-0.774974
-0.768353
-0.761259
-0.753423
-0.745331
-0.737681
-0.730354
-0.722465
-0.713585
-0.704417
-0.695977
-0.688518
-0.681671
-0.675394
-0.670187
-0.666312
-0.663278
-0.660359
-0.657363
-0.654663
-0.652542
-0.650884
-0.649523
-0.648719
-0.649032
-0.650808
-0.653816
-0.940635
-0.930961
-0.921823
-0.913367
-0.906393
-0.900751
-0.89592
-0.891808
-0.888449
-0.885832
-0.883884
-0.88239
-0.88101
-0.879275
-0.876857
-0.873556
-0.869351
-0.864415
-0.859069
-0.853737
-0.848913
-0.844984
-0.841967
-0.839497
-0.83708
-0.834407
-0.831385
-0.827985
-0.824217
-0.820179
-0.816247
-0.813005
-0.810756
-0.809407
-0.808666
-0.808068
-0.807317
-0.806588
-0.806075
-0.805815
-0.805901
-0.806239
-0.80674
-0.807516
-0.808424
-0.809378
-0.810544
-0.811716
-0.812713
-0.813798
-0.815071
-0.816538
-0.818288
-0.819993
-0.821229
-0.821982
-0.822158
-0.821646
-0.821018
-0.821002
-0.821568
-0.822282
-0.82281
-0.82264
-0.821277
-0.818955
-0.816301
-0.813305
-0.8094
-0.804416
-0.798783
-0.7929
-0.786875
-0.780694
-0.77422
-0.767199
-0.759688
-0.752282
-0.745434
-0.738675
-0.730988
-0.722096
-0.712868
-0.704325
-0.69666
-0.68957
-0.68319
-0.678134
-0.674636
-0.6721
-0.669728
-0.667289
-0.665101
-0.663373
-0.661923
-0.660624
-0.659796
-0.6601
-0.662023
-0.665432
-0.950738
-0.942158
-0.93401
-0.926146
-0.919211
-0.913254
-0.907913
-0.903189
-0.899265
-0.896246
-0.894094
-0.892512
-0.891033
-0.889172
-0.886571
-0.883002
-0.878407
-0.87299
-0.867228
-0.861719
-0.856963
-0.853137
-0.850013
-0.847181
-0.844309
-0.841224
-0.837788
-0.833862
-0.829502
-0.825021
-0.820959
-0.81787
-0.815806
-0.814388
-0.81332
-0.812376
-0.811403
-0.810595
-0.81012
-0.809925
-0.810032
-0.810397
-0.811025
-0.812018
-0.813057
-0.813862
-0.81455
-0.815047
-0.815371
-0.81592
-0.816904
-0.818413
-0.820439
-0.822418
-0.823777
-0.824481
-0.824471
-0.823718
-0.822876
-0.822695
-0.823157
-0.823869
-0.824503
-0.824519
-0.823437
-0.821528
-0.819373
-0.816829
-0.813239
-0.808493
-0.803162
-0.797724
-0.792209
-0.786426
-0.78015
-0.773239
-0.765958
-0.75894
-0.752462
-0.745849
-0.738109
-0.729157
-0.719994
-0.711605
-0.704112
-0.69723
-0.691154
-0.68646
-0.683263
-0.680923
-0.678727
-0.676566
-0.67474
-0.673346
-0.672099
-0.670865
-0.670075
-0.670431
-0.672505
-0.67642
-0.961468
-0.95358
-0.946045
-0.93833
-0.930976
-0.924314
-0.91829
-0.913041
-0.908794
-0.905666
-0.903532
-0.902039
-0.90059
-0.898661
-0.895848
-0.891925
-0.886894
-0.881113
-0.875214
-0.86979
-0.865147
-0.861238
-0.857791
-0.854526
-0.851237
-0.847732
-0.843785
-0.839309
-0.834596
-0.830141
-0.826387
-0.823597
-0.821566
-0.819814
-0.818212
-0.816831
-0.815616
-0.814658
-0.814062
-0.813797
-0.81392
-0.814376
-0.815138
-0.81624
-0.817248
-0.817788
-0.817995
-0.817961
-0.817878
-0.818149
-0.818935
-0.820361
-0.822416
-0.824456
-0.82584
-0.826478
-0.826292
-0.825329
-0.824324
-0.824018
-0.824363
-0.825015
-0.825702
-0.825908
-0.825171