/*--------------------------------*- C++ -*----------------------------------*\
  =========                 |
  \\      /  F ield         | OpenFOAM: The Open Source CFD Toolbox
   \\    /   O peration     | Website:  https://openfoam.org
    \\  /    A nd           | Version:  11
     \\/     M anipulation  |
\*---------------------------------------------------------------------------*/
FoamFile
{
    format      ascii;
    class       surfaceScalarField;
    location    "0.4";
    object      phi;
}
// * * * * * * * * * * * * * * * * * * * * * * * * * * * * * * * * * * * * * //

dimensions      [0 3 -1 0 0 0 0];

internalField   nonuniform List<scalar> 
19980
(
-8.0219e-06
8.02157e-06
6.63402e-05
-7.43617e-05
0.000260361
-0.000194021
0.000485818
-0.000225457
0.000687624
-0.000201807
0.000843267
-0.000155642
0.000949245
-0.000105979
0.0010091
-5.98521e-05
0.00103023
-2.11352e-05
0.00102107
9.16144e-06
0.000989622
3.14483e-05
0.000942319
4.73031e-05
0.000884091
5.8228e-05
0.000819129
6.49618e-05
0.000750457
6.86718e-05
0.000680419
7.00379e-05
0.000611
6.94185e-05
0.000543566
6.74348e-05
0.000479426
6.41397e-05
0.000419699
5.97268e-05
0.000364983
5.47164e-05
0.00031576
4.92227e-05
0.000272377
4.33826e-05
0.000234652
3.77259e-05
0.000202418
3.22335e-05
0.000175498
2.69194e-05
0.00015312
2.23783e-05
0.000134304
1.88161e-05
0.000118014
1.62894e-05
0.000103037
1.49776e-05
8.8268e-05
1.47691e-05
7.29221e-05
1.53459e-05
5.66534e-05
1.6269e-05
3.94885e-05
1.71648e-05
2.17028e-05
1.77857e-05
3.77333e-06
1.79293e-05
-1.37892e-05
1.75624e-05
-3.04908e-05
1.67013e-05
-4.58942e-05
1.54034e-05
-5.97801e-05
1.38861e-05
-7.21277e-05
1.23476e-05
-8.30006e-05
1.0873e-05
-9.24054e-05
9.40502e-06
-0.000100208
7.80262e-06
-0.000106223
6.0149e-06
-0.00011026
4.03652e-06
-0.000112235
1.97533e-06
-0.000112349
1.13904e-07
-0.000111066
-1.28258e-06
-0.000109086
-1.98034e-06
-0.00010712
-1.96596e-06
-0.000105448
-1.67154e-06
-0.00010401
-1.43874e-06
-0.000102756
-1.25296e-06
-0.000101525
-1.23174e-06
-0.000100074
-1.45085e-06
-9.84688e-05
-1.60526e-06
-9.68175e-05
-1.65161e-06
-9.48279e-05
-1.9897e-06
-9.21215e-05
-2.70635e-06
-8.84431e-05
-3.67844e-06
-8.33253e-05
-5.11731e-06
-7.64085e-05
-6.91665e-06
-6.82399e-05
-8.16865e-06
-5.99982e-05
-8.24147e-06
-5.25366e-05
-7.46172e-06
-4.63229e-05
-6.21366e-06
-4.18732e-05
-4.44948e-06
-3.94889e-05
-2.38435e-06
-3.89748e-05
-5.14098e-07
-4.02284e-05
1.25384e-06
-4.36385e-05
3.41001e-06
-4.93485e-05
5.71009e-06
-5.66108e-05
7.26238e-06
-6.43941e-05
7.78319e-06
-7.21634e-05
7.76931e-06
-7.95171e-05
7.3538e-06
-8.55074e-05
5.98986e-06
-8.90244e-05
3.51692e-06
-8.97041e-05
6.79929e-07
-8.79109e-05
-1.79315e-06
-8.39524e-05
-3.95867e-06
-7.79023e-05
-6.04991e-06
-7.02595e-05
-7.64273e-06
-6.22132e-05
-8.04644e-06
-5.49219e-05
-7.29136e-06
-4.88042e-05
-6.11769e-06
-4.37913e-05
-5.01316e-06
-3.9982e-05
-3.80957e-06
-3.76188e-05
-2.36292e-06
-3.64609e-05
-1.15776e-06
-3.55943e-05
-8.66712e-07
-3.40494e-05
-1.54493e-06
-3.13405e-05
-2.70863e-06
-2.73917e-05
-3.94877e-06
-2.23924e-05
-4.99947e-06
-1.65459e-05
-5.84651e-06
-1.01498e-05
-6.39596e-06
-3.99798e-06
-6.15205e-06
-3.99805e-06
-0.000103469
0.000111491
-0.000126759
-5.10727e-05
2.09332e-05
-0.000341713
0.000246463
-0.000450986
0.000472927
-0.000428271
0.000665941
-0.000348656
0.000810726
-0.000250763
0.000906376
-0.000155502
0.000956556
-7.13148e-05
0.000968352
-2.6354e-06
0.000949016
5.07844e-05
0.000905792
9.05273e-05
0.000845292
0.000118727
0.000772502
0.000137752
0.00069171
0.000149463
0.000606662
0.000155086
0.00052
0.000156081
0.000434223
0.000153212
0.000351381
0.000146983
0.000272611
0.000138498
0.0001991
0.000128227
0.00013179
0.000116533
7.08469e-05
0.000104326
1.64902e-05
9.20825e-05
-3.12826e-05
8.00061e-05
-7.31525e-05
6.87893e-05
-0.00010994
5.91655e-05
-0.000142493
5.13687e-05
-0.00017189
4.56868e-05
-0.000199366
4.24529e-05
-0.000225904
4.13066e-05
-0.00025217
4.16116e-05
-0.000278695
4.27944e-05
-0.000305672
4.41413e-05
-0.00033287
4.49846e-05
-0.000359848
4.4907e-05
-0.000386064
4.37786e-05
-0.000410985
4.16224e-05
-0.000434121
3.85396e-05
-0.000455073
3.48382e-05
-0.000473646
3.09205e-05
-0.000489761
2.69882e-05
-0.00050335
2.29941e-05
-0.00051437
1.8823e-05
-0.000522815
1.44596e-05
-0.000528701
9.92281e-06
-0.000532089
5.36323e-06
-0.000533229
1.25379e-06
-0.000532585
-1.92656e-06
-0.000530603
-3.96231e-06
-0.000527719
-4.85045e-06
-0.000524401
-4.98939e-06
-0.000520805
-5.03533e-06
-0.000516789
-5.26894e-06
-0.000512364
-5.65607e-06
-0.00050749
-6.32564e-06
-0.000501708
-7.38645e-06
-0.000494647
-8.71263e-06
-0.000486317
-1.032e-05
-0.000476503
-1.25201e-05
-0.000464668
-1.55137e-05
-0.000450723
-1.90625e-05
-0.000435136
-2.25027e-05
-0.00041832
-2.49855e-05
-0.000400671
-2.58895e-05
-0.000383029
-2.51036e-05
-0.000366324
-2.29188e-05
-0.000350992
-1.97819e-05
-0.000337246
-1.61302e-05
-0.000325549
-1.22112e-05
-0.000316257
-8.03808e-06
-0.000309126
-3.72028e-06
-0.00030363
2.14049e-07
-0.000299418
3.0497e-06
-0.000296012
4.37794e-06
-0.000292393
4.14982e-06
-0.000287386
2.34606e-06
-0.000280316
-1.0794e-06
-0.000270907
-5.89292e-06
-0.000258749
-1.14784e-05
-0.000243424
-1.71172e-05
-0.000225182
-2.22012e-05
-0.000205057
-2.61751e-05
-0.000184157
-2.85427e-05
-0.000163103
-2.9101e-05
-0.000142326
-2.80678e-05
-0.000122599
-2.58457e-05
-0.000104853
-2.27586e-05
-8.9475e-05
-1.9188e-05
-7.60287e-05
-1.58093e-05
-6.3829e-05
-1.33575e-05
-5.25857e-05
-1.21097e-05
-4.2286e-05
-1.18444e-05
-3.26958e-05
-1.22989e-05
-2.35516e-05
-1.30931e-05
-1.50449e-05
-1.35061e-05
-7.40912e-06
-1.34823e-05
-2.54708e-06
-1.12582e-05
-2.57955e-07
-8.4411e-06
-4.25619e-06
-0.00022054
0.000332032
-0.00041055
0.000138938
-0.000430875
-0.000321388
-0.000355594
-0.000526268
-0.000246656
-0.000537209
-0.00013681
-0.000458503
-4.24859e-05
-0.000345087
2.90146e-05
-0.000227003
7.66247e-05
-0.000118925
0.000101041
-2.70508e-05
0.000105279
4.65455e-05
9.24943e-05
0.000103312
6.59715e-05
0.000145249
2.90409e-05
0.000174683
-1.54399e-05
0.000193944
-6.53543e-05
0.000205001
-0.00011833
0.000209056
-0.000172794
0.000207675
-0.000227597
0.000201786
-0.000281312
0.000192212
-0.000333289
0.000180205
-0.000383072
0.000166315
-0.000430096
0.00015135
-0.000474139
0.000136126
-0.000515289
0.000121155
-0.000553657
0.000107157
-0.000589302
9.48112e-05
-0.000622605
8.46716e-05
-0.00065399
7.70722e-05
-0.000683644
7.21064e-05
-0.000711831
6.94939e-05
-0.000738837
6.86182e-05
-0.00076486
6.8817e-05
-0.000789974
6.92547e-05
-0.000814146
6.91569e-05
-0.000837401
6.81616e-05
-0.000859623
6.60002e-05
-0.000880546
6.25462e-05
-0.000900017
5.8011e-05
-0.000917861
5.26814e-05
-0.00093386
4.69202e-05
-0.000947871
4.09987e-05
-0.000959771
3.4894e-05
-0.00096955
2.86027e-05
-0.000977307
2.22164e-05
-0.00098316
1.5776e-05
-0.000987242
9.44483e-06
-0.000989617
3.62824e-06
-0.000990382
-1.16146e-06
-0.000989711
-4.63332e-06
-0.000987564
-6.99663e-06
-0.000983863
-8.69054e-06
-0.000978878
-1.00199e-05
-0.000972809
-1.13381e-05
-0.000965412
-1.30536e-05
-0.000956529
-1.52091e-05
-0.000946259
-1.76561e-05
-0.000934418
-2.05537e-05
-0.000920639
-2.40995e-05
-0.000904972
-2.81862e-05
-0.000887716
-3.27695e-05
-0.000868918
-3.7861e-05
-0.000848581
-4.28398e-05
-0.000826988
-4.65785e-05
-0.000804418
-4.84594e-05
-0.000780921
-4.86007e-05
-0.000756638
-4.72011e-05
-0.000732002
-4.44178e-05
-0.000707412
-4.07204e-05
-0.000682984
-3.66385e-05
-0.000658719
-3.23032e-05
-0.000634627
-2.78119e-05
-0.000610597
-2.38162e-05
-0.000586353
-2.11942e-05
-0.000561647
-2.03282e-05
-0.000536324
-2.11729e-05
-0.000510167
-2.38113e-05
-0.000482858
-2.83888e-05
-0.000454202
-3.45485e-05
-0.000424279
-4.1401e-05
-0.000393295
-4.81017e-05
-0.00036138
-5.41163e-05
-0.000328645
-5.89103e-05
-0.000295387
-6.18006e-05
-0.000262126
-6.23627e-05
-0.000229385
-6.08087e-05
-0.000197497
-5.77336e-05
-0.00016664
-5.36166e-05
-0.000137015
-4.88125e-05
-0.000108976
-4.38481e-05
-8.29831e-05
-3.93504e-05
-5.93964e-05
-3.56967e-05
-3.83078e-05
-3.29329e-05
-1.98965e-05
-3.07097e-05
-4.95362e-06
-2.80358e-05
5.87445e-06
-2.43343e-05
1.13281e-05
-1.89359e-05
1.15319e-05
-1.14618e-05
6.10811e-06
-3.01748e-06
1.85207e-06
-0.00025088
0.000582912
-0.000515157
0.000403215
-0.000629352
-0.000207195
-0.000649664
-0.000505953
-0.00062573
-0.000561144
-0.000585546
-0.000498686
-0.000543056
-0.000387578
-0.000505929
-0.000264129
-0.000478167
-0.000146687
-0.000460895
-4.43232e-05
-0.000454477
4.01277e-05
-0.000458095
0.00010693
-0.000470218
0.000157372
-0.00048953
0.000193995
-0.000514801
0.000219216
-0.000544409
0.000234609
-0.000577475
0.000242121
-0.000613022
0.000243223
-0.000650128
0.000238892
-0.000688345
0.000230429
-0.000726962
0.000218822
-0.000765508
0.000204861
-0.000803806
0.000189647
-0.000841536
0.000173856
-0.000878528
0.000158147
-0.000914787
0.000143416
-0.000950166
0.000130191
-0.000984402
0.000118907
-0.00101732
0.000109992
-0.00104874
0.000103527
-0.00107852
9.92718e-05
-0.00110659
9.66877e-05
-0.00113289
9.51198e-05
-0.00115752
9.38817e-05
-0.00118059
9.22307e-05
-0.00120215
8.97231e-05
-0.00122232
8.61625e-05
-0.00124115
8.13805e-05
-0.00125864
7.54983e-05
-0.00127479
6.88358e-05
-0.00128947
6.16025e-05
-0.00130246
5.39807e-05
-0.00131372
4.61617e-05
-0.00132335
3.82247e-05
-0.0013313
3.01728e-05
-0.00133762
2.20943e-05
-0.00134244
1.4262e-05
-0.00134584
7.02885e-06
-0.00134767
6.72897e-07
-0.00134769
-4.61754e-06
-0.00134582
-8.86044e-06
-0.00134209
-1.24264e-05
-0.00133634
-1.57719e-05
-0.00132855
-1.9124e-05
-0.00131896
-2.26437e-05
-0.00130758
-2.65862e-05
-0.00129416
-3.10829e-05
-0.00127866
-3.60474e-05
-0.00126135
-4.14125e-05
-0.00124227
-4.72681e-05
-0.00122136
-5.36777e-05
-0.00119886
-6.03594e-05
-0.0011751
-6.66022e-05
-0.00115004
-7.1636e-05
-0.00112344
-7.50608e-05
-0.00109523
-7.68146e-05
-0.00106549
-7.69349e-05
-0.00103429
-7.5618e-05
-0.00100169
-7.33254e-05
-0.000967811
-7.05147e-05
-0.000932721
-6.73928e-05
-0.000896352
-6.41816e-05
-0.000858705
-6.14628e-05
-0.000819925
-5.9974e-05
-0.000780112
-6.01419e-05
-0.000739266
-6.20191e-05
-0.000697515
-6.55611e-05
-0.000655205
-7.06991e-05
-0.000612619
-7.71353e-05
-0.00056976
-8.42603e-05
-0.000526556
-9.13052e-05
-0.00048318
-9.74927e-05
-0.000439963
-0.000102128
-0.000397017
-0.000104746
-0.000354151
-0.00010523
-0.000311263
-0.000103697
-0.000268702
-0.000100294
-0.000227082
-9.52363e-05
-0.000186833
-8.90622e-05
-0.000148155
-8.25262e-05
-0.000111445
-7.606e-05
-7.74833e-05
-6.9658e-05
-4.71896e-05
-6.32264e-05
-2.16239e-05
-5.62754e-05
-1.72946e-06
-4.79302e-05
1.23766e-05
-3.84402e-05
1.94119e-05
-2.59712e-05
1.88381e-05
-1.08879e-05
9.22522e-06
6.59551e-06
1.10773e-05
-0.000225698
0.000808609
-0.00049034
0.000667858
-0.000639819
-5.77159e-05
-0.000709088
-0.000436685
-0.000734942
-0.00053529
-0.000739712
-0.000493916
-0.000735719
-0.00039157
-0.000729587
-0.000270261
-0.000725115
-0.000151159
-0.000724155
-4.52832e-05
-0.000728062
4.40348e-05
-0.000736733
0.000115601
-0.000750318
0.000170957
-0.000768409
0.000212086
-0.000790106
0.000240912
-0.000815111
0.000259613
-0.000842913
0.000269924
-0.000872846
0.000273156
-0.000904706
0.000270751
-0.000938165
0.000263889
-0.000972894
0.00025355
-0.00100871
0.000240672
-0.0010452
0.000226143
-0.00108213
0.000210783
-0.00111937
0.000195385
-0.00115661
0.000180658
-0.00119354
0.000167125
-0.0012299
0.00015527
-0.00126537
0.000145456
-0.00129947
0.000137627
-0.00133179
0.000131595
-0.00136218
0.000127071
-0.00139051
0.00012345
-0.00141673
0.000120106
-0.00144101
0.000116506
-0.00146347
0.000112183
-0.00148423
0.000106929
-0.00150352
0.000100673
-0.0015214
9.33752e-05
-0.00153782
8.52521e-05
-0.00155281
7.65945e-05
-0.00156634
6.75077e-05
-0.00157827
5.80946e-05
-0.00158857
4.85221e-05
-0.00159731
3.89154e-05
-0.00160458
2.93638e-05
-0.0016103
1.99823e-05
-0.00161435
1.10782e-05
-0.00161672
3.04738e-06
-0.00161726
-4.07939e-06
-0.00161554
-1.05801e-05
-0.00161139
-1.65721e-05
-0.00160502
-2.21426e-05
-0.00159644
-2.77047e-05
-0.00158544
-3.36516e-05
-0.00157207
-3.99541e-05
-0.00155663
-4.65211e-05
-0.00153914
-5.35367e-05
-0.00151946
-6.10969e-05
-0.00149773
-6.89959e-05
-0.00147431
-7.70953e-05
-0.00144934
-8.53316e-05
-0.00142273
-9.32097e-05
-0.00139446
-9.99067e-05
-0.00136451
-0.000105007
-0.0013327
-0.000108632
-0.00129873
-0.000110901
-0.00126253
-0.000111816
-0.00122422
-0.000111635
-0.0011839
-0.000110839
-0.00114153
-0.000109765
-0.00109708
-0.000108632
-0.00105066
-0.000107882
-0.00100251
-0.000108124
-0.000952912
-0.000109738
-0.000902158
-0.000112774
-0.000850547
-0.000117172
-0.000798403
-0.000122843
-0.000746048
-0.000129491
-0.000693764
-0.000136544
-0.000641735
-0.000143335
-0.000589987
-0.00014924
-0.00053844
-0.000153675
-0.000487023
-0.000156164
-0.000435783
-0.000156469
-0.000384891
-0.000154589
-0.00033452
-0.000150664
-0.000284794
-0.000144963
-0.000235964
-0.000137892
-0.000188705
-0.000129785
-0.000144054
-0.000120711
-0.000102931
-0.000110781
-6.60666e-05
-0.000100091
-3.44463e-05
-8.78955e-05
-8.71585e-06
-7.36606e-05
9.55106e-06
-5.67073e-05
1.95353e-05
-3.59552e-05
1.98968e-05
-1.12496e-05
1.04103e-05
1.60823e-05
2.14874e-05
-0.000176256
0.000984865
-0.000407558
0.00089916
-0.000561654
9.63803e-05
-0.000653442
-0.000344897
-0.000708071
-0.00048066
-0.000741918
-0.00046007
-0.000764984
-0.000368503
-0.000783467
-0.000251778
-0.000799841
-0.000134785
-0.000816721
-2.84033e-05
-0.000834567
6.18802e-05
-0.00085452
0.000135553
-0.000876723
0.00019316
-0.000901077
0.00023644
-0.00092771
0.000267545
-0.000956374
0.000288278
-0.000986822
0.000300371
-0.00101896
0.000305296
-0.00105268
0.000304465
-0.00108777
0.000298982
-0.00112411
0.000289893
-0.00116169
0.000278248
-0.00120027
0.000264727
-0.00123966
0.00025017
-0.00127959
0.000235317
-0.00131969
0.000220756
-0.00135968
0.000207111
-0.00139919
0.000194785
-0.00143774
0.000184007
-0.00147494
0.000174821
-0.00151041
0.000167066
-0.00154384
0.000160509
-0.00157507
0.000154674
-0.00160397
0.000149007
-0.00163066
0.000143202
-0.0016554
0.000136914
-0.00167822
0.000129753
-0.00169923
0.000121679
-0.00171865
0.000112803
-0.00173659
0.000103192
-0.00175294
9.29418e-05
-0.00176763
8.22004e-05
-0.00178075
7.12122e-05
-0.00179233
6.01044e-05
-0.00180222
4.87992e-05
-0.00181032
3.74635e-05
-0.0018168
2.64665e-05
-0.00182164
1.59181e-05
-0.00182444
5.85114e-06
-0.00182497
-3.55287e-06
-0.00182323
-1.23186e-05
-0.00181907
-2.07366e-05
-0.00181223
-2.8984e-05
-0.00180276
-3.71718e-05
-0.00179085
-4.55614e-05
-0.00177649
-5.43137e-05
-0.00175966
-6.33476e-05
-0.00174055
-7.26556e-05
-0.0017193
-8.23412e-05
-0.00169596
-9.2334e-05
-0.00167061
-0.000102445
-0.00164345
-0.000112495
-0.00161457
-0.000122086
-0.00158388
-0.000130603
-0.00155116
-0.000137728
-0.00151621
-0.000143579
-0.00147886
-0.000148247
-0.00143901
-0.000151671
-0.00139662
-0.000154023
-0.0013517
-0.000155759
-0.00130426
-0.000157205
-0.00125438
-0.000158508
-0.00120225
-0.000160012
-0.0011481
-0.00016228
-0.00109217
-0.000165662
-0.00103485
-0.000170095
-0.000976613
-0.000175411
-0.000917886
-0.000181571
-0.00085893
-0.000188448
-0.0007999
-0.000195573
-0.000740996
-0.000202239
-0.000682433
-0.000207804
-0.000624265
-0.000211843
-0.000566339
-0.000214089
-0.0005085
-0.000214308
-0.00045083
-0.000212259
-0.000393636
-0.000207858
-0.000337264
-0.000201335
-0.00028209
-0.000193066
-0.000228725
-0.00018315
-0.00017799
-0.000171446
-0.000130704
-0.000158067
-8.79332e-05
-0.000142862
-5.09483e-05
-0.00012488
-2.06346e-05
-0.000103974
1.70114e-06
-7.90429e-05
1.56485e-05
-4.99024e-05
1.85518e-05
-1.41527e-05
1.03752e-05
2.42589e-05
3.18626e-05
-0.000123751
0.00110862
-0.000306623
0.00108203
-0.000449114
0.000238871
-0.000549228
-0.000244783
-0.000620324
-0.000409565
-0.000673284
-0.00040711
-0.00071558
-0.000326207
-0.000751971
-0.000215387
-0.000785763
-0.000100993
-0.000818009
3.84241e-06
-0.000850127
9.39977e-05
-0.00088246
0.000167887
-0.000915486
0.000226186
-0.00094945
0.000270405
-0.000984322
0.000302417
-0.00102025
0.000324205
-0.00105721
0.000337335
-0.00109527
0.000343356
-0.00113434
0.000343535
-0.00117443
0.00033907
-0.00121552
0.000330982
-0.00125748
0.000320203
-0.00130021
0.00030746
-0.00134361
0.000293575
-0.00138747
0.000279176
-0.00143145
0.000264733
-0.0014752
0.00025086
-0.00151834
0.000237924
-0.0015604
0.000226071
-0.00160103
0.000215456
-0.00163991
0.000205941
-0.00167662
0.000197217
-0.00171101
0.000189072
-0.00174314
0.000181128
-0.0017729
0.000172968
-0.00180035
0.000164361
-0.00182573
0.000155135
-0.00184924
0.000145189
-0.00187089
0.000134449
-0.00189067
0.000122973
-0.00190873
0.000111007
-0.00192517
9.86373e-05
-0.0019398
8.58477e-05
-0.00195254
7.28369e-05
-0.00196352
5.97806e-05
-0.00197275
4.66951e-05
-0.00198
3.37163e-05
-0.00198518
2.10993e-05
-0.00198829
8.96043e-06
-0.00198909
-2.7518e-06
-0.00198728
-1.41293e-05
-0.00198278
-2.52336e-05
-0.00197564
-3.61248e-05
-0.00196582
-4.69998e-05
-0.00195324
-5.81371e-05
-0.001938
-6.95551e-05
-0.00192029
-8.10595e-05
-0.00190023
-9.27136e-05
-0.00187782
-0.000104753
-0.00185309
-0.000117062
-0.00182625
-0.000129286
-0.00179748
-0.000141259
-0.00176677
-0.000152802
-0.00173393
-0.000163438
-0.00169885
-0.000172806
-0.00166142
-0.000181016
-0.00162142
-0.000188245
-0.00157867
-0.000194422
-0.00153313
-0.000199558
-0.0014849
-0.000203994
-0.001434
-0.000208106
-0.00138044
-0.000212065
-0.00132437
-0.000216078
-0.00126611
-0.000220538
-0.00120604
-0.000225739
-0.00114448
-0.000231654
-0.00108177
-0.000238117
-0.00101829
-0.000245051
-0.000954402
-0.000252337
-0.000890397
-0.000259579
-0.000826465
-0.000266171
-0.000762682
-0.000271586
-0.000699018
-0.000275507
-0.000635436
-0.000277672
-0.00057202
-0.000277723
-0.000508989
-0.00027529
-0.000446549
-0.000270299
-0.000384851
-0.000263034
-0.000324269
-0.000253648
-0.000265605
-0.000241814
-0.000209777
-0.000227273
-0.000157641
-0.000210203
-0.00011032
-0.000190183
-6.87252e-05
-0.000166475
-3.39783e-05
-0.000138721
-7.26785e-06
-0.000105753
9.88266e-06
-6.70528e-05
1.5592e-05
-1.98615e-05
9.3409e-06
3.05098e-05
4.12037e-05
-7.63057e-05
0.00118492
-0.000209866
0.00121559
-0.000332751
0.000361757
-0.000432573
-0.000144961
-0.000512415
-0.000329722
-0.000577556
-0.000341968
-0.000633697
-0.000270066
-0.000683983
-0.000165101
-0.000730939
-5.40375e-05
-0.000776217
4.91206e-05
-0.000820512
0.000138293
-0.000864382
0.000211756
-0.00090816
0.000269963
-0.000952038
0.000314283
-0.000996196
0.000346575
-0.00104062
0.000368629
-0.00108543
0.000382142
-0.00113071
0.000388643
-0.00117655
0.000389372
-0.00122298
0.000385498
-0.00126998
0.000377981
-0.00131745
0.000367672
-0.00136539
0.000355401
-0.00141363
0.000341812
-0.00146194
0.000327489
-0.00151012
0.000312914
-0.00155785
0.000298587
-0.0016048
0.000284874
-0.00165055
0.000271824
-0.00169465
0.00025955
-0.00173685
0.000248143
-0.00177697
0.000237334
-0.00181469
0.000226797
-0.0018499
0.00021634
-0.00188272
0.000205784
-0.00191323
0.000194876
-0.00194143
0.000183335
-0.00196738
0.000171134
-0.00199131
0.000158382
-0.00201336
0.000145019
-0.00203338
0.000131029
-0.00205136
0.000116618
-0.00206748
0.000101963
-0.00208168
8.70438e-05
-0.00209377
7.18655e-05
-0.00210373
5.66618e-05
-0.00211169
4.16681e-05
-0.00211748
2.68886e-05
-0.00212081
1.22977e-05
-0.00212158
-1.98874e-06
-0.00211976
-1.59482e-05
-0.00211523
-2.97584e-05
-0.00210783
-4.35249e-05
-0.00209756
-5.72688e-05
-0.00208455
-7.11494e-05
-0.00206886
-8.52496e-05
-0.00205052
-9.93997e-05
-0.00202964
-0.000113593
-0.00200631
-0.000128076
-0.00198059
-0.000142784
-0.00195257
-0.000157305
-0.00192241
-0.000171425
-0.00189011
-0.000185098
-0.00185554
-0.000198011
-0.00181852
-0.000209821
-0.00177896
-0.000220576
-0.00173674
-0.00023047
-0.00169171
-0.000239452
-0.00164381
-0.00024746
-0.00159307
-0.000254734
-0.00153956
-0.000261611
-0.00148337
-0.000268251
-0.00142465
-0.000274807
-0.00136361
-0.000281574
-0.00130059
-0.00028876
-0.00123595
-0.000296293
-0.00117006
-0.000304009
-0.00110324
-0.000311874
-0.00103575
-0.000319823
-0.000967847
-0.000327482
-0.000899766
-0.000334252
-0.000831672
-0.000339681
-0.000763599
-0.000343579
-0.00069554
-0.000345732
-0.000627585
-0.000345678
-0.000559943
-0.000342932
-0.000492846
-0.000337396
-0.000426574
-0.000329306
-0.000361656
-0.000318566
-0.000298855
-0.000304615
-0.000238889
-0.000287239
-0.000182627
-0.000266464
-0.000131203
-0.000241607
-8.5609e-05
-0.000212069
-4.71981e-05
-0.000177132
-1.6906e-05
-0.000136045
3.28219e-06
-8.72407e-05
1.19972e-05
-2.85763e-05
7.76897e-06
3.4738e-05
4.89725e-05
-3.71631e-05
0.00122208
-0.000125585
0.00130401
-0.000227133
0.000463304
-0.000321957
-5.01367e-05
-0.000405508
-0.000246171
-0.000479064
-0.000268412
-0.000544662
-0.000204468
-0.000605383
-0.000104381
-0.000662836
3.41595e-06
-0.000718363
0.000104648
-0.000772769
0.000192699
-0.000826475
0.000265462
-0.000879757
0.000323246
-0.000932785
0.000367311
-0.000985667
0.000399458
-0.0010384
0.000421362
-0.00109112
0.000434863
-0.00114386
0.000441384
-0.00119668
0.000442196
-0.00124963
0.000438444
-0.00130273
0.00043108
-0.00135597
0.000420918
-0.0014093
0.000408727
-0.00146247
0.000394983
-0.00151533
0.000380347
-0.00156782
0.000365407
-0.00161957
0.000350337
-0.00167012
0.000335423
-0.00171931
0.000321017
-0.00176691
0.000307148
-0.00181244
0.000293668
-0.00185559
0.000280492
-0.00189638
0.000267587
-0.00193478
0.000254738
-0.0019706
0.000241607
-0.00200381
0.000228079
-0.00203465
0.000214175
-0.00206327
0.000199753
-0.00208953
0.000184649
-0.00211349
0.000168973
-0.00213537
0.000152917
-0.0021552
0.000136444
-0.00217277
0.000119529
-0.00218806
0.000102333
-0.00220118
8.4995e-05
-0.00221212
6.75934e-05
-0.00222069
5.02406e-05
-0.0022268
3.29961e-05
-0.00223037
1.58683e-05
-0.0022313
-1.05672e-06
-0.00222949
-1.776e-05
-0.00222482
-3.44224e-05
-0.00221722
-5.11242e-05
-0.00220672
-6.77747e-05
-0.0021934
-8.4466e-05
-0.00217731
-0.000101338
-0.00215848
-0.000118237
-0.00213698
-0.000135086
-0.00211293
-0.000152129
-0.00208635
-0.00016936
-0.00205733
-0.000186328
-0.00202599
-0.000202765
-0.00199236
-0.000218734
-0.00195628
-0.000234091
-0.0019176
-0.000248501
-0.00187625
-0.000261922
-0.00183218
-0.00027454
-0.00178528
-0.000286352
-0.00173548
-0.000297262
-0.0016828
-0.000307412
-0.00162733
-0.000317083
-0.00156915
-0.000326427
-0.00150841
-0.000335547
-0.00144533
-0.000344658
-0.00138018
-0.000353905
-0.00131329
-0.000363188
-0.00124495
-0.000372348
-0.00117546
-0.000381362
-0.0011051
-0.00039018
-0.00103414
-0.000398447
-0.000962782
-0.000405608
-0.000891166
-0.000411296
-0.000819355
-0.000415391
-0.000747439
-0.000417648
-0.000675623
-0.000417494
-0.000604163
-0.000414392
-0.000533266
-0.000408294
-0.00046323
-0.000399341
-0.000394647
-0.00038715
-0.000328249
-0.000371013
-0.000264723
-0.000350765
-0.000205014
-0.000326173
-0.000150214
-0.000296407
-0.000101332
-0.000260951
-5.95914e-05
-0.000218872
-2.61647e-05
-0.000169472
-3.15636e-06
-0.000110249
8.22217e-06
-3.99553e-05
6.18582e-06
3.67744e-05
5.51579e-05
-6.77448e-06
0.00122886
-5.74213e-05
0.00135466
-0.000137973
0.000543857
-0.000226029
3.79194e-05
-0.00031055
-0.000161651
-0.000388694
-0.000190267
-0.000461497
-0.000131666
-0.000529894
-3.59837e-05
-0.000595453
6.89748e-05
-0.000659163
0.000168358
-0.000721757
0.000255293
-0.000783603
0.000327308
-0.000844898
0.000384541
-0.000905799
0.000428212
-0.000966295
0.000459953
-0.00102655
0.000481617
-0.00108649
0.000494801
-0.00114613
0.000501027
-0.00120553
0.000501596
-0.00126472
0.000497636
-0.00132371
0.000490062
-0.00138239
0.000479597
-0.00144069
0.000467027
-0.00149863
0.000452929
-0.00155598
0.000437693
-0.00161239
0.000421818
-0.00166777
0.000405716
-0.00172194
0.000389591
-0.00177448
0.000373559
-0.00182504
0.000357715
-0.00187352
0.000342144
-0.00191978
0.000326753
-0.00196351
0.000311319
-0.00200454
0.000295766
-0.00204303
0.000280096
-0.00207905
0.000264098
-0.00211243
0.000247556
-0.0021432
0.000230521
-0.0021716
0.000213048
-0.00219769
0.000195067
-0.00222137
0.000176596
-0.00224262
0.000157695
-0.00226151
0.000138422
-0.00227805
0.000118872
-0.00229217
9.91167e-05
-0.00230381
7.9228e-05
-0.00231291
5.93406e-05
-0.00231942
3.9514e-05
-0.00232326
1.97007e-05
-0.00232429
-2.65768e-08
-0.00232246
-1.95859e-05
-0.00231772
-3.91593e-05
-0.00230999
-5.88585e-05
-0.00229927
-7.84896e-05
-0.0022857
-9.80401e-05
-0.00226931
-0.000117727
-0.00225007
-0.00013748
-0.00222802
-0.000157132
-0.00220331
-0.000176843
-0.002176
-0.000196662
-0.00214615
-0.000216186
-0.00211378
-0.000235129
-0.00207893
-0.000253586
-0.00204151
-0.000271513
-0.0020014
-0.000288604
-0.00195856
-0.000304766
-0.00191293
-0.000320169
-0.00186444
-0.000334841
-0.00181305
-0.000348657
-0.00175879
-0.000361674
-0.00170174
-0.000374126
-0.001642
-0.000386173
-0.00157966
-0.000397889
-0.00151492
-0.000409396
-0.00144806
-0.000420765
-0.00137936
-0.000431888
-0.00130908
-0.000442631
-0.00123746
-0.00045298
-0.00116477
-0.000462871
-0.00109127
-0.000471948
-0.00101716
-0.000479711
-0.000942596
-0.000485864
-0.000867683
-0.000490305
-0.00079261
-0.000492721
-0.000717625
-0.000492479
-0.000642926
-0.000489091
-0.000568713
-0.000482507
-0.000495402
-0.000472653
-0.000423676
-0.000458876
-0.000354153
-0.000440536
-0.000287515
-0.000417402
-0.000224753
-0.000388935
-0.000166926
-0.000354234
-0.000115145
-0.000312731
-7.05861e-05
-0.000263431
-3.47526e-05
-0.000205305
-9.20859e-06
-0.000135793
4.39926e-06
-5.35633e-05
4.95283e-06
3.62206e-05
6.01108e-05
1.56573e-05
0.0012132
-4.67227e-06
0.00137499
-6.7007e-05
0.000606192
-0.000147222
0.000118135
-0.000230579
-7.82952e-05
-0.000311852
-0.000108994
-0.000389334
-5.41837e-05
-0.000463675
3.83576e-05
-0.000535583
0.000140884
-0.000605828
0.000238603
-0.000675014
0.000324479
-0.000743511
0.000395805
-0.000811457
0.000452487
-0.000878982
0.000495736
-0.000946045
0.000527016
-0.00101268
0.000548255
-0.00107885
0.000560968
-0.00114461
0.000566786
-0.00120993
0.000566916
-0.00127465
0.000562358
-0.00133882
0.000554234
-0.00140254
0.00054331
-0.00146551
0.000530005
-0.00152759
0.000515007
-0.00158883
0.000498928
-0.00164906
0.000482048
-0.0017079
0.000464555
-0.00176508
0.000446776
-0.00182055
0.000429027
-0.00187413
0.000411297
-0.00192541
0.000393423
-0.00197415
0.000375491
-0.00202043
0.000357601
-0.0020642
0.000339535
-0.00210521
0.000321101
-0.00214342
0.000302318
-0.00217904
0.000283167
-0.00221208
0.000263567
-0.00224249
0.000243461
-0.00227029
0.000222863
-0.00229554
0.000201851
-0.00231827
0.000180425
-0.00233843
0.00015858
-0.00235599
0.000136425
-0.00237094
0.000114072
-0.00238327
9.1556e-05
-0.00239289
6.89648e-05
-0.00239976
4.6379e-05
-0.0024038
2.37447e-05
-0.00240494
1.10993e-06
-0.00240312
-2.14026e-05
-0.00239832
-4.3962e-05
-0.00239047
-6.67091e-05
-0.00237959
-8.93721e-05
-0.00236579
-0.00011184
-0.0023491
-0.000134408
-0.00232948
-0.000157103
-0.00230695
-0.000179667
-0.00228165
-0.000202139
-0.00225369
-0.000224622
-0.00222306
-0.000246818
-0.00218976
-0.000268428
-0.00215383
-0.000289517
-0.00211524
-0.000310103
-0.00207391
-0.00032994
-0.00202975
-0.000348918
-0.00198275
-0.000367171
-0.00193288
-0.00038471
-0.00188014
-0.000401397
-0.00182455
-0.00041726
-0.00176617
-0.000432515
-0.00170505
-0.000447292
-0.00164133
-0.000461608
-0.00157521
-0.000475512
-0.00150694
-0.00048904
-0.00143673
-0.000502101
-0.00136479
-0.000514568
-0.00129136
-0.000526402
-0.00121673
-0.000537504
-0.00114113
-0.000547545
-0.00106475
-0.0005561
-0.000987701
-0.000562908
-0.000910178
-0.000567828
-0.00083242
-0.000570479
-0.00075467
-0.000570228
-0.000677107
-0.000566653
-0.000599963
-0.000559651
-0.000523746
-0.00054887
-0.00044913
-0.000533492
-0.000376734
-0.000512931
-0.000307296
-0.000486841
-0.000241863
-0.000454367
-0.000181486
-0.000414612
-0.000127358
-0.000366858
-8.05414e-05
-0.000310248
-4.27441e-05
-0.000243102
-1.49439e-05
-0.000163594
6.59878e-07
-6.91669e-05
3.88525e-06
3.29949e-05
6.39963e-05
3.13151e-05
0.00118189
3.42117e-05
0.00137209
-1.25296e-05
0.000652933
-8.48834e-05
0.000190489
-0.000166412
3.23321e-06
-0.000249005
-2.64006e-05
-0.000329993
2.68047e-05
-0.000408812
0.000117176
-0.000485778
0.00021785
-0.000561332
0.000314156
-0.000635902
0.000399049
-0.000709864
0.000469767
-0.00078335
0.000525972
-0.000856324
0.00056871
-0.000928875
0.000599567
-0.00100094
0.000620317
-0.00107252
0.000632548
-0.00114338
0.000637648
-0.0012136
0.000637138
-0.00128328
0.000632041
-0.00135214
0.000623092
-0.00141998
0.000611148
-0.00148694
0.000596962
-0.00155299
0.000581062
-0.00161779
0.000563728
-0.00168107
0.000545328
-0.00174289
0.000526369
-0.00180314
0.000507033
-0.00186138
0.000487264
-0.00191731
0.000467227
-0.001971
0.00044711
-0.00202234
0.00042683
-0.00207101
0.000406274
-0.00211689
0.00038542
-0.00216007
0.000364274
-0.00220053
0.000342783
-0.00223821
0.000320844
-0.00227308
0.000298439
-0.00230522
0.000275597
-0.00233467
0.00025231
-0.00236139
0.000228578
-0.00238536
0.000204395
-0.00240658
0.000179797
-0.00242507
0.000154916
-0.00244082
0.000129825
-0.00245376
0.00010449
-0.00246381
7.90131e-05
-0.00247098
5.35566e-05
-0.00247527
2.80282e-05
-0.00247653
2.37421e-06
-0.00247471
-2.32272e-05
-0.00246982
-4.88434e-05
-0.00246189
-7.46426e-05
-0.00245089
-0.000100369
-0.00243689
-0.000125847
-0.0024199
-0.000151391
-0.00239991
-0.000177096
-0.00237694
-0.00020264
-0.00235112
-0.000227956
-0.00232254
-0.000253196
-0.00229119
-0.00027817
-0.00225705
-0.000302573
-0.00222015
-0.000326413
-0.00218051
-0.000349741
-0.00213807
-0.000372383
-0.00209276
-0.000394232
-0.00204455
-0.000415372
-0.00199347
-0.000435791
-0.00193953
-0.000455343
-0.00188275
-0.000474042
-0.00182316
-0.000492098
-0.00176083
-0.000509622
-0.00169588
-0.000526555
-0.00162853
-0.000542861
-0.001559
-0.00055857
-0.00148747
-0.000573636
-0.0014141
-0.000587941
-0.00133911
-0.000601389
-0.00126278
-0.000613834
-0.00118534
-0.000624983
-0.00110695
-0.000634496
-0.00102771
-0.000642141
-0.000947859
-0.000647681
-0.000867687
-0.000650652
-0.000787425
-0.00065049
-0.000707234
-0.000646844
-0.000627406
-0.000639479
-0.000548588
-0.000627689
-0.000471449