/*--------------------------------*- C++ -*----------------------------------*\
  =========                 |
  \\      /  F ield         | OpenFOAM: The Open Source CFD Toolbox
   \\    /   O peration     | Website:  https://openfoam.org
    \\  /    A nd           | Version:  11
     \\/     M anipulation  |
\*---------------------------------------------------------------------------*/
FoamFile
{
    format      ascii;
    class       volScalarField;
    location    "9.4";
    object      p;
}
// * * * * * * * * * * * * * * * * * * * * * * * * * * * * * * * * * * * * * //

dimensions      [0 2 -2 0 0 0 0];

internalField   nonuniform List<scalar> 
10100
(
-5.87534e-08
0.000103317
-0.000103568
-0.00067591
-0.00156619
-0.00271632
-0.00406829
-0.00556641
-0.00716103
-0.00880812
-0.0104693
-0.012111
-0.0137041
-0.0152238
-0.0166483
-0.017959
-0.0191397
-0.020177
-0.0210597
-0.0217786
-0.022326
-0.022696
-0.022884
-0.0228866
-0.022702
-0.0223293
-0.0217687
-0.0210214
-0.0200892
-0.0189748
-0.0176819
-0.0162148
-0.0145782
-0.0127776
-0.0108189
-0.00870863
-0.00645409
-0.00406277
-0.00154249
0.00109865
0.00385191
0.00670806
0.00965766
0.012691
0.0157985
0.01897
0.0221952
0.0254631
0.0287629
0.0320834
0.0354139
0.0387434
0.0420607
0.0453544
0.0486128
0.0518245
0.0549783
0.0580632
0.0610684
0.0639833
0.0667972
0.0694996
0.0720802
0.0745294
0.0768382
0.0789979
0.0810005
0.0828386
0.0845049
0.085993
0.0872972
0.0884127
0.0893357
0.0900637
0.0905949
0.0909287
0.0910654
0.0910066
0.0907551
0.0903152
0.0896929
0.0888956
0.087933
0.0868162
0.0855587
0.0841762
0.0826863
0.0811095
0.0794687
0.0777904
0.0761044
0.0744447
0.0728496
0.0713624
0.0700311
0.0689081
0.0680467
0.0674979
0.0673039
0.0674112
-8.21734e-05
1.43219e-05
-0.000194315
-0.000709926
-0.00148323
-0.00247383
-0.00363975
-0.00493752
-0.00632573
-0.00776688
-0.00922716
-0.0106762
-0.012087
-0.0134362
-0.0147033
-0.0158704
-0.016922
-0.0178448
-0.0186275
-0.0192607
-0.0197369
-0.02005
-0.0201949
-0.0201681
-0.0199674
-0.0195915
-0.0190405
-0.0183148
-0.0174159
-0.016346
-0.0151086
-0.0137073
-0.0121464
-0.0104309
-0.00856627
-0.00655869
-0.00441488
-0.00214176
0.000253382
0.00276288
0.00537844
0.00809125
0.0108924
0.013773
0.0167237
0.0197351
0.0227972
0.0258996
0.0290319
0.0321837
0.0353448
0.0385049
0.0416533
0.044779
0.047871
0.0509184
0.0539108
0.0568379
0.0596895
0.0624554
0.0651256
0.0676902
0.0701396
0.0724649
0.0746575
0.0767095
0.0786137
0.0803629
0.0819505
0.0833707
0.0846181
0.0856886
0.086579
0.0872871
0.0878117
0.0881525
0.0883102
0.0882865
0.0880846
0.0877089
0.0871655
0.0864619
0.0856075
0.0846136
0.0834932
0.0822615
0.0809354
0.0795343
0.07808
0.0765968
0.0751124
0.0736572
0.0722651
0.0709732
0.0698212
0.0688503
0.0680994
0.0676042
0.0674109
0.0675186
0.000151895
0.000235326
2.01412e-05
-0.000468409
-0.00117622
-0.00207043
-0.0031175
-0.00428167
-0.00552778
-0.0068234
-0.00813858
-0.00944616
-0.0107213
-0.0119421
-0.0130893
-0.014146
-0.0150976
-0.0159311
-0.0166353
-0.0172012
-0.0176212
-0.017889
-0.0179997
-0.0179494
-0.0177358
-0.0173576
-0.0168143
-0.016106
-0.015234
-0.0142003
-0.013008
-0.0116603
-0.010161
-0.0085148
-0.0067269
-0.00480317
-0.00274985
-0.000573341
0.00171953
0.00412137
0.00662423
0.00921971
0.0118994
0.0146549
0.0174774
0.0203578
0.0232864
0.0262532
0.0292484
0.0322623
0.035285
0.0383067
0.0413171
0.0443057
0.0472618
0.0501752
0.0530361
0.0558346
0.0585612
0.061206
0.0637595
0.0662122
0.0685551
0.0707797
0.0728783
0.0748433
0.0766678
0.0783453
0.0798694
0.0812347
0.0824364
0.0834707
0.0843348
0.0850269
0.0855461
0.0858924
0.0860664
0.0860704
0.0859074
0.085582
0.0851001
0.0844695
0.0836991
0.0828001
0.0817849
0.0806682
0.0794662
0.078197
0.0768809
0.0755406
0.0742013
0.0728906
0.0716384
0.0704771
0.0694405
0.0685629
0.067876
0.0674099
0.0672173
0.0673262
0.000738254
0.000756839
0.000505314
1.29681e-05
-0.000670282
-0.00151496
-0.00249229
-0.00357165
-0.00472286
-0.00591735
-0.0071286
-0.00833226
-0.00950589
-0.0106293
-0.0116843
-0.0126551
-0.0135279
-0.0142903
-0.0149319
-0.0154436
-0.0158182
-0.0160494
-0.0161321
-0.0160629
-0.0158391
-0.0154594
-0.0149227
-0.0142292
-0.0133801
-0.0123772
-0.0112231
-0.00992082
-0.00847382
-0.0068865
-0.00516391
-0.00331153
-0.00133512
0.000759267
0.00296507
0.00527514
0.00768183
0.0101772
0.0127534
0.0154024
0.0181157
0.0208843
0.0236991
0.0265504
0.0294288
0.0323252
0.0352303
0.0381343
0.0410273
0.0438992
0.0467399
0.0495397
0.052289
0.0549787
0.0575994
0.0601417
0.0625964
0.0649546
0.0672075
0.0693475
0.0713668
0.0732587
0.0750163
0.0766335
0.0781043
0.0794235
0.0805868
0.0815907
0.0824327
0.0831113
0.0836257
0.0839759
0.084163
0.084189
0.0840571
0.0837718
0.0833391
0.0827662
0.0820623
0.0812377
0.0803046
0.0792768
0.0781696
0.077
0.0757867
0.0745508
0.0733151
0.0721046
0.070946
0.0698677
0.0688992
0.0680703
0.067409
0.0669429
0.0667227
0.066781
0.00162859
0.00152926
0.00120786
0.000685241
-1.21726e-06
-0.000825048
-0.00176116
-0.00278344
-0.0038663
-0.00498461
-0.00611486
-0.00723532
-0.00832596
-0.00936847
-0.0103462
-0.0112441
-0.0120494
-0.0127505
-0.0133376
-0.0138022
-0.0141369
-0.0143358
-0.0143941
-0.0143084
-0.0140761
-0.0136953
-0.0131652
-0.0124859
-0.0116583
-0.0106842
-0.00956567
-0.0083055
-0.00690709
-0.00537464
-0.00371289
-0.0019269
-2.19965e-05
0.00199602
0.00412076
0.0063453
0.00866237
0.0110646
0.0135444
0.0160942
0.0187057
0.0213704
0.024079
0.0268227
0.0295925
0.0323798
0.0351754
0.03797
0.0407539
0.0435174
0.0462509
0.0489453
0.0515913
0.0541802
0.0567028
0.0591503
0.0615136
0.0637843
0.0659544
0.0680161
0.0699625
0.0717869
0.073483
0.0750446
0.0764662
0.077743
0.0788709
0.0798468
0.0806683
0.0813341
0.0818436
0.0821968
0.0823948
0.0824397
0.0823348
0.0820844
0.0816943
0.0811715
0.0805246
0.0797639
0.0789006
0.0779478
0.0769198
0.0758322
0.0747025
0.0735497
0.0723946
0.0712596
0.0701684
0.0691459
0.0682178
0.06741
0.0667472
0.0662545
0.0659717
0.0659238
0.00277347
0.00251786
0.00209801
0.00152107
0.000806963
-2.11766e-05
-0.000941205
-0.00193134
-0.00296949
-0.00403407
-0.00510449
-0.00616131
-0.00718675
-0.00816426
-0.00907868
-0.00991641
-0.0106653
-0.0113149
-0.0118559
-0.0122801
-0.0125808
-0.0127521
-0.0127897
-0.0126902
-0.0124509
-0.0120699
-0.0115465
-0.0108807
-0.0100733
-0.00912592
-0.00804031
-0.00681909
-0.00546562
-0.00398391
-0.00237834
-0.000653576
0.00118536
0.00313285
0.00518264
0.00732813
0.00956246
0.0118786
0.0142696
0.0167278
0.0192453
0.0218138
0.0244244
0.0270688
0.0297386
0.0324252
0.0351199
0.0378136
0.040497
0.0431608
0.0457958
0.0483932
0.0509444
0.0534407
0.0558734
0.0582338
0.0605134
0.0627041
0.0647982
0.0667885
0.0686683
0.0704311
0.0720709
0.0735818
0.0749586
0.0761966
0.0772921
0.0782421
0.0790446
0.0796984
0.0802027
0.0805577
0.0807646
0.0808254
0.0807432
0.0805223
0.0801682
0.0796876
0.0790889
0.0783814
0.077576
0.0766847
0.0757208
0.0746986
0.0736341
0.0725447
0.0714491
0.0703671
0.0693198
0.0683288
0.0674164
0.066605
0.0659163
0.0653726
0.0649976
0.0648029
0.00412248
0.00368561
0.00314556
0.00249367
0.00173056
0.000876077
-5.06263e-05
-0.00103079
-0.00204582
-0.00307735
-0.00410744
-0.00511907
-0.00609627
-0.00702414
-0.00788914
-0.00867903
-0.00938274
-0.00999047
-0.0104936
-0.0108845
-0.0111569
-0.0113056
-0.0113264
-0.0112158
-0.0109712
-0.0105909
-0.0100743
-0.00942149
-0.00863306
-0.00771018
-0.00665472
-0.00546924
-0.00415695
-0.00272163
-0.00116728
0.000501719
0.00228048
0.00416355
0.00614486
0.00821815
0.010377
0.0126148
0.0149247
0.0172994
0.0197311
0.0222117
0.024733
0.027287
0.0298656
0.0324606
0.0350635
0.0376654
0.0402574
0.0428304
0.045376
0.0478855
0.0503507
0.0527631
0.0551144
0.057396
0.0595999
0.0617183
0.0637438
0.0656697
0.0674895
0.0691969
0.070786
0.0722512
0.0735874
0.0747903
0.0758565
0.0767831
0.0775681
0.0782104
0.0787094
0.0790651
0.0792787
0.0793521
0.0792884
0.0790916
0.0787669
0.0783208
0.077761
0.0770965
0.0763371
0.0754941
0.0745796
0.0736069
0.0725903
0.0715457
0.0704896
0.0694398
0.0684147
0.0674332
0.0665144
0.0656772
0.0649412
0.0643257
0.0638359
0.0634675
0.00562809
0.00499447
0.00431855
0.00357538
0.00274572
0.00184628
0.000894208
-9.49809e-05
-0.00110562
-0.00212207
-0.003129
-0.00411155
-0.0050555
-0.00594763
-0.00677592
-0.00752942
-0.00819806
-0.0087728
-0.00924574
-0.00961007
-0.00986
-0.00999068
-0.00999807
-0.00987892
-0.00963081
-0.00925233
-0.00874291
-0.00810248
-0.00733156
-0.00643127
-0.00540349
-0.00425075
-0.00297608
-0.00158296
-7.51154e-05
0.00154325
0.00326731
0.00509175
0.00701079
0.00901851
0.0111089
0.0132755
0.0155119
0.0178106
0.0201644
0.0225653
0.0250056
0.0274776
0.0299736
0.0324857
0.0350053
0.0375241
0.0400333
0.0425245
0.0449892
0.0474195
0.0498072
0.0521441
0.0544219
0.0566326
0.0587684
0.0608219
0.062786
0.0646542
0.0664202
0.0680779
0.0696215
0.0710457
0.0723456
0.073517
0.0745567
0.0754621
0.0762311
0.0768626
0.077356
0.0777113
0.0779295
0.0780127
0.0779635
0.0777857
0.0774843
0.0770654
0.0765362
0.0759049
0.0751808
0.074374
0.0734957
0.0725579
0.0715737
0.0705572
0.0695232
0.0684874
0.0674658
0.0664748
0.0655307
0.0646495
0.0638485
0.0631444
0.0625232
0.0619647
0.00724733
0.00640885
0.00558651
0.00473952
0.00382899
0.00286963
0.00187674
0.000862615
-0.000159638
-0.00117667
-0.00217539
-0.00314288
-0.0040668
-0.00493563
-0.00573871
-0.00646615
-0.00710885
-0.00765871
-0.00810873
-0.00845275
-0.00868546
-0.00880233
-0.00879962
-0.00867438
-0.00842456
-0.00804892
-0.00754685
-0.00691824
-0.00616361
-0.00528415
-0.00428175
-0.0031589
-0.0019184
-0.000563445
0.000902363
0.0024749
0.00414943
0.00592079
0.0077835
0.00973204
0.0117606
0.013863
0.0160329
0.0182631
0.0205463
0.0228753
0.0252426
0.0276408
0.0300625
0.0324997
0.0349445
0.0373885
0.0398233
0.0422409
0.0446332
0.0469925
0.0493107
0.0515799
0.0537921
0.0559395
0.0580145
0.06001
0.0619195
0.0637363
0.0654545
0.067068
0.0685713
0.0699589
0.0712264
0.0723698
0.0733859
0.0742721
0.0750265
0.0756478
0.0761354
0.0764893
0.0767104
0.0768005
0.0767621
0.0765987
0.076315
0.0759167
0.0754103
0.0748035
0.0741048
0.0733233
0.0724692
0.0715534
0.0705878
0.0695848
0.0685577
0.0675201
0.0664859
0.0654694
0.0644843
0.0635438
0.0626636
0.0618582
0.0610945
0.0603365
0.00894319
0.00789614
0.00692064
0.00596081
0.00495857
0.00392706
0.00288029
0.00182803
0.000780725
-0.000250315
-0.00125379
-0.00221858
-0.00313426
-0.00399091
-0.00477899
-0.00548956
-0.00611465
-0.00664722
-0.00708103
-0.00741046
-0.00763069
-0.00773761
-0.00772786
-0.00759895
-0.00734912
-0.0069772
-0.00648257
-0.00586521
-0.00512573
-0.00426547
-0.00328629
-0.00219052
-0.000980786
0.000339872
0.00176792
0.00329921
0.00492915
0.00665282
0.00846501
0.0103605
0.0123337
0.0143786
0.0164888
0.0186574
0.0208775
0.0231421
0.0254441
0.0277764
0.0301316
0.0325021
0.0348799
0.0372571
0.0396257
0.0419778
0.0443058
0.046602
0.0488586
0.0510678
0.0532218
0.055313
0.0573344
0.0592789
0.0611401
0.0629118
0.0645879
0.0661625
0.0676302
0.0689857
0.0702247
0.0713433
0.0723385
0.0732077
0.0739489
0.0745607
0.0750425
0.0753942
0.0756165
0.075711
0.07568
0.0755269
0.0752557
0.0748718
0.0743813
0.073791
0.0731086
0.0723425
0.071502
0.0705968
0.0696375
0.0686352
0.0676016
0.0665485
0.0654881
0.0644325
0.0633933
0.0623812
0.0614107
0.0604945
0.059581
0.0586195
0.0106835
0.00942731
0.00829481
0.00721569
0.00611365
0.00500039
0.00388914
0.00278755
0.0017039
0.000647592
-0.000371748
-0.00134483
-0.0022628
-0.003117
-0.00389892
-0.00460085
-0.00521602
-0.00573824
-0.00616186
-0.00648184
-0.00669387
-0.0067944
-0.00678057
-0.00665025
-0.00640187
-0.00603432
-0.00554712
-0.00494047
-0.00421514
-0.00337249
-0.00241434
-0.00134287
-0.000160584
0.00112948
0.0025238
0.00401828
0.00560845
0.00728967
0.00905702
0.0109054
0.0128295
0.0148232
0.0168803
0.0189943
0.0211584
0.023366
0.0256102
0.0278841
0.0301805
0.0324919
0.0348106
0.0371288
0.039439
0.0417336
0.044005
0.0462458
0.0484483
0.0506048
0.0527079
0.0547501
0.0567246
0.0586246
0.060444
0.0621765
0.0638161
0.065357
0.0667938
0.0681214
0.0693357
0.0704328
0.0714099
0.0722641
0.0729935
0.0735967
0.0740728
0.0744217
0.0746438
0.0747405
0.074714
0.0745671
0.0743038
0.0739289
0.0734478
0.0728668
0.0721927
0.0714333
0.0705967
0.0696919
0.0687281
0.0677153
0.0666636
0.0655833
0.064485
0.063379
0.0622749
0.0611815
0.0601122
0.0590783
0.0580109
0.0568451
0.0124404
0.0109766
0.0096852
0.00848245
0.0072746
0.0060723
0.00488805
0.00372793
0.00259855
0.00150753
0.000462686
-0.000528278
-0.00145761
-0.0023177
-0.00310138
-0.00380224
-0.00441442
-0.00493238
-0.00535106
-0.00566614
-0.00587392
-0.00597141
-0.00595622
-0.00582643
-0.00558065
-0.00521798
-0.00473822
-0.00414178
-0.00342956
-0.00260288
-0.00166353
-0.000613604
0.000544419
0.00180744
0.00317191
0.00463386
0.00618901
0.00783295
0.00956093
0.011368
0.0132488
0.0151976
0.0172081
0.0192741
0.0213891
0.0235469
0.0257406
0.0279635
0.0302084
0.0324682
0.0347352
0.0370022
0.0392617
0.0415063
0.0437287
0.0459215
0.0480772
0.0501883
0.0522474
0.0542475
0.0561818
0.0580439
0.0598275
0.0615266
0.0631351
0.0646473
0.0660578
0.0673619
0.0685552
0.0696341
0.0705957
0.0714371
0.0721563
0.0727518
0.0732225
0.073568
0.0737888
0.0738859
0.0738611
0.0737172
0.0734577
0.0730868
0.0726094
0.0720312
0.0713583
0.0705976
0.0697566
0.0688431
0.0678655
0.0668323
0.0657525
0.064635
0.063489
0.0623232
0.0611455
0.059963
0.0587884
0.0576323
0.0564089
0.0550402
0.0141896
0.0125212
0.0110706
0.00974128
0.00842325
0.00712618
0.00586237
0.00463643
0.00345348
0.00231956
0.00124092
0.000224089
-0.000724186
-0.00159753
-0.00239018
-0.00309671
-0.00371191
-0.00423086
-0.00464929
-0.00496359
-0.00517075
-0.00526822
-0.00525395
-0.00512625
-0.00488401
-0.00452668
-0.00405435
-0.00346757
-0.00276732
-0.0019549
-0.00103206
-9.71689e-07
0.00113583
0.00237521
0.00371365
0.00514731
0.00667211
0.00828381
0.00997776
0.0117491
0.0135924
0.0155022
0.0174724
0.0194969
0.0215698
0.0236846
0.0258348
0.0280138
0.0302145
0.0324298
0.0346527
0.0368758
0.0390919
0.041294
0.0434748
0.0456268
0.0477428
0.0498155
0.0518375
0.0538022
0.0557029
0.0575334
0.0592873
0.0609586
0.0625413
0.0640297
0.0654186
0.0667032
0.0678793
0.0689434
0.0698922
0.070723
0.0714337
0.0720225
0.0724882
0.0728302
0.0730487
0.0731446
0.0731194
0.0729756
0.0727162
0.0723449
0.0718663
0.0712851
0.0706071
0.0698384
0.0689855
0.0680554
0.0670556
0.0659936
0.0648771
0.0637139
0.0625119
0.0612785
0.0600202
0.0587425
0.0574579
0.0561765
0.0547967
0.0532277
0.01591
0.0140407
0.0124317
0.0109741
0.0095427
0.00814673
0.00679825
0.0055006
0.00425753
0.00307377
0.00195449
0.000905196
-6.85899e-05
-0.000961833
-0.00176979
-0.00248768
-0.00311095
-0.00363549
-0.0040579
-0.00437522
-0.00458497
-0.00468497
-0.00467345
-0.00454912
-0.00431125
-0.00395965
-0.00349461
-0.00291679
-0.0022272
-0.00142723
-0.000518687
0.000496183
0.00161473
0.00283383
0.00415003
0.00555963
0.0070587
0.00864306
0.0103081
0.012049
0.0138605
0.0157372
0.0176732
0.0196629
0.0217
0.0237786
0.0258922
0.0280341
0.0301976
0.0323757
0.0345616
0.0367481
0.0389282
0.041095
0.0432412
0.0453595
0.0474428
0.0494839
0.0514757
0.0534116
0.0552851
0.05709
0.0588201
0.0604692
0.0620314
0.063501
0.0648728
0.0661421
0.0673048
0.0683572
0.0692961
0.0701187
0.0708226
0.0714059
0.0718672
0.0722057
0.0724214
0.0725148
0.0724874
0.0723412
0.0720788
0.0717035
0.0712192
0.0706302
0.0699415
0.0691586
0.0682874
0.0673339
0.0663048
0.0652066
0.0640461
0.06283
0.0615651
0.0602577
0.0589131
0.0575356
0.0561376
0.054729
0.0531932
0.0514274
0.0175831
0.0155168
0.013751
0.0121647
0.0106176
0.00911966
0.00768253
0.00630843
0.00499988
0.00376071
0.00259522
0.00150777
0.000502579
-0.000416315
-0.00124481
-0.0019788
-0.00261453
-0.00314882
-0.00357898
-0.00390261
-0.00411761
-0.00422218
-0.00421494
-0.00409509
-0.00386231
-0.00351666
-0.00305855
-0.00248877
-0.00180845
-0.00101908
-0.000122616
0.000878576
0.00198181
0.00318399
0.00448177
0.00587152
0.00734936
0.00891115
0.0105523
0.012268
0.0140532
0.0159026
0.0178106
0.0197716
0.0217795
0.0238285
0.025912
0.0280237
0.0301568
0.0323047
0.0344606
0.0366176
0.0387688
0.0409073
0.0430259
0.0451175
0.0471749
0.0491912
0.0511594
0.053073
0.0549256
0.0567111
0.0584231
0.0600555
0.0616023
0.0630579
0.0644172
0.0656755
0.0668286
0.0678727
0.0688047
0.0696214
0.0703205
0.0708996
0.0713574
0.0716927
0.0719053
0.0719955
0.0719644
0.0718138
0.0715458
0.0711633
0.0706695
0.0700684
0.0693643
0.0685621
0.0676669
0.0666841
0.0656194
0.0644788
0.063268
0.0619929
0.0606593
0.0592727
0.0578372
0.0563563
0.0548425
0.0533057
0.051615
0.049656
0.0191927
0.0169334
0.0150126
0.0132977
0.011634
0.0100316
0.00850267
0.0070483
0.00567011
0.00437113
0.00315473
0.0020241
0.000982477
3.32609e-05
-0.00082005
-0.00157419
-0.00222633
-0.00277407
-0.00321521
-0.00354782
-0.00377018
-0.00388098
-0.00387935
-0.00376494
-0.00353774
-0.00319797
-0.00274621
-0.00218339
-0.00151086
-0.000730243
0.000156335
0.00114643
0.00223735
0.00342604
0.00470921
0.00608326
0.00754428
0.00908812
0.0107103
0.012406
0.0141703
0.0159982
0.0178841
0.0198225
0.0218076
0.0238332
0.0258932
0.0279813
0.0300908
0.0322153
0.0343482
0.0364827
0.038612
0.0407291
0.042827
0.0448986
0.0469369
0.048935
0.0508861
0.0527839
0.0546219
0.0563939
0.0580935
0.0597147
0.0612513
0.0626979
0.0640493
0.0653008
0.0664482
0.0674875
0.0684155
0.069229
0.0699252
0.0705018
0.0709571
0.0712898
0.0714993
0.0715858
0.0715501
0.0713935
0.0711178
0.0707254
0.0702191
0.0696023
0.0688787
0.0680527
0.0671286
0.0661115
0.0650061
0.0638176
0.0625512
0.0612119
0.0598049
0.0583348
0.0568048
0.0552177
0.0535863
0.0519209
0.0500767
0.0479283
0.0207246
0.0182762
0.0162022
0.014359
0.0125782
0.0108699
0.00924682
0.00770926
0.00625816
0.00489573
0.00362435
0.00244635
0.0013643
0.000381045
-0.000500727
-0.00127863
-0.00195062
-0.00251485
-0.00296959
-0.00331329
-0.00354474
-0.0036632
-0.00366831
-0.00356004
-0.00333857
-0.00300431
-0.00255807
-0.00200105
-0.00133478
-0.00056106
0.000317881
0.00129953
0.00238123
0.00355992
0.00483229
0.00619469
0.0076432
0.00917367
0.0107816
0.0124625
0.0142115
0.0160235
0.0178932
0.0198151
0.0217833
0.0237919
0.0258348
0.0279058
0.0299984
0.0321063
0.034223
0.0363418
0.0384559
0.0405584
0.0426424
0.0447007
0.0467266
0.0487131
0.0506537
0.052542
0.0543715
0.0561359
0.0578288
0.0594442
0.0609759
0.0624185
0.0637666
0.0650157
0.0661612
0.0671993
0.0681265
0.0689394
0.0696351
0.070211
0.0706651
0.070996
0.0712028
0.0712855
0.0712446
0.0710809
0.070796
0.0703916
0.0698702
0.0692347
0.0684883
0.0676346
0.0666777
0.0656217
0.0644711
0.0632302
0.0619038
0.0604961
0.0590117
0.0574544
0.0558271
0.0541317
0.0523816
0.0505875
0.0485912
0.046257
0.0221661
0.0195319
0.0173067
0.015336
0.0134378
0.0116227
0.00990373
0.00828082
0.00675421
0.00532525
0.00399557
0.00276691
0.00164129
0.000620863
-0.000292549
-0.00109733
-0.00179201
-0.00237514
-0.00284547
-0.00320192
-0.00344393
-0.00357127
-0.00358393
-0.00348209
-0.00326616
-0.00293683
-0.0024952
-0.00194271
-0.00128109
-0.000512301
0.000361357
0.00133735
0.002413
0.00358519
0.00485052
0.00620527
0.00764553
0.00916717
0.0107658
0.012437
0.014176
0.0159777
0.017837
0.0197481
0.0217056
0.0237033
0.0257355
0.0277958
0.0298781
0.0319761
0.0340833
0.0361932
0.0382988
0.0403934
0.0424701
0.0445218
0.0465418
0.0485234
0.0504599
0.0523449
0.054172
0.0559347
0.0576267
0.0592417
0.0607738
0.0622173
0.0635669
0.0648179
0.0659657
0.0670064
0.0679361
0.0687513
0.0694489
0.0700261
0.0704807
0.0708109
0.0710158
0.071095
0.0710486
0.0708772
0.0705818
0.0701639
0.0696254
0.0689687
0.0681966
0.0673122
0.0663189
0.0652206
0.0640209
0.062724
0.0613337
0.0598541
0.0582889
0.0566417
0.0549147
0.0531094
0.0512397
0.0493169
0.0471702
0.0446532
0.0235053
0.0206889
0.0183145
0.0162169
0.0142013
0.0122787
0.0104627
0.00875286
0.00714858
0.00565064
0.0042601
0.00297825
0.00180651
0.000746195
-0.000201553
-0.00103572
-0.00175524
-0.00235912
-0.00284659
-0.00321723
-0.003471
-0.00360806
-0.00362864
-0.00353316
-0.00332234
-0.00299718
-0.0025591
-0.00200976
-0.00135107
-0.000585106
0.000285787
0.00125903
0.00233185
0.00350101
0.00476302
0.00611411
0.00755037
0.00906777
0.010662
0.0123286
0.0140628
0.0158598
0.0177142
0.0196206
0.0215731
0.0235662
0.0255938
0.02765
0.0297285
0.0318232
0.0339275
0.0360349
0.0381387
0.040232
0.042308
0.0443598
0.0463806
0.0483637
0.0503025
0.0521905
0.0540212
0.0557881
0.0574848
0.0591051
0.0606428
0.0620923
0.0634483
0.0647058
0.0658601
0.0669071
0.0678428
0.0686634
0.0693657
0.0699465
0.0704034
0.0707345
0.0709385
0.0710148
0.0709632
0.0707837
0.0704772
0.0700446
0.0694874
0.0688076
0.0680076
0.0670899
0.0660576
0.0649139
0.0636621
0.0623059
0.0608487
0.0592941
0.0576456
0.0559061
0.0540775
0.0521609
0.050171
0.0481198
0.045824
0.0431271
0.0247315
0.0217361
0.0192142
0.0169906
0.0148579
0.0128275
0.0109137
0.00911558
0.00743194
0.00586314
0.00440982
0.00307276
0.00185271
0.000750285
-0.00023393
-0.00109936
-0.0018453
-0.00247132
-0.00297723
-0.00336321
-0.00362958
-0.00377677
-0.00380524
-0.00371574
-0.00350939
-0.00318753
-0.00275179
-0.00220407
-0.00154641
-0.000780961
8.98395e-05
0.00106332
0.00213653
0.00330613
0.00456853
0.00591997
0.00735657
0.00887434
0.010469
0.0121361
0.0138709
0.0156685
0.0175237
0.0194309
0.0213845
0.023379
0.0254084
0.0274667
0.0295479
0.0316456
0.0337536
0.0358652
0.0379737
0.0400724
0.0421543
0.0442127
0.0462408
0.048232
0.0501794
0.0520767
0.0539171
0.0556941
0.0574013
0.0590323
0.0605811
0.0620419
0.0634091
0.0646777
0.0658428
0.0669002
0.0678456
0.068675
0.0693848
0.0699718
0.0704333
0.0707671
0.0709717
0.0710461
0.0709897
0.0708023
0.0704843
0.0700364
0.0694595
0.0687552
0.0679255
0.0669726
0.0658989
0.0647074
0.063401
0.061983
0.0604564
0.0588245
0.0570903
0.0552566
0.0533248
0.0512959
0.0491854
0.0470059
0.0445622
0.0416875
0.0258348
0.022663
0.0199954
0.0176467
0.0153971
0.0132588
0.0112468
0.00935938
0.00759516
0.00595416
0.00443659
0.00304268
0.00177255
0.000626263
-0.000395986
-0.00129397
-0.00206754
-0.00271679
-0.00324217
-0.00364424
-0.00392357
-0.00408085
-0.00411688
-0.00403282
-0.00383015
-0.00351049
-0.00307571
-0.00252787
-0.00186912
-0.00110171
-0.000228215
0.000748503
0.00182536
0.00299888
0.00426546
0.00562134
0.00706268
0.00858547
0.0101854
0.011858
0.0135986
0.0154023
0.0172637
0.0191776
0.0211382
0.0231401
0.0251774
0.0272443
0.0293344
0.0314417
0.0335598
0.035682
0.0378018
0.0399124
0.0420069
0.0440785
0.0461205
0.0481261
0.0500886
0.0520013
0.0538576
0.0556507
0.0573742
0.0590218
0.0605871
0.0620644
0.0634479
0.0647324
0.0659129
0.0669849
0.0679438
0.0687856
0.0695062
0.0701022
0.0705707
0.0709093
0.0711162
0.07119
0.0711298
0.0709351
0.0706058
0.0701422
0.069545
0.0688153
0.0679547
0.066965
0.0658483
0.0646071
0.0632441
0.0617622
0.0601642
0.058453
0.0566313
0.0547018
0.0526656
0.0505234
0.0482917
0.0459841
0.0433932
0.0403425
0.0268059
0.02346
0.0206482
0.0181753
0.0158093
0.0135632
0.0114523
0.00947498
0.00762934
0.00591515
0.00433221
0.00288016
0.00155858
0.000367222
-0.000694091
-0.00162556
-0.00242765
-0.00310101
-0.00364649
-0.00406491
-0.00435712
-0.00452413
-0.0045672
-0.00448784
-0.00428784
-0.00396909
-0.00353364
-0.0029837
-0.00232154
-0.00154956
-0.000670522
0.000312486
0.00139626
0.00257728
0.00385194
0.00521646
0.00666698
0.00819945
0.00980951
0.0114927
0.0132443
0.0150593
0.0169326
0.0188588
0.0208324
0.0228478
0.0248993
0.0269808
0.0290863
0.0312095
0.0333441
0.0354835
0.0376211
0.0397501
0.0418638
0.0439553
0.0460177
0.0480443
0.0500282
0.0519626
0.0538408
0.0556561
0.057402
0.0590718
0.0606594
0.0621585
0.0635635
0.0648689
0.0660695
0.0671605
0.0681371
0.0689949
0.0697297
0.0703379
0.0708163
0.0711622
0.0713734
0.0714483
0.0713856
0.0711844
0.0708443
0.0703653
0.0697476
0.0689921
0.0680998
0.0670723
0.0659113
0.064619
0.0631979
0.0616505
0.0599794
0.0581873
0.0562766
0.0542499
0.052108
0.0498518
0.0474984
0.0450626
0.042325
0.0390995
0.0276362
0.0241182
0.0211633
0.018567
0.0160851
0.013731
0.0115211
0.00945343
0.00752586
0.00573782
0.00408859
0.00257738
0.00120347
-3.37105e-05
-0.00113473
-0.00210037
-0.00293162
-0.00362958
-0.00419531
-0.00462992
-0.00493461
-0.00511082
-0.00516019
-0.00508458
-0.00488602
-0.00456662
-0.00412864
-0.00357439
-0.00290633
-0.00212707
-0.00123963
-0.000247221
0.000846873
0.00203911
0.00332586
0.00470329
0.00616747
0.00771428
0.00933932
0.0110381
0.0128058
0.0146377
0.0165284
0.0184727
0.0204651
0.0225001
0.0245718
0.0266743
0.0288015
0.030947
0.0331045
0.0352676
0.0374296
0.0395837
0.0417232
0.043841
0.0459305
0.0479845
0.0499962
0.0519587
0.0538652
0.0557089
0.057483
0.0591811
0.0607966
0.0623233
0.0637551
0.0650865
0.0663121
0.0674266
0.0684252
0.0693031
0.0700559
0.0706797
0.0711711
0.071527
0.0717449
0.0718229
0.0717593
0.071553
0.0712031
0.0707092
0.0700713
0.0692898
0.0683655
0.0672996
0.0660935
0.0647492
0.0632689
0.0616548
0.0599093
0.0580349
0.0560339
0.0539087
0.0516602
0.049289
0.0468135
0.0442491
0.041365
0.0379654
0.0283177
0.0246288
0.0215321
0.0188127
0.0162151
0.0137532
0.0114442
0.00928597
0.00727615
0.00541369
0.00369752
0.00212654
0.000699831
-0.000583567
-0.00172473
-0.00272499
-0.00358571
-0.00430826
-0.00489398
-0.0053443
-0.00566088
-0.00584555
-0.00590026
-0.00582716
-0.00562855
-0.00530672
-0.00486406
-0.00430311
-0.00362655
-0.00283727
-0.00193846
-0.000933404
0.00017458
0.0013819
0.00268484
0.00407949
0.00556183
0.00712767
0.00877255
0.0104919
0.0122811
0.0141351
0.0160489
0.0180172
0.0200344
0.022095
0.0241931
0.0263228
0.0284778
0.030652
0.032839
0.0350323
0.0372252
0.0394111
0.041583
0.0437339
0.0458569
0.0479449
0.0499909
0.0519879
0.0539291
0.0558074
0.0576161
0.0593484
0.0609977
0.0625576
0.0640219
0.0653846
0.0666402
0.0677831
0.0688082
0.0697105
0.0704853
0.0711284
0.0716361
0.0720051
0.0722326
0.0723161
0.0722537
0.0720438
0.0716854
0.0711777
0.0705203
0.0697132
0.068757
0.0676525
0.0664009
0.065004
0.0634636
0.0617818
0.059961
0.0580031
0.0559107
0.053686
0.0513298
0.0488429
0.0462445
0.0435512
0.0405204
0.0369466
0.028842
0.0249835
0.0217454
0.0189033
0.0161902
0.0136207
0.0112127
0.00896393
0.00687155
0.00493426
0.0031508
0.00151986
4.01851e-05
-0.00128963
-0.00247119
-0.00350616
-0.00439622
-0.00514298
-0.00574813
-0.00621351
-0.00654116
-0.00673327
-0.00679209
-0.00672003
-0.00651958
-0.00619323
-0.00574357
-0.0051734
-0.0044857
-0.00368355
-0.00277022
-0.00174907
-0.000623477
0.000602891
0.0019262
0.00334243
0.00484748
0.00643706
0.00810666
0.00985175
0.0116676
0.0135494
0.0154919
0.0174899
0.0195378
0.02163
0.0237607
0.0259238
0.0281131
0.0303224
0.0325453
0.0347754
0.0370059
0.0392302
0.0414411
0.0436318
0.0457949
0.0479235
0.0500104
0.0520486
0.0540308
0.0559502
0.0577997
0.0595725
0.0612617
0.0628607
0.0643631
0.0657628
0.0670536
0.06823
0.0692864
0.0702176
0.0710187
0.0716852
0.072213
0.0725985
0.0728385
0.0729302
0.0728714
0.0726602
0.0722951
0.0717749
0.071099
0.0702672
0.0692795
0.0681366
0.0668395
0.0653896
0.0637887
0.0620387
0.0601416
0.0580994
0.0559146
0.0535893
0.0511244
0.0485208
0.0457988
0.0429758
0.0397977
0.0360494
0.0292012
0.0251737
0.0217946
0.0188303
0.0160019
0.013325
0.0108181
0.00847861
0.00630347
0.00429122
0.00244046
0.000749589
-0.000783065
-0.00215934
-0.00338122
-0.00445064
-0.00536952
-0.00613983
-0.00676363
-0.00724319
-0.00758087
-0.00777916
-0.00784059
-0.00776779
-0.00756344
-0.00723026
-0.00677114
-0.00618916
-0.00548755
-0.00466947
-0.00373828
-0.00269742
-0.00155035
-0.00030088
0.00104703
0.00248926
0.00402159
0.00563967
0.00733896
0.00911493
0.0109629
0.0128779
0.0148549
0.0168884
0.018973
0.0211029
0.0232722
0.025475
0.0277049
0.0299557
0.0322211
0.0344946
0.0367695
0.0390388
0.0412956
0.0435326
0.0457426
0.0479185
0.050053
0.0521389
0.0541689
0.0561359
0.0580327
0.0598522
0.0615876
0.0632318
0.0647783
0.0662205
0.0675522
0.0687673
0.0698601
0.0708251
0.0716571
0.0723514
0.0729033
0.0733091
0.0735651
0.0736682
0.0736159
0.0734057
0.073036
0.0725051
0.0718122
0.0709567
0.0699384
0.0687577
0.0674153
0.0659126
0.064251
0.0624323
0.0604583
0.0583311
0.0560529
0.0536262
0.0510517
0.0483304
0.0454837
0.0425301
0.0392038
0.0352798
0.0293874
0.0251911
0.0216715
0.0185851
0.0156417
0.0128574
0.0102516
0.00782129
0.0055634
0.00347633
0.00155844
-0.000192198
-0.00177769
-0.00320022
-0.004462
-0.00556527
-0.00651221
-0.00730519
-0.00794668
-0.00843927
-0.00878566
-0.00898861
-0.00905085
-0.00897523
-0.00876469
-0.00842224
-0.00795109
-0.00735459
-0.00663607
-0.00579879
-0.00484621
-0.00378186
-0.00260936
-0.00133265
4.41704e-05
0.00151685
0.00308111
0.00473253
0.00646658
0.00827868
0.0101641
0.012118
0.0141352
0.0162101
0.0183372
0.0205108
0.022725
0.0249737
0.0272507
0.0295496
0.0318641
0.0341876
0.0365135
0.0388347
0.041144
0.0434341
0.0456979
0.0479279
0.0501168
0.0522572
0.0543417
0.0563629
0.0583136
0.0601865
0.0619744
0.0636702
0.0652668
0.0667576
0.0681359
0.0693953
0.07053
0.071534
0.0724019
0.0731285
0.073709
0.0741392
0.074415
0.0745331
0.0744903
0.0742841
0.0739122
0.0733729
0.0726649
0.0717872
0.0707394
0.0695218
0.0681349
0.0665796
0.0648574
0.0629697
0.0609184
0.0587056
0.0563333
0.0538042
0.051119
0.0482789
0.0453065
0.042221
0.0387451
0.0346439
0.029393
0.0250278
0.0213676
0.0181593
0.0151009
0.0122092
0.0095043
0.0069833
0.00464287
0.00248124
0.000496488
-0.00131367
-0.00295166
-0.00441994
-0.00572092
-0.00685716
-0.00783119
-0.00864577
-0.00930373
-0.00980798
-0.0101615
-0.0103672
-0.0104282
-0.0103474
-0.0101282
-0.00977396
-0.00928808
-0.00867409
-0.00793543
-0.00707546
-0.00609776
-0.00500604
-0.00380404
-0.00249588
-0.00108579
0.000421885
0.00202279
0.0037125
0.00548644
0.00734002
0.00926848
0.0112668
0.0133298
0.0154519
0.0176276
0.019851
0.0221163
0.0244173
0.0267477
0.0291013
0.0314715
0.0338519
0.0362355
0.0386153
0.040984
0.0433342
0.0456585
0.0479496
0.0501998
0.0524016
0.0545475
0.0566298
0.0586412
0.0605742
0.0624213
0.0641751
0.0658283
0.0673738
0.0688048
0.0701145
0.0712967
0.0723453
0.0732543
0.0740184
0.0746323
0.0750913
0.0753911
0.075528
0.0754984
0.0752994
0.0749283
0.0743831
0.0736621
0.0727641
0.0716885
0.0704353
0.0690046
0.0673974
0.0656148
0.0636583
0.0615295
0.0592305
0.0567635
0.054131
0.0513341
0.0483741
0.0452745