/*--------------------------------*- C++ -*----------------------------------*\
  =========                 |
  \\      /  F ield         | OpenFOAM: The Open Source CFD Toolbox
   \\    /   O peration     | Website:  https://openfoam.org
    \\  /    A nd           | Version:  11
     \\/     M anipulation  |
\*---------------------------------------------------------------------------*/
FoamFile
{
    format      ascii;
    class       surfaceScalarField;
    location    "1.8";
    object      phi;
}
// * * * * * * * * * * * * * * * * * * * * * * * * * * * * * * * * * * * * * //

dimensions      [0 3 -1 0 0 0 0];

internalField   nonuniform List<scalar> 
19980
(
8.03877e-07
-8.03527e-07
3.09294e-06
-2.28897e-06
6.39162e-06
-3.29862e-06
9.58477e-06
-3.19317e-06
1.19811e-05
-2.39634e-06
1.32184e-05
-1.23723e-06
1.31711e-05
4.73471e-08
1.18181e-05
1.35303e-06
9.2222e-06
2.59597e-06
5.49152e-06
3.73069e-06
7.44812e-07
4.74666e-06
-4.89511e-06
5.63993e-06
-1.13171e-05
6.42204e-06
-1.84046e-05
7.08747e-06
-2.60559e-05
7.65131e-06
-3.41701e-05
8.1143e-06
-4.266e-05
8.48981e-06
-5.14256e-05
8.76566e-06
-6.0399e-05
8.97349e-06
-6.94948e-05
9.0959e-06
-7.86558e-05
9.16099e-06
-8.78155e-05
9.15963e-06
-9.69281e-05
9.11246e-06
-0.000105961
9.03269e-06
-0.000114883
8.92222e-06
-0.000123663
8.78001e-06
-0.000132279
8.6159e-06
-0.00014071
8.43111e-06
-0.000148928
8.21817e-06
-0.000156908
7.98036e-06
-0.000164631
7.72235e-06
-0.00017207
7.43929e-06
-0.0001792
7.12974e-06
-0.000185999
6.79965e-06
-0.000192452
6.45265e-06
-0.000198543
6.09085e-06
-0.000204263
5.71979e-06
-0.000209607
5.34428e-06
-0.000214571
4.9638e-06
-0.000219147
4.57693e-06
-0.000223335
4.18715e-06
-0.000227133
3.79827e-06
-0.000230542
3.40947e-06
-0.000233559
3.01715e-06
-0.000236178
2.61879e-06
-0.000238393
2.21467e-06
-0.000240199
1.80581e-06
-0.000241591
1.39202e-06
-0.000242565
9.74092e-07
-0.00024312
5.55152e-07
-0.000243255
1.34938e-07
-0.000242961
-2.93436e-07
-0.000242226
-7.35179e-07
-0.000241039
-1.18739e-06
-0.000239394
-1.64478e-06
-0.00023729
-2.10337e-06
-0.000234731
-2.55907e-06
-0.000231721
-3.01037e-06
-0.000228262
-3.45872e-06
-0.000224359
-3.90272e-06
-0.00022002
-4.3391e-06
-0.000215252
-4.76839e-06
-0.000210062
-5.19038e-06
-0.000204464
-5.59754e-06
-0.000198483
-5.98152e-06
-0.000192141
-6.34142e-06
-0.000185462
-6.6791e-06
-0.00017847
-6.99241e-06
-0.000171192
-7.27805e-06
-0.000163657
-7.53511e-06
-0.000155895
-7.76183e-06
-0.00014794
-7.95476e-06
-0.000139826
-8.11372e-06
-0.000131584
-8.24208e-06
-0.000123244
-8.34031e-06
-0.000114839
-8.40453e-06
-0.000106406
-8.43304e-06
-9.79772e-05
-8.42918e-06
-8.95824e-05
-8.39475e-06
-8.12578e-05
-8.32449e-06
-7.30474e-05
-8.21036e-06
-6.4998e-05
-8.04944e-06
-5.71537e-05
-7.84427e-06
-4.95573e-05
-7.59633e-06
-4.22547e-05
-7.30266e-06
-3.52961e-05
-6.95859e-06
-2.87358e-05
-6.5603e-06
-2.2631e-05
-6.10485e-06
-1.70405e-05
-5.59055e-06
-1.20234e-05
-5.01706e-06
-7.63841e-06
-4.38499e-06
-3.94305e-06
-3.69537e-06
-9.94623e-07
-2.94845e-06
1.15359e-06
-2.14821e-06
2.46611e-06
-1.31248e-06
2.94525e-06
-4.79104e-07
2.65744e-06
2.87837e-07
1.77086e-06
8.86574e-07
6.43266e-07
1.12749e-06
6.43171e-07
6.01393e-07
-1.40495e-06
2.58894e-06
-4.27668e-06
5.56628e-06
-6.27595e-06
8.07334e-06
-5.70014e-06
8.96104e-06
-3.28405e-06
7.65475e-06
6.90252e-08
3.84448e-06
3.85768e-06
-2.5247e-06
7.72216e-06
-1.1409e-05
1.14802e-05
-2.26716e-05
1.49933e-05
-3.61391e-05
1.82141e-05
-5.16107e-05
2.11115e-05
-6.88687e-05
2.36798e-05
-8.77047e-05
2.59235e-05
-0.000107919
2.78656e-05
-0.000129297
2.94922e-05
-0.000151648
3.0841e-05
-0.000174791
3.19084e-05
-0.000198537
3.27191e-05
-0.000222731
3.32903e-05
-0.000247216
3.36456e-05
-0.000271852
3.37962e-05
-0.000296518
3.37786e-05
-0.000321099
3.36131e-05
-0.000345482
3.33055e-05
-0.000369579
3.28773e-05
-0.000393306
3.23432e-05
-0.000416576
3.1701e-05
-0.000439312
3.09541e-05
-0.000461444
3.01119e-05
-0.000482898
2.91766e-05
-0.000503606
2.8147e-05
-0.000523506
2.70298e-05
-0.000542542
2.58354e-05
-0.00056066
2.45713e-05
-0.000577817
2.32474e-05
-0.000593975
2.18773e-05
-0.0006091
2.04698e-05
-0.000623164
1.90274e-05
-0.000636141
1.75536e-05
-0.00064801
1.60564e-05
-0.000658753
1.45414e-05
-0.000668351
1.3008e-05
-0.000676789
1.14542e-05
-0.000684049
9.87961e-06
-0.000690119
8.28468e-06
-0.000694984
6.6707e-06
-0.000698632
5.03969e-06
-0.000701053
3.39554e-06
-0.00070224
1.74189e-06
-0.000702183
7.74715e-08
-0.000700872
-1.60409e-06
-0.0006983
-3.3071e-06
-0.000694461
-5.0268e-06
-0.000689353
-6.75249e-06
-0.000682981
-8.47527e-06
-0.000675351
-1.01889e-05
-0.000666474
-1.18872e-05
-0.000656368
-1.3565e-05
-0.000645052
-1.52184e-05
-0.000632549
-1.6843e-05
-0.000618884
-1.8433e-05
-0.000604094
-1.99804e-05
-0.000588218
-2.14734e-05
-0.000571301
-2.28991e-05
-0.000553394
-2.42483e-05
-0.000534556
-2.55167e-05
-0.000514849
-2.67001e-05
-0.000494335
-2.77914e-05
-0.000473089
-2.87814e-05
-0.000451189
-2.96626e-05
-0.000428713
-3.04305e-05
-0.000405744
-3.10825e-05
-0.000382371
-3.16155e-05
-0.000358686
-3.20246e-05
-0.000334786
-3.23049e-05
-0.000310766
-3.24531e-05
-0.000286728
-3.24669e-05
-0.000262782
-3.23405e-05
-0.000239043
-3.20632e-05
-0.000215632
-3.16222e-05
-0.000192673
-3.10082e-05
-0.0001703
-3.02172e-05
-0.00014865
-2.92461e-05
-0.000127863
-2.80897e-05
-0.000108082
-2.67398e-05
-8.94549e-05
-2.51874e-05
-7.21341e-05
-2.34257e-05
-5.62718e-05
-2.14528e-05
-4.20167e-05
-1.92723e-05
-2.95115e-05
-1.68902e-05
-1.88896e-05
-1.43173e-05
-1.02645e-05
-1.15735e-05
-3.71482e-06
-8.6979e-06
7.38456e-07
-5.76578e-06
3.16234e-06
-2.90298e-06
3.75402e-06
-3.03671e-07
2.89704e-06
1.74386e-06
1.25005e-06
2.77488e-06
1.89311e-06
-8.59096e-07
-5.45798e-07
-1.40384e-06
-3.73185e-06
-1.60126e-06
-6.07862e-06
-2.91734e-06
-4.38416e-06
-6.43393e-06
2.32489e-07
-1.27747e-05
6.40957e-06
-2.22373e-05
1.33203e-05
-3.49452e-05
2.04299e-05
-5.0859e-05
2.7394e-05
-6.98763e-05
3.40107e-05
-9.18089e-05
4.01466e-05
-0.000116451
4.57536e-05
-0.000143563
5.07921e-05
-0.000172898
5.52581e-05
-0.00020418
5.91482e-05
-0.000237184
6.24961e-05
-0.000271632
6.5289e-05
-0.000307302
6.75786e-05
-0.000343942
6.93587e-05
-0.000381339
7.0687e-05
-0.000419265
7.15721e-05
-0.000457531
7.20617e-05
-0.000495934
7.21817e-05
-0.000534293
7.19717e-05
-0.000572444
7.14564e-05
-0.000610223
7.0657e-05
-0.000647477
6.9597e-05
-0.000684067
6.82913e-05
-0.000719866
6.67529e-05
-0.000754749
6.49946e-05
-0.000788599
6.30267e-05
-0.000821313
6.08605e-05
-0.000852792
5.85097e-05
-0.000882947
5.59896e-05
-0.000911691
5.3316e-05
-0.000938951
5.05071e-05
-0.000964656
4.75821e-05
-0.000988741
4.45552e-05
-0.00101115
4.1436e-05
-0.00103183
3.82353e-05
-0.00105074
3.49655e-05
-0.00106783
3.16354e-05
-0.00108308
2.82492e-05
-0.00109643
2.48106e-05
-0.00110788
2.1323e-05
-0.00111738
1.77896e-05
-0.00112492
1.42147e-05
-0.00113049
1.06041e-05
-0.00113406
6.9646e-06
-0.00113562
3.30303e-06
-0.00113516
-3.79208e-07
-0.00113268
-4.0841e-06
-0.00112818
-7.80916e-06
-0.00112166
-1.15456e-05
-0.00111313
-1.5281e-05
-0.00110261
-1.90017e-05
-0.0010901
-2.2695e-05
-0.00107564
-2.63508e-05
-0.00105924
-2.99583e-05
-0.00104096
-3.35053e-05
-0.00102082
-3.6981e-05
-0.000998876
-4.03753e-05
-0.000975183
-4.36729e-05
-0.000949803
-4.68532e-05
-0.000922805
-4.98975e-05
-0.000894261
-5.27924e-05
-0.000864253
-5.55251e-05
-0.000832872
-5.8081e-05
-0.000800218
-6.04453e-05
-0.000766395
-6.26039e-05
-0.000731516
-6.4542e-05
-0.000695701
-6.62458e-05
-0.000659079
-6.77039e-05
-0.000621788
-6.89067e-05
-0.000583971
-6.98418e-05
-0.000545781
-7.04951e-05
-0.00050738
-7.08537e-05
-0.00046894
-7.09071e-05
-0.000430638
-7.06419e-05
-0.000392662
-7.00391e-05
-0.000355207
-6.90776e-05
-0.000318475
-6.77398e-05
-0.000282679
-6.60141e-05
-0.000248034
-6.38907e-05
-0.000214766
-6.13582e-05
-0.000183102
-5.84037e-05
-0.000153272
-5.50166e-05
-0.000125507
-5.11909e-05
-0.000100031
-4.69287e-05
-7.70623e-05
-4.22413e-05
-5.68026e-05
-3.71498e-05
-3.94292e-05
-3.16908e-05
-2.50778e-05
-2.59249e-05
-1.38254e-05
-1.99502e-05
-5.66655e-06
-1.39246e-05
-4.8053e-07
-8.08907e-06
2.01177e-06
-2.79612e-06
2.30244e-06
1.45312e-06
1.17642e-06
3.90114e-06
3.06949e-06
-1.96956e-06
1.42372e-06
-4.93151e-06
-7.69848e-07
-8.40114e-06
-2.60917e-06
-1.37407e-05
9.55696e-07
-2.19561e-05
8.44794e-06
-3.36318e-05
1.80854e-05
-4.90507e-05
2.87393e-05
-6.83185e-05
3.96977e-05
-9.14113e-05
5.04868e-05
-0.000118214
6.08134e-05
-0.000148542
7.04748e-05
-0.000182171
7.93826e-05
-0.000218832
8.74525e-05
-0.000258245
9.46709e-05
-0.000300122
0.000101026
-0.000344153
0.000106527
-0.000390042
0.000111178
-0.000437496
0.000115032
-0.000486233
0.000118096
-0.000535966
0.00012042
-0.000586435
0.00012204
-0.000637369
0.000122996
-0.000688526
0.000123339
-0.000739664
0.000123109
-0.00079055
0.000122342
-0.000840973
0.000121081
-0.000890733
0.000119357
-0.000939636
0.000117194
-0.000987504
0.000114621
-0.00103417
0.000111661
-0.00107948
0.000108336
-0.00112329
0.00010467
-0.00116547
0.000100688
-0.00120589
9.64138e-05
-0.00124445
9.18714e-05
-0.00128103
8.70885e-05
-0.00131554
8.2091e-05
-0.00134788
7.69006e-05
-0.00137798
7.1536e-05
-0.00140577
6.60162e-05
-0.00143116
6.03597e-05
-0.0014541
5.45805e-05
-0.00147455
4.86901e-05
-0.00149243
4.27e-05
-0.00150773
3.66204e-05
-0.0015204
3.04599e-05
-0.00153042
2.42273e-05
-0.00153774
1.79332e-05
-0.00154237
1.15904e-05
-0.00154428
5.21001e-06
-0.00154346
-1.20089e-06
-0.0015399
-7.63655e-06
-0.00153363
-1.40865e-05
-0.00152464
-2.0536e-05
-0.00151295
-2.69684e-05
-0.00149858
-3.33663e-05
-0.00148157
-3.97113e-05
-0.00146193
-4.59843e-05
-0.00143973
-5.2166e-05
-0.00141499
-5.82382e-05
-0.00138779
-6.41825e-05
-0.00135819
-6.99787e-05
-0.00132626
-7.56034e-05
-0.00129208
-8.10304e-05
-0.00125574
-8.62329e-05
-0.00121735
-9.11866e-05
-0.00117701
-9.58692e-05
-0.00113483
-0.000100258
-0.00109095
-0.000104329
-0.0010455
-0.000108054
-0.000998629
-0.000111409
-0.000950503
-0.000114372
-0.000901286
-0.000116921
-0.000851162
-0.000119031
-0.000800324
-0.000120679
-0.00074898
-0.00012184
-0.000697344
-0.00012249
-0.000645645
-0.000122605
-0.000594126
-0.000122161
-0.000543038
-0.000121127
-0.000492641
-0.000119475
-0.000443203
-0.000117178
-0.000395003
-0.000114214
-0.000348329
-0.000110565
-0.000303474
-0.000106213
-0.000260734
-0.000101144
-0.000220405
-9.53455e-05
-0.00018278
-8.88156e-05
-0.000148144
-8.15649e-05
-0.000116765
-7.36206e-05
-8.88858e-05
-6.50289e-05
-6.47133e-05
-5.58633e-05
-4.44006e-05
-4.62375e-05
-2.80283e-05
-3.63225e-05
-1.55787e-05
-2.63741e-05
-6.90522e-06
-1.67625e-05
-1.69712e-06
-8.00422e-06
5.64944e-07
-8.08944e-07
6.82446e-07
3.78367e-06
3.75197e-06
-2.7062e-06
4.12995e-06
-7.69927e-06
4.22331e-06
-1.43303e-05
4.0218e-06
-2.37036e-05
1.03291e-05
-3.66831e-05
2.14273e-05
-5.37745e-05
3.5177e-05
-7.52306e-05
5.01951e-05
-0.000101121
6.55886e-05
-0.000131418
8.07836e-05
-0.000165968
9.53635e-05
-0.000204593
0.0001091
-0.000247022
0.000121812
-0.000292981
0.000133411
-0.000342149
0.000143839
-0.000394197
0.000153074
-0.000448779
0.000161108
-0.000505578
0.000167977
-0.000564221
0.000173675
-0.000624396
0.000178271
-0.00068576
0.000181785
-0.000748006
0.000184286
-0.000810819
0.000185809
-0.000873897
0.000186417
-0.000936952
0.000186164
-0.00099971
0.0001851
-0.00106191
0.000183277
-0.00112329
0.000180739
-0.00118363
0.000177532
-0.0012427
0.000173695
-0.0013003
0.000169266
-0.00135625
0.000164279
-0.00141035
0.000158774
-0.00146245
0.000152788
-0.00151239
0.000146356
-0.00156003
0.000139513
-0.00160524
0.000132298
-0.0016479
0.000124744
-0.00168788
0.000116882
-0.00172508
0.000108743
-0.00175942
0.000100355
-0.00179081
9.17433e-05
-0.00181916
8.29301e-05
-0.0018444
7.39361e-05
-0.00186648
6.47823e-05
-0.00188535
5.54859e-05
-0.00190095
4.60625e-05
-0.00191325
3.65296e-05
-0.00192223
2.69055e-05
-0.00192785
1.72086e-05
-0.00193009
7.45597e-06
-0.00192895
-2.33759e-06
-0.00192443
-1.21562e-05
-0.00191654
-2.19806e-05
-0.00190529
-3.17892e-05
-0.0018907
-4.15593e-05
-0.0018728
-5.12661e-05
-0.00185162
-6.08843e-05
-0.00182722
-7.03871e-05
-0.00179964
-7.97457e-05
-0.00176895
-8.89311e-05
-0.00173521
-9.79166e-05
-0.00169852
-0.000106673
-0.00165896
-0.000115167
-0.00161663
-0.000123361
-0.00157164
-0.000131219
-0.00152412
-0.000138709
-0.00147419
-0.000145796
-0.00142201
-0.000152443
-0.00136772
-0.000158613
-0.00131151
-0.000164269
-0.00125354
-0.000169374
-0.00119402
-0.000173892
-0.00113316
-0.000177785
-0.00107117
-0.000181016
-0.0010083
-0.000183547
-0.000944807
-0.000185338
-0.000880945
-0.000186351
-0.000817
-0.000186551
-0.000753265
-0.000185896
-0.000690046
-0.000184346
-0.000627661
-0.00018186
-0.000566437
-0.000178402
-0.00050671
-0.00017394
-0.000448826
-0.000168449
-0.000393134
-0.000161905
-0.000339987
-0.00015429
-0.000289737
-0.000145595
-0.000242727
-0.000135826
-0.000199285
-0.000125007
-0.00015972
-0.000113186
-0.000124308
-0.000100441
-9.32824e-05
-8.68889e-05
-6.68144e-05
-7.27056e-05
-4.49943e-05
-5.81426e-05
-2.78096e-05
-4.35587e-05
-1.51202e-05
-2.94518e-05
-6.62715e-06
-1.64971e-05
-1.84227e-06
-5.59385e-06
-2.79241e-08
1.96932e-06
3.72406e-06
-3.20015e-06
7.33014e-06
-1.0041e-05
1.10641e-05
-1.97601e-05
1.37408e-05
-3.31879e-05
2.37568e-05
-5.10028e-05
3.92423e-05
-7.35948e-05
5.77688e-05
-0.000101147
7.77475e-05
-0.000133702
9.81439e-05
-0.000171172
0.000118253
-0.000213417
0.000137608
-0.000260191
0.000155874
-0.000311227
0.000172847
-0.000366208
0.000188393
-0.000424786
0.000202416
-0.000486603
0.000214891
-0.000551285
0.000225791
-0.000618441
0.000235133
-0.000687704
0.000242938
-0.000758686
0.000249253
-0.000831023
0.000254121
-0.000904338
0.000257601
-0.000978286
0.000259757
-0.00105252
0.000260654
-0.00112672
0.000260357
-0.00120055
0.000258932
-0.00127371
0.000256442
-0.00134592
0.000252949
-0.00141691
0.000248514
-0.0014864
0.000243192
-0.00155417
0.000237037
-0.00162
0.000230101
-0.00168366
0.000222439
-0.00174497
0.000214098
-0.00180374
0.000205129
-0.00185981
0.000195583
-0.00191302
0.000185506
-0.00196322
0.000174944
-0.00201028
0.000163939
-0.00205407
0.000152534
-0.00209448
0.000140766
-0.00213141
0.000128671
-0.00216476
0.000116283
-0.00219446
0.000103632
-0.00222042
9.07473e-05
-0.00224259
7.76569e-05
-0.00226092
6.43854e-05
-0.00227535
5.09595e-05
-0.00228585
3.74067e-05
-0.00229239
2.37538e-05
-0.00229496
1.0026e-05
-0.00229355
-3.75368e-06
-0.00228814
-1.75591e-05
-0.00227876
-3.13599e-05
-0.00226543
-4.5126e-05
-0.00224816
-5.8828e-05
-0.00222699
-7.2433e-05
-0.00220197
-8.59042e-05
-0.00217315
-9.92047e-05
-0.0021406
-0.000112298
-0.00210439
-0.000125146
-0.0020646
-0.000137709
-0.00202132
-0.000149945
-0.00197468
-0.000161809
-0.00192479
-0.000173255
-0.00187177
-0.000184236
-0.00181577
-0.000194705
-0.00175696
-0.000204615
-0.00169548
-0.000213914
-0.00163155
-0.000222552
-0.00156534
-0.000230476
-0.00149708
-0.000237635
-0.00142699
-0.000243978
-0.00135533
-0.000249452
-0.00128234
-0.000254002
-0.00120831
-0.000257572
-0.00113354
-0.000260108
-0.00105834
-0.000261558
-0.000983018
-0.000261869
-0.000907929
-0.000260984
-0.000833425
-0.00025885
-0.000759872
-0.000255413
-0.000687646
-0.000250628
-0.000617132
-0.000244454
-0.000548726
-0.000236856
-0.000482826
-0.000227805
-0.000419832
-0.000217284
-0.00036014
-0.000205288
-0.000304133
-0.000191833
-0.000252179
-0.000176961
-0.000204619
-0.000160745
-0.000161761
-0.000143299
-0.00012386
-0.000124789
-9.11111e-05
-0.000105455
-6.36249e-05
-8.56289e-05
-4.14129e-05
-6.57706e-05
-2.43659e-05
-4.64989e-05
-1.22307e-05
-2.86322e-05
-4.5927e-06
-1.32319e-05
-8.3396e-07
-1.78939e-06
2.89006e-06
-3.57957e-06
1.09097e-05
-1.20981e-05
1.95827e-05
-2.4855e-05
2.64977e-05
-4.23443e-05
4.12463e-05
-6.50219e-05
6.19196e-05
-9.31508e-05
8.58978e-05
-0.000126827
0.000111424
-0.000166029
0.000137345
-0.000210641
0.000162866
-0.00026046
0.000187426
-0.000315239
0.000210654
-0.000374669
0.000232278
-0.000438403
0.000252126
-0.000506073
0.000270086
-0.000577269
0.000286087
-0.000651601
0.000300124
-0.000728639
0.00031217
-0.000807981
0.000322281
-0.000889194
0.000330466
-0.000971879
0.000336807
-0.00105563
0.000341352
-0.00114005
0.000344179
-0.00122476
0.000345362
-0.00130939
0.000344984
-0.00139358
0.000343124
-0.001477
0.000339858
-0.00155931
0.000335266
-0.00164022
0.000329425
-0.00171944
0.000322407
-0.00179668
0.000314283
-0.00187171
0.000305126
-0.00194427
0.000295003
-0.00201415
0.000283978
-0.00208114
0.000272119
-0.00214505
0.000259488
-0.00220569
0.000246149
-0.0022629
0.000232156
-0.00231653
0.000217567
-0.00236644
0.000202437
-0.00241248
0.000186815
-0.00245456
0.000170748
-0.00249256
0.000154281
-0.00252638
0.000137457
-0.00255595
0.000120318
-0.0025812
0.000102898
-0.00260205
8.5235e-05
-0.00261845
6.73679e-05
-0.00263038
4.93336e-05
-0.00263779
3.11666e-05
-0.00264067
1.29021e-05
-0.002639
-5.42384e-06
-0.00263278
-2.37739e-05
-0.00262203
-4.21093e-05
-0.00260677
-6.03909e-05
-0.00258702
-7.85779e-05
-0.00256283
-9.66263e-05
-0.00253424
-0.000114489
-0.00250133
-0.00013212
-0.00246415
-0.00014947
-0.00242281
-0.000166489
-0.00237739
-0.000183127
-0.00232801
-0.000199328
-0.00227479
-0.000215033
-0.00221786
-0.000230183
-0.00215737
-0.000244719
-0.0020935
-0.000258581
-0.00202641
-0.000271705
-0.0019563
-0.000284024
-0.00188338
-0.00029547
-0.00180788
-0.000305976
-0.00173004
-0.000315476
-0.00165012
-0.000323899
-0.0015684
-0.000331174
-0.00148517
-0.000337228
-0.00140075
-0.000341989
-0.00131548
-0.000345385
-0.00122969
-0.000347346
-0.00114376
-0.000347802
-0.00105806
-0.000346681
-0.000972997
-0.000343913
-0.000888975
-0.000339436
-0.000806414
-0.00033319
-0.000725742
-0.000325125
-0.000647397
-0.0003152
-0.00057182
-0.000303383
-0.000499449
-0.000289655
-0.000430717
-0.00027402
-0.000366044
-0.000256506
-0.00030583
-0.000237175
-0.000250448
-0.000216127
-0.000200234
-0.000193513
-0.000155472
-0.000169552
-0.000116383
-0.000144544
-8.31103e-05
-0.000118902
-5.5703e-05
-9.3178e-05
-3.41036e-05
-6.80983e-05
-1.81322e-05
-4.46037e-05
-7.4757e-06
-2.38883e-05
-1.66476e-06
-7.60031e-06
1.22528e-06
-3.89791e-06
1.48076e-05
-1.40142e-05
2.9699e-05
-2.97106e-05
4.2194e-05
-5.12092e-05
6.27449e-05
-7.87301e-05
8.94406e-05
-0.000112368
0.000119536
-0.000152138
0.000151193
-0.000197939
0.000183146
-0.000249599
0.000214526
-0.000306888
0.000244715
-0.000369506
0.000273272
-0.000437117
0.000299889
-0.000509346
0.000324355
-0.000585786
0.000346526
-0.00066602
0.000366321
-0.000749598
0.000383701
-0.000836082
0.000398655
-0.000925009
0.000411208
-0.00101594
0.0004214
-0.00110843
0.000429294
-0.00120204
0.000434958
-0.00129633
0.000438474
-0.0013909
0.000439931
-0.00148534
0.000439423
-0.00157926
0.000437043
-0.00167229
0.000432887
-0.00176407
0.000427052
-0.00185428
0.000419629
-0.00194258
0.000410709
-0.00202868
0.000400386
-0.0021123
0.000388746
-0.00219318
0.000375875
-0.00227105
0.000361856
-0.00234571
0.000346773
-0.00241692
0.000330703
-0.00248449
0.000313721
-0.00254824
0.000295903
-0.00260799
0.000277319
-0.00266359
0.000258035
-0.00271489
0.000238114
-0.00276176
0.000217618
-0.00280408
0.000196605
-0.00284176
0.000175129
-0.00287468
0.000153244
-0.00290278
0.000130997
-0.00292599
0.000108441
-0.00294424
8.56223e-05
-0.0029575
6.25902e-05
-0.00296572
3.93906e-05
-0.00296889
1.60704e-05
-0.00296699
-7.32289e-06
-0.00296002
-3.07401e-05
-0.002948
-5.41308e-05
-0.00293095
-7.7445e-05
-0.0029089
-0.000100631
-0.00288189
-0.000123633
-0.00284999
-0.000146391
-0.00281326
-0.000168846
-0.00277179
-0.00019094
-0.00272567
-0.000212609
-0.00267501
-0.000233787
-0.00261993
-0.000254404
-0.00256058
-0.000274387
-0.0024971
-0.000293666
-0.00242965
-0.000312165
-0.00235843
-0.000329806
-0.00228362
-0.000346509
-0.00220546
-0.000362191
-0.00212416
-0.000376766
-0.00203998
-0.000390152
-0.0019532
-0.000402261
-0.00186409
-0.000413004
-0.00177298
-0.000422291
-0.00168018
-0.000430029
-0.00158604
-0.000436127
-0.00149092
-0.000440498
-0.00139522
-0.00044305
-0.00129933
-0.000443694
-0.00120367
-0.000442344
-0.00110867
-0.000438914
-0.00101477
-0.000433327
-0.000922448
-0.000425516
-0.000832154
-0.000415419
-0.000744365
-0.000402989
-0.00065956
-0.000388189
-0.00057821
-0.000371004
-0.000500783
-0.000351447
-0.00042773
-0.000329559
-0.000359482
-0.000305423
-0.000296443
-0.000279166
-0.000238977
-0.000250979
-0.000187401
-0.000221128
-0.000141971
-0.000189974
-0.000102869
-0.000158004
-7.01972e-05
-0.000125849
-4.39656e-05
-9.43299e-05
-2.40838e-05
-6.44855e-05
-1.03576e-05
-3.76145e-05
-2.47898e-06
-1.54789e-05
-1.25365e-06
-4.19375e-06
1.90014e-05
-1.58295e-05
4.13347e-05
-3.43863e-05
6.07508e-05
-5.98019e-05
8.81606e-05
-9.20707e-05
0.000121709
-0.000131156
0.000158621
-0.000176932
0.00019697
-0.000229241
0.000235455
-0.000287842
0.000273128
-0.000352453
0.000309325
-0.000422737
0.000343556
-0.000498321
0.000375473
-0.000578799
0.000404833
-0.000663732
0.000431459
-0.000752672
0.000455261
-0.000845134
0.000476163
-0.000940663
0.000494184
-0.00103876
0.000509303
-0.00113895
0.000521593
-0.00124076
0.0005311
-0.00134371
0.000537913
-0.00144736
0.000542119
-0.00155124
0.000543819
-0.00165494
0.00054312
-0.00175803
0.000540132
-0.00186011
0.000534968
-0.0019608
0.000527741
-0.00205973
0.000518563
-0.00215657
0.000507545
-0.00225098
0.000494796
-0.00234266
0.000480424
-0.00243132
0.000464533
-0.00251668
0.000447225
-0.00259851
0.0004286
-0.00267656
0.000408753
-0.00275062
0.000387778
-0.00282048
0.000365763
-0.00288595
0.000342794
-0.00294687
0.000318954
-0.00300308
0.00029432
-0.00305443
0.000268968
-0.00310079
0.00024297
-0.00314206
0.000216395
-0.00317812
0.000189307
-0.0032089
0.000161771
-0.0032343
0.000133848
-0.00325429
0.000105603
-0.00326879
7.70935e-05
-0.00327778
4.83776e-05
-0.00328122
1.9516e-05
-0.00327911
-9.43034e-06
-0.00327145
-3.84005e-05
-0.00325825
-6.73331e-05
-0.00323953
-9.6165e-05
-0.00321533
-0.00012483
-0.0031857
-0.00015326
-0.00315071
-0.000181384
-0.00311043
-0.000209129
-0.00306495
-0.000236423
-0.00301437
-0.000263188
-0.00295881
-0.000289341
-0.00289842
-0.000314798
-0.00283333
-0.000339473
-0.00276372
-0.000363277
-0.00268977
-0.000386119
-0.00261167
-0.000407904
-0.00252965
-0.000428531
-0.00244394
-0.000447901
-0.00235479
-0.00046591
-0.00226249
-0.000482456
-0.00216732
-0.00049743
-0.0020696
-0.000510723
-0.00196967
-0.000522225
-0.00186788
-0.000531822
-0.0017646
-0.000539406
-0.00166023
-0.000544866
-0.00155518
-0.000548094
-0.0014499
-0.00054898
-0.00134482
-0.00054742
-0.00124042
-0.000543316
-0.00113717
-0.000536576
-0.00103557
-0.000527121
-0.000936105
-0.00051488
-0.000839295
-0.000499798
-0.000745645
-0.000481838
-0.00065566
-0.00046099
-0.000569836
-0.000437271
-0.000488655
-0.00041074
-0.00041258
-0.000381498
-0.000342045
-0.000349702
-0.000277446
-0.000315578
-0.000219136
-0.000279438
-0.000167409
-0.0002417
-0.0001225
-0.000202913
-8.45706e-05
-0.000163779
-5.37096e-05
-0.000125191
-2.99274e-05
-8.82676e-05
-1.31567e-05
-5.43852e-05
-3.25413e-06
-2.53814e-05
-4.50774e-06
-4.50101e-06
2.35024e-05
-1.76073e-05
5.4441e-05
-3.89042e-05
8.20477e-05
-6.81142e-05
0.000117371
-0.000105027
0.000158622
-0.000149421
0.000203015
-0.000201095
0.000248644
-0.000259779
0.000294138
-0.000325179
0.000338528
-0.000396955
0.000381101
-0.000474725
0.000421327
-0.00055808
0.000458828
-0.000646569
0.000493321
-0.000739733
0.000524623
-0.000837077
0.000552605
-0.000938116
0.000577202
-0.00104233
0.000598395
-0.00114921
0.00061619
-0.00125826
0.000630639
-0.00136897
0.000641805
-0.00148083
0.000649776
-0.00159336
0.000654654
-0.0017061
0.000656554
-0.00181857
0.000655594
-0.00193034
0.000651901
-0.00204098
0.000645607
-0.00215008
0.000636843
-0.00225726
0.000625737
-0.00236213
0.000612424
-0.00246437
0.000597032
-0.00256363
0.000579688
-0.00265962
0.000560515
-0.00275203
0.000539636
-0.0028406
0.000517169
-0.00292507
0.000493228
-0.00300521
0.000467922
-0.00308081
0.000441359
-0.00315166
0.000413642
-0.00321757
0.000384867
-0.00327838
0.00035513
-0.00333393
0.000324521
-0.00338409
0.000293128
-0.00342873
0.000261032
-0.00346774
0.000228314
-0.00350102
0.000195053
-0.0035285
0.000161326
-0.0035501
0.000127207
-0.00356578
9.27696e-05
-0.00357548
5.80853e-05
-0.0035792
2.32289e-05
-0.0035769
-1.17259e-05
-0.0035686
-4.67055e-05
-0.00355429
-8.16353e-05
-0.00353402
-0.000116438
-0.00350782
-0.000151032
-0.00347574
-0.000185337
-0.00343786
-0.000219268
-0.00339425
-0.000252739
-0.00334501
-0.000285661
-0.00329026
-0.000317941
-0.00323012
-0.00034948
-0.00316474
-0.000380177
-0.00309428
-0.000409931
-0.00301892
-0.000438636
-0.00293886
-0.000466182
-0.00285431
-0.000492454
-0.00276551
-0.000517333
-0.00267271
-0.0005407
-0.00257619
-0.000562433
-0.00247623
-0.000582406
-0.00237317
-0.000600492
-0.00226734
-0.000616558
-0.00215909
-0.000630472
-0.00204881
-0.000642103
-0.0019369
-0.000651319
-0.00182377
-0.000657989
-0.00170988
-0.000661983
-0.00159569
-0.000663174
-0.00148167
-0.000661439
-0.00136832
-0.000656664
-0.00125615
-0.000648746
-0.00114569
-0.00063759
-0.00103745
-0.000623118
-0.000931977
-0.000605268
-0.000829813
-0.000584003
-0.000731488
-0.000559315
-0.000637529
-0.000531231
-0.000548447
-0.000499821
-0.000464738
-0.000465207
-0.000386866
-0.000427573
-0.000315265
-0.000387179
-0.000250324
-0.000344379
-0.000192385
-0.000299639
-0.000141738
-0.00025356
-9.8614e-05
-0.000206903
-6.31859e-05
-0.000160619
-3.55701e-05
-0.000115883
-1.58291e-05
-7.41263e-05
-3.98032e-06
-3.72302e-05
-8.48807e-06
-4.82598e-06
2.83284e-05
-1.93569e-05
6.89717e-05
-4.32976e-05
0.000105988
-7.61638e-05
0.000150237
-0.00011755
0.000200008
-0.00016712
0.000252585
-0.000224532
0.000306056
-0.000289443
0.00035905
-0.000361484
0.000410569
-0.000440255
0.000459872
-0.000525329
0.000506401
-0.000616248
0.000549746
-0.000712531
0.000589604
-0.000813683
0.000625776
-0.000919175
0.000658096
-0.00102849
0.000686519
-0.00114108
0.000710987
-0.00125643
0.000731537
-0.00137398
0.000748189
-0.00149321
0.000761035
-0.0016136
0.000770163
-0.00173463
0.000775684
-0.0018558
0.000777727
-0.00197663
0.000776427
-0.00209666
0.000771929
-0.00221543
0.000764378
-0.00233251
0.000753924
-0.0024475
0.000740722
-0.00256
0.000724923
-0.00266964
0.000706674
-0.00277608
0.000686124
-0.00287898
0.000663418
-0.00297804
0.000638699
-0.00307297
0.000612102
-0.00316351
0.000583762
-0.00324939
0.000553808
-0.0033304
0.000522365
-0.00340631
0.000489553
-0.00347693
0.000455487
-0.00354208
0.000420278
-0.00360159
0.000384034
-0.00365532
0.000346857
-0.00370314
0.000308846
-0.00374492
0.000270096
-0.00378057
0.000230703
-0.00381
0.000190756
-0.00383313
0.000150345
-0.00384992
0.000109557
-0.00386032
6.84795e-05
-0.00386429
2.72014e-05
-0.00386182
-1.41904e-05
-0.00385292
-5.56083e-05
-0.00383759
-9.6963e-05
-0.00381587
-0.000138162
-0.00378779
-0.000179109
-0.00375342
-0.000219709
-0.00371283
-0.000259864
-0.00366609
-0.000299471
-0.00361333
-0.000338426
-0.00355465
-0.000376616
-0.0034902
-0.000413928
-0.00342014
-0.000450245
-0.00334462
-0.000485447
-0.00326385
-0.000519408
-0.00317803
-0.000551999
-0.0030874
-0.000583085
-0.0029922
-0.000612529
-0.00289271
-0.00064019
-0.00278922
-0.000665924
-0.00268205
-0.000689585
-0.00257152
-0.00071102
-0.002458
-0.000730076
-0.00234187
-0.000746599
-0.00222354
-0.000760435
-0.00210343
-0.000771432
-0.00198198
-0.000779435
-0.00185967
-0.000784294
-0.00173698
-0.000785861
-0.00161442
-0.000783997
-0.00149252
-0.000778571
-0.0013718
-0.000769464
-0.00125282
-0.000756571
-0.00113613
-0.000739802
-0.00102231
-0.000719091
-0.000911914
-0.0006944
-0.000805507
-0.000665722
-0.000703643
-0.000633094
-0.000606868
-0.000596597
-0.000515705
-0.00055637
-0.000430656
-0.000512623
-0.00035219
-0.000465645
-0.000280741
-0.000415828
-0.000216701
-0.000363678
-0.000160421
-0.000309841
-0.000112203
-0.000255121
-7.23098e-05
-0.000200512
-4.09632e-05
-0.00014723
-1.8355e-05
-9.67345e-05
-4.65391e-06
-5.09312e-05
-1.3142e-05
-5.17141e-06
3.34999e-05
-2.10898e-05
8.48901e-05
-4.75622e-05
0.000132461
-8.3935e-05
0.00018661
-0.00012965
0.000245723
-0.000184221
0.000307156
-0.000247207
0.000369041
-0.000318177
0.000430019
-0.000396688
0.000489081
-0.000482277
0.000545461
-0.00057447
0.000598594
-0.000672762
0.000648038
-0.000776634
0.000693477
-0.000885541
0.000734682
-0.000998949
0.000771505
-0.00111629
0.000803855
-0.001237
0.000831697
-0.0013605
0.000855045
-0.00148626
0.000873944
-0.0016137
0.000888477
-0.00174228
0.000898742
-0.00187146
0.000904866
-0.00200072
0.000906989
-0.00212956
0.000905263
-0.00225748
0.000899848
-0.00238401
0.00089091
-0.00250871
0.000878619
-0.00263114
0.00086315
-0.00275088
0.000844673
-0.00286757
0.000823358
-0.00298082
0.000799376
-0.0030903
0.000772893
-0.00319567
0.000744072
-0.00329664
0.00071307
-0.00339292
0.000680041
-0.00348424
0.000645135
-0.00357037
0.000608495
-0.00365108
0.00057026
-0.00372616
0.000530563
-0.00379541
0.000489534
-0.00385867
0.000447296
-0.00391579
0.000403969
-0.00396661
0.000359669
-0.00401102
0.000314507
-0.00404891
0.000268595
-0.00408019
0.000222037
-0.00410479
0.000174939
-0.00412263
0.000127403
-0.00413369
7.95321e-05
-0.00413791
3.1429e-05
-0.0041353
-1.68044e-05
-0.00412584
-6.5065e-05
-0.00410956
-0.000113248
-0.00408648
-0.000161245
-0.00405664
-0.000208946
-0.00402011
-0.000256239
-0.00397696
-0.000303011
-0.00392729
-0.000349144
-0.0038712
-0.000394513
-0.00380883
-0.00043899
-0.00374031
-0.000482444
-0.00366582
-0.000524741
-0.00358552
-0.00056574
-0.00349963
-0.000605297
-0.00340837
-0.00064326
-0.00331198
-0.000679475
-0.00321073
-0.000713784
-0.00310489
-0.000746024
-0.00299479
-0.000776029
-0.00288075
-0.000803627
-0.00276312
-0.000828645
-0.00264229
-0.000850906
-0.00251866
-0.000870232
-0.00239265
-0.000886448
-0.0022647
-0.000899376
-0.0021353
-0.00090884
-0.00200493
-0.000914668
-0.0018741
-0.000916692
-0.00174334
-0.000914754
-0.0016132
-0.000908707
-0.00148425
-0.000898418
-0.00135705
-0.000883766
-0.0012322
-0.000864653
-0.00111029
-0.000841007
-0.0009919
-0.000812786
-0.000877633
-0.000779989
-0.00076807
-0.000742657
-0.000663786
-0.00070088
-0.00056534
-0.000654816
-0.000473269
-0.000604694