/*--------------------------------*- C++ -*----------------------------------*\
  =========                 |
  \\      /  F ield         | OpenFOAM: The Open Source CFD Toolbox
   \\    /   O peration     | Website:  https://openfoam.org
    \\  /    A nd           | Version:  11
     \\/     M anipulation  |
\*---------------------------------------------------------------------------*/
FoamFile
{
    format      ascii;
    class       volScalarField;
    location    "9.5";
    object      p;
}
// * * * * * * * * * * * * * * * * * * * * * * * * * * * * * * * * * * * * * //

dimensions      [0 2 -2 0 0 0 0];

internalField   nonuniform List<scalar> 
10100
(
-1.04323e-09
0.000221763
0.000183389
-0.000232627
-0.000998633
-0.00204212
-0.00329952
-0.00471247
-0.00622948
-0.00780568
-0.00940193
-0.0109842
-0.012523
-0.0139931
-0.0153724
-0.0166421
-0.0177862
-0.0187906
-0.0196434
-0.0203347
-0.0208568
-0.0212035
-0.02137
-0.0213526
-0.0211492
-0.0207587
-0.0201811
-0.0194173
-0.0184691
-0.0173393
-0.0160314
-0.0145496
-0.0128983
-0.011083
-0.00910976
-0.00698523
-0.00471627
-0.00231031
0.000224705
0.00288034
0.00564784
0.00851811
0.0114818
0.0145296
0.0176513
0.0208367
0.0240748
0.0273549
0.0306664
0.0339988
0.0373408
0.0406807
0.0440069
0.0473083
0.0505741
0.0537933
0.0569547
0.0600467
0.0630582
0.0659784
0.0687971
0.0715046
0.0740906
0.0765455
0.0788595
0.081024
0.0830309
0.084873
0.0865437
0.0880366
0.0893459
0.0904669
0.0913954
0.0921286
0.0926647
0.0930032
0.0931446
0.0930906
0.0928442
0.0924097
0.0917932
0.0910023
0.0900463
0.0889362
0.0876851
0.086308
0.0848224
0.0832486
0.0816099
0.0799329
0.0782479
0.0765892
0.0749953
0.0735094
0.0721798
0.0710584
0.0701985
0.069651
0.069458
0.0695666
3.38372e-05
0.00024641
0.000175853
-0.000210406
-0.000871312
-0.00176343
-0.00284164
-0.00405999
-0.00537579
-0.00675063
-0.00814977
-0.00954258
-0.0109021
-0.0122043
-0.0134282
-0.0145558
-0.0155713
-0.0164614
-0.0172142
-0.01782
-0.0182708
-0.0185602
-0.0186832
-0.018636
-0.0184161
-0.0180222
-0.0174536
-0.0167111
-0.0157959
-0.0147105
-0.013458
-0.0120418
-0.0104661
-0.00873584
-0.00685689
-0.00483519
-0.00267697
-0.000389199
0.00202052
0.00454418
0.00717357
0.00990028
0.0127156
0.0156104
0.0185752
0.0216
0.0246746
0.027789
0.0309333
0.0340971
0.0372697
0.0404399
0.043597
0.0467305
0.0498302
0.0528856
0.0558859
0.0588202
0.061678
0.0644493
0.0671247
0.0696947
0.0721499
0.074481
0.076679
0.0787358
0.0806441
0.0823974
0.0839894
0.0854144
0.0866671
0.0877431
0.0886388
0.089352
0.0898814
0.0902267
0.0903889
0.0903698
0.0901728
0.0898024
0.0892647
0.0885674
0.0877198
0.0867326
0.0856186
0.0843923
0.0830705
0.0816725
0.0802202
0.0787385
0.0772552
0.0758011
0.0744104
0.0731201
0.0719699
0.0710009
0.0702517
0.069758
0.0695658
0.069675
0.000436267
0.000605115
0.000488012
0.000101138
-0.000510825
-0.00131748
-0.00228489
-0.00337632
-0.00455555
-0.00578944
-0.00704752
-0.00830208
-0.00952854
-0.0107048
-0.011811
-0.01283
-0.0137466
-0.0145479
-0.0152228
-0.0157615
-0.0161562
-0.0164005
-0.0164891
-0.0164182
-0.0161853
-0.0157888
-0.0152276
-0.0145022
-0.0136139
-0.0125647
-0.0113572
-0.00999431
-0.0084801
-0.00681933
-0.00501727
-0.0030794
-0.00101157
0.00117957
0.00348676
0.00590242
0.00841887
0.0110282
0.0137221
0.0164917
0.0193279
0.0222212
0.0251621
0.028141
0.0311485
0.0341744
0.0372084
0.04024
0.0432589
0.0462554
0.0492195
0.0521412
0.0550102
0.057816
0.0605487
0.0631991
0.0657579
0.0682164
0.0705654
0.072796
0.0749
0.0768697
0.0786984
0.0803799
0.0819085
0.0832786
0.0844856
0.0855253
0.0863948
0.0870918
0.0876156
0.0879661
0.0881445
0.0881529
0.0879947
0.0876745
0.0871984
0.0865742
0.0858107
0.0849185
0.0839098
0.0827985
0.0816006
0.0803344
0.0790204
0.0776816
0.0763436
0.0750342
0.0737835
0.072624
0.0715893
0.0707136
0.0700285
0.0695639
0.0693724
0.0694827
0.0011806
0.00125729
0.00107598
0.000661954
5.75058e-05
-0.000712139
-0.00161943
-0.0026334
-0.00372384
-0.00486174
-0.00602023
-0.00717454
-0.00830226
-0.00938333
-0.0103994
-0.0113343
-0.0121736
-0.012905
-0.0135178
-0.014003
-0.0143527
-0.0145605
-0.0146214
-0.0145317
-0.0142885
-0.01389
-0.0133355
-0.012625
-0.0117597
-0.0107411
-0.00957162
-0.00825408
-0.0067922
-0.00519044
-0.00345367
-0.00158702
0.000403928
0.00251277
0.00473252
0.00705611
0.00947638
0.0119858
0.0145761
0.017239
0.0199655
0.0227467
0.0255737
0.0284373
0.0313281
0.0342365
0.0371525
0.0400662
0.0429678
0.0458479
0.0486968
0.0515051
0.0542626
0.0569595
0.0595865
0.0621346
0.064595
0.0669592
0.0692185
0.0713645
0.0733893
0.0752858
0.0770476
0.0786689
0.0801441
0.0814682
0.0826368
0.0836461
0.0844932
0.0851765
0.0856952
0.0860495
0.0862407
0.0862709
0.0861437
0.0858636
0.0854368
0.0848705
0.0841735
0.0833558
0.0824291
0.0814066
0.0803035
0.0791368
0.0779256
0.0766913
0.075457
0.0742479
0.0730909
0.0720144
0.0710479
0.0702209
0.0695612
0.0690964
0.0688771
0.0689365
0.0021982
0.00214453
0.00187657
0.00141507
0.000792546
3.15008e-05
-0.00084423
-0.00180905
-0.00283727
-0.00390402
-0.0049859
-0.00606092
-0.00710881
-0.0081114
-0.00905209
-0.00991578
-0.0106892
-0.0113607
-0.01192
-0.0123585
-0.0126688
-0.0128449
-0.0128818
-0.0127756
-0.0125238
-0.0121244
-0.0115765
-0.0108803
-0.0100365
-0.00904658
-0.00791253
-0.00663723
-0.00522412
-0.00367729
-0.00200125
-0.00020086
0.00171848
0.0037506
0.00588894
0.00812688
0.0104576
0.0128739
0.0153677
0.0179309
0.0205553
0.0232323
0.0259534
0.0287095
0.0314916
0.0342906
0.0370969
0.0399011
0.0426938
0.0454657
0.0482078
0.0509106
0.0535649
0.0561611
0.0586902
0.0611436
0.0635129
0.0657899
0.0679664
0.0700343
0.0719863
0.0738154
0.0755156
0.0770813
0.0785074
0.0797891
0.0809223
0.0819033
0.0827298
0.0834001
0.0839135
0.0842705
0.0844724
0.0845215
0.0844212
0.084176
0.0837917
0.0832756
0.0826357
0.0818818
0.0810248
0.0800771
0.079053
0.0779683
0.0768407
0.0756896
0.074536
0.0734026
0.072313
0.0712924
0.0703661
0.0695601
0.0688987
0.068407
0.0681247
0.0680775
0.00345369
0.00323481
0.00285715
0.00232863
0.00166615
0.000890143
2.12951e-05
-0.000919006
-0.00190869
-0.00292669
-0.00395278
-0.00496777
-0.00595363
-0.00689377
-0.00777325
-0.00857852
-0.00929706
-0.00991809
-0.0104323
-0.0108314
-0.0111083
-0.0112572
-0.0112737
-0.0111541
-0.0108954
-0.010496
-0.00995494
-0.00927242
-0.00844892
-0.00748559
-0.0063845
-0.00514835
-0.00378033
-0.00228419
-0.000664229
0.00107487
0.00292794
0.00488916
0.0069524
0.00911133
0.0113594
0.0136895
0.016094
0.0185652
0.0210953
0.0236762
0.0262993
0.0289562
0.0316381
0.0343362
0.0370415
0.0397448
0.0424371
0.0451094
0.0477531
0.0503592
0.0529186
0.0554223
0.0578616
0.0602282
0.062514
0.0647112
0.0668119
0.0688085
0.0706938
0.0724614
0.0741053
0.0756202
0.0770015
0.0782444
0.0793452
0.0803004
0.0811076
0.0817655
0.0822734
0.0826321
0.0828426
0.0829075
0.0828298
0.0826141
0.082266
0.081792
0.0812001
0.0804993
0.0796998
0.0788135
0.0778533
0.076834
0.0757718
0.0746842
0.0735901
0.0725097
0.071464
0.0704748
0.0695641
0.0687541
0.0680665
0.0675235
0.0671487
0.0669543
0.00490166
0.00449391
0.00398754
0.00337424
0.00265297
0.00184149
0.000958092
2.09467e-05
-0.000951628
-0.00194169
-0.00293155
-0.00390445
-0.0048449
-0.00573817
-0.00657048
-0.00732952
-0.00800422
-0.00858467
-0.00906213
-0.00942882
-0.00967822
-0.00980509
-0.00980506
-0.00967453
-0.00941091
-0.00901256
-0.00847869
-0.00780923
-0.00700459
-0.00606595
-0.00499527
-0.00379503
-0.00246822
-0.0010184
0.000550267
0.0022333
0.00402585
0.00592241
0.00791711
0.0100039
0.0121763
0.0144277
0.0167508
0.0191382
0.0215823
0.0240753
0.0266092
0.0291756
0.0317662
0.0343725
0.0369858
0.0395973
0.0421983
0.0447801
0.0473344
0.0498527
0.0523261
0.054746
0.0571039
0.0593919
0.0616022
0.0637273
0.0657597
0.0676919
0.0695172
0.0712292
0.0728223
0.0742916
0.0756324
0.0768404
0.0779118
0.0788435
0.079633
0.0802791
0.0807814
0.0811405
0.0813576
0.0814351
0.0813759
0.0811843
0.0808656
0.0804259
0.0798727
0.0792145
0.0784607
0.0776224
0.0767116
0.0757417
0.0747274
0.0736845
0.0726301
0.0715818
0.0705583
0.0695784
0.0686611
0.0678252
0.0670898
0.0664745
0.0659845
0.065616
0.00649703
0.00588597
0.00523653
0.00452429
0.00372831
0.00286422
0.00194881
0.000996665
2.29883e-05
-0.000956646
-0.00192729
-0.00287448
-0.00378442
-0.00464433
-0.0054421
-0.00616648
-0.0068075
-0.00735625
-0.00780465
-0.00814563
-0.00837324
-0.00848267
-0.00846972
-0.00833108
-0.00806443
-0.00766825
-0.00714174
-0.0064848
-0.00569789
-0.00478213
-0.00373936
-0.00257196
-0.0012828
0.000124698
0.00164661
0.00327868
0.00501625
0.00685402
0.00878634
0.0108074
0.0129112
0.0150911
0.0173403
0.0196515
0.0220175
0.0244308
0.0268836
0.029368
0.0318759
0.034399
0.036929
0.0394573
0.0419756
0.0444756
0.0469493
0.0493884
0.0517842
0.0541285
0.0564131
0.0586303
0.0607728
0.0628332
0.0648042
0.0666788
0.0684502
0.0701124
0.07166
0.0730884
0.074393
0.0755697
0.0766147
0.0775249
0.0782982
0.0789333
0.0794297
0.0797882
0.0800099
0.0800969
0.0800522
0.0798797
0.0795842
0.0791715
0.0786485
0.0780231
0.0773042
0.0765018
0.075627
0.074692
0.0737101
0.0726954
0.071663
0.0706287
0.0696086
0.0686191
0.0676762
0.0667958
0.065995
0.0652908
0.0646691
0.0641099
0.00819849
0.00737658
0.00657465
0.0057522
0.00486902
0.0039386
0.00297623
0.00199392
0.00100407
1.96149e-05
-0.000946526
-0.00188188
-0.00277463
-0.00361356
-0.00438797
-0.00508793
-0.00570458
-0.00622983
-0.00665637
-0.00697786
-0.00718893
-0.00728518
-0.00726276
-0.00711864
-0.00685073
-0.0064577
-0.00593881
-0.00529399
-0.00452372
-0.00362907
-0.00261189
-0.0014745
-0.000219658
0.0011494
0.00262896
0.00421491
0.00590266
0.00768715
0.00956303
0.0115247
0.0135664
0.0156818
0.0178641
0.0201065
0.0224019
0.0247432
0.027123
0.0295335
0.0319668
0.034415
0.0368698
0.0393233
0.0417673
0.044194
0.0465953
0.0489633
0.0512896
0.0535662
0.0557852
0.0579392
0.0600211
0.0620239
0.0639404
0.0657635
0.0674869
0.0691048
0.0706121
0.0720041
0.0732766
0.0744254
0.0754467
0.0763377
0.0770961
0.0777207
0.0782112
0.078568
0.0787925
0.0788864
0.0788525
0.0786943
0.0784163
0.0780239
0.0775233
0.076922
0.076228
0.0754507
0.0746
0.073687
0.0727236
0.0717224
0.0706967
0.0696605
0.0686277
0.0676124
0.0666281
0.0656881
0.0648078
0.0640018
0.0632371
0.0624781
0.00996976
0.00893401
0.0079739
0.00703316
0.00605301
0.00504535
0.00402388
0.00299862
0.00197963
0.000977535
3.24793e-06
-0.000932567
-0.0018198
-0.00264865
-0.00340977
-0.00409458
-0.00469524
-0.00520444
-0.00561571
-0.00592344
-0.00612287
-0.00620995
-0.00618123
-0.00603403
-0.00576654
-0.00537758
-0.00486654
-0.00423337
-0.00347863
-0.00260347
-0.00160972
-0.000499645
0.000724178
0.00205863
0.00350005
0.00504441
0.00668732
0.00842392
0.0102491
0.0121576
0.0141436
0.016201
0.0183233
0.0205039
0.0227361
0.025013
0.0273275
0.0296718
0.0320384
0.0344195
0.0368073
0.0391941
0.0415719
0.0439333
0.0462703
0.048575
0.0508395
0.053056
0.0552169
0.0573151
0.0593436
0.0612955
0.0631638
0.0649416
0.0666228
0.0682017
0.0696735
0.0710337
0.0722779
0.0734021
0.0744025
0.0752762
0.0760211
0.076636
0.0771205
0.077475
0.0777005
0.0777989
0.0777724
0.0776243
0.0773586
0.0769803
0.0764951
0.0759098
0.0752319
0.0744698
0.0736325
0.07273
0.0717727
0.0707721
0.0697397
0.0686879
0.0676286
0.0665739
0.0655352
0.0645232
0.0635522
0.062635
0.0617203
0.0607572
0.011779
0.0105298
0.00940831
0.00834382
0.00725932
0.00616567
0.00507557
0.00399691
0.00293783
0.00190716
0.000913893
-3.30307e-05
-0.000924862
-0.00175319
-0.00251008
-0.00318809
-0.00378022
-0.00428007
-0.00468208
-0.00498132
-0.00517354
-0.0052551
-0.005223
-0.00507494
-0.00480937
-0.00442529
-0.0039222
-0.0033002
-0.00255996
-0.00170273
-0.000730281
0.000355222
0.00155124
0.00285472
0.00426203
0.00576922
0.00737212
0.00906612
0.0108463
0.0127074
0.0146438
0.0166497
0.0187186
0.0208443
0.0230205
0.0252404
0.0274969
0.0297826
0.0320901
0.0344118
0.0367404
0.0390682
0.0413879
0.0436916
0.045972
0.0482211
0.0504314
0.0525952
0.0547053
0.0567548
0.0587367
0.0606443
0.0624705
0.0642089
0.0658534
0.0673987
0.0688398
0.0701724
0.0713922
0.072495
0.0734772
0.0743357
0.0750686
0.0756745
0.0761531
0.0765046
0.0767299
0.0768306
0.0768085
0.0766667
0.0764086
0.0760387
0.0755626
0.0749861
0.0743163
0.0735606
0.0727272
0.0718249
0.070863
0.0698516
0.068801
0.0677217
0.0666242
0.0655187
0.0644148
0.063321
0.0622508
0.0612158
0.0601468
0.058979
0.0135992
0.0121388
0.0108548
0.00966272
0.00846852
0.00728213
0.00611576
0.00497522
0.00386708
0.00279849
0.0017769
0.000809828
-9.5356e-05
-0.000931634
-0.00169227
-0.00237077
-0.00296101
-0.0034576
-0.00385576
-0.00415124
-0.00434022
-0.00441956
-0.00438671
-0.00423974
-0.00397737
-0.0035988
-0.00310373
-0.00249242
-0.00176564
-0.000924706
2.8617e-05
0.00109222
0.00226355
0.00353953
0.00491661
0.006391
0.00795868
0.00961522
0.0113558
0.0131752
0.0150679
0.0170284
0.0190505
0.0211282
0.0232552
0.0254251
0.0276308
0.0298652
0.0321209
0.0343908
0.0366678
0.0389445
0.0412134
0.0434672
0.0456982
0.0478992
0.0500625
0.0521809
0.0542474
0.056255
0.058197
0.0600665
0.0618569
0.0635616
0.0651749
0.0666915
0.0681067
0.069416
0.0706151
0.0716997
0.0726663
0.0735119
0.0742342
0.0748321
0.0753051
0.0756532
0.0758773
0.0759783
0.0759581
0.075819
0.0755643
0.0751982
0.0747253
0.0741514
0.0734825
0.0727254
0.0718874
0.0709763
0.0700003
0.0689684
0.0678894
0.0667726
0.065627
0.0644613
0.0632833
0.0621001
0.0609243
0.0597667
0.0585416
0.0571705
0.0154064
0.0137383
0.0122922
0.0109704
0.0096627
0.00837841
0.00712954
0.00592033
0.00475571
0.00364145
0.00258374
0.00158879
0.000662596
-0.000189033
-0.000960308
-0.00164564
-0.00223991
-0.00273866
-0.00313782
-0.0034337
-0.003623
-0.00370304
-0.00367172
-0.00352751
-0.00326943
-0.00289691
-0.0024098
-0.00180857
-0.00109412
-0.000267807
0.000668585
0.0017129
0.00286254
0.00411444
0.00546516
0.00691107
0.00844822
0.0100722
0.0117784
0.0135616
0.0154165
0.0173377
0.0193194
0.0213556
0.0234403
0.0255669
0.0277288
0.0299189
0.0321301
0.0343556
0.0365884
0.0388212
0.0410469
0.0432579
0.045447
0.047607
0.0497306
0.0518107
0.0538404
0.0558129
0.0577213
0.059559
0.0613193
0.0629961
0.0645836
0.0660766
0.0674705
0.0687606
0.0699427
0.0710124
0.0719662
0.0728009
0.0735144
0.0741054
0.0745732
0.0749179
0.0751397
0.0752396
0.0752189
0.0750797
0.0748249
0.074458
0.0739835
0.0734064
0.0727323
0.0719669
0.0711169
0.0701891
0.0691908
0.0681298
0.0670139
0.065851
0.064649
0.0634153
0.0621563
0.0608775
0.0595914
0.0583084
0.0569266
0.055355
0.01718
0.0153082
0.0137012
0.0122489
0.0108251
0.00943923
0.00810298
0.00681958
0.00559243
0.00442615
0.00332578
0.00229628
0.00134248
0.000469207
-0.000318603
-0.00101633
-0.00161989
-0.0021256
-0.00253004
-0.00282995
-0.00302256
-0.00310578
-0.00307799
-0.00293803
-0.00268513
-0.00231896
-0.00183961
-0.00124772
-0.000544358
0.000269062
0.00119067
0.00221825
0.00334918
0.00458046
0.00590871
0.00733036
0.0088415
0.0104378
0.0121147
0.013867
0.0156899
0.0175778
0.0195253
0.0215264
0.0235752
0.0256653
0.0277901
0.0299429
0.0321168
0.034305
0.0365008
0.038697
0.0408865
0.0430619
0.0452162
0.0473423
0.0494333
0.051482
0.0534816
0.0554254
0.0573066
0.0591184
0.0608546
0.062509
0.064076
0.0655505
0.0669276
0.0682028
0.0693715
0.0704296
0.0713733
0.0721995
0.072906
0.0734914
0.0739548
0.074296
0.0745151
0.0746127
0.0745897
0.0744479
0.0741898
0.0738185
0.0733381
0.0727529
0.0720679
0.0712883
0.0704198
0.0694685
0.0684407
0.0673433
0.0661832
0.0649671
0.0637018
0.0623937
0.061048
0.059669
0.0582693
0.0568588
0.0553209
0.0535523
0.0189017
0.016831
0.015065
0.0134818
0.0119404
0.0104502
0.00902302
0.00766093
0.00636636
0.00514285
0.00399427
0.00292456
0.00193762
0.00103745
0.00022805
-0.000487004
-0.0011045
-0.00162135
-0.00203461
-0.00234158
-0.00254014
-0.00262875
-0.00260621
-0.00247165
-0.00222454
-0.00186481
-0.00139281
-0.000809397
-0.000115809
0.000686433
0.00159543
0.0026089
0.00372418
0.00493828
0.00624788
0.0076494
0.00913895
0.0107123
0.0123648
0.0140918
0.0158882
0.0177488
0.019668
0.0216402
0.0236595
0.0257196
0.027814
0.0299363
0.0320798
0.0342378
0.0364036
0.0385702
0.0407304
0.0428773
0.0450038
0.0471031
0.0491682
0.0511923
0.0531685
0.0550899
0.05695
0.0587421
0.0604599
0.0620975
0.0636493
0.0651102
0.0664751
0.0677394
0.0688985
0.0699483
0.0708848
0.071705
0.0724064
0.0729877
0.0734476
0.0737858
0.074002
0.0740964
0.0740696
0.0739232
0.0736592
0.0732804
0.0727902
0.0721927
0.0714922
0.0706931
0.0698006
0.0688198
0.0677565
0.0666166
0.0654059
0.0641306
0.0627963
0.0614086
0.0599716
0.0584889
0.0569731
0.0554344
0.0537414
0.0517795
0.020556
0.0182907
0.0163678
0.0146541
0.0129944
0.011398
0.00987718
0.00843302
0.00706709
0.00578196
0.00458055
0.00346598
0.00244137
0.00150982
0.000674335
-6.23884e-05
-0.000697718
-0.0012291
-0.00165413
-0.0019708
-0.00217758
-0.00227344
-0.00225754
-0.00212921
-0.00188818
-0.00153473
-0.00106955
-0.000493691
0.000191516
0.000984443
0.00188309
0.00288513
0.00398785
0.00518822
0.00648291
0.00786833
0.00934065
0.0108957
0.012529
0.0142359
0.0160113
0.0178502
0.0197471
0.0216965
0.0236924
0.0257289
0.0277996
0.0298982
0.032018
0.0341526
0.0362953
0.038439
0.040577
0.0427022
0.0448079
0.0468871
0.0489332
0.0509393
0.0528984
0.0548039
0.056649
0.0584273
0.0601326
0.0617589
0.0633008
0.0647528
0.0661101
0.0673677
0.0685211
0.069566
0.0704983
0.0713151
0.0720137
0.0725924
0.0730501
0.0733858
0.0735991
0.0736898
0.0736583
0.0735056
0.0732336
0.0728447
0.0723418
0.0717284
0.0710082
0.0701852
0.0692638
0.0682487
0.0671446
0.0659568
0.0646904
0.0633508
0.0619428
0.0604712
0.0589395
0.0573503
0.0557168
0.0540493
0.0522028
0.0500514
0.0221286
0.0196732
0.0175959
0.0157524
0.0139739
0.0122702
0.0106537
0.00912486
0.00768436
0.00633407
0.00507617
0.00391301
0.00284688
0.00188
0.00101455
0.000252613
-0.000403721
-0.000952412
-0.0013917
-0.00172031
-0.0019373
-0.00204193
-0.00203357
-0.00191187
-0.00167699
-0.00132958
-0.000870561
-0.000301149
0.000377216
0.00116279
0.00205349
0.00304685
0.00414009
0.00533011
0.00661357
0.00798693
0.0094464
0.0109879
0.0126069
0.0142988
0.0160587
0.0178815
0.0197619
0.0216944
0.0236732
0.0256925
0.0277459
0.0298273
0.0319302
0.034048
0.0361742
0.0383019
0.0404244
0.0425348
0.0446264
0.0466924
0.0487261
0.0507207
0.0526692
0.0545649
0.0564012
0.0581717
0.0598702
0.0614908
0.0630279
0.0644761
0.0658303
0.0670855
0.068237
0.0692805
0.0702119
0.0710279
0.071726
0.0723042
0.0727609
0.073095
0.0733058
0.0733927
0.0733558
0.0731958
0.0729142
0.072513
0.0719948
0.0713625
0.0706193
0.0697687
0.0688145
0.0677606
0.0666114
0.0653713
0.0640448
0.0626366
0.061151
0.0595922
0.0579628
0.0562651
0.0545127
0.0527164
0.0507179
0.0483807
0.0236068
0.0209655
0.0187363
0.0167641
0.0148669
0.0130551
0.0113414
0.00972584
0.00820835
0.00679017
0.00547283
0.0042579
0.00314695
0.00214147
0.00124291
0.000452926
-0.000226887
-0.000795151
-0.00125093
-0.00159347
-0.00182214
-0.00193647
-0.00193617
-0.00182132
-0.00159251
-0.00125069
-0.000797004
-0.000232753
0.000440492
0.00122084
0.00210605
0.00309351
0.00418031
0.00536335
0.00663931
0.0080047
0.00945571
0.0109882
0.0125979
0.01428
0.0160296
0.0178419
0.0197115
0.021633
0.0236009
0.0256091
0.0276516
0.0297223
0.0318147
0.0339224
0.0360388
0.0381572
0.040271
0.0423733
0.0444575
0.046517
0.0485449
0.0505343
0.0524786
0.0543708
0.0562044
0.057973
0.0596705
0.0612909
0.0628285
0.0642778
0.0656335
0.0668907
0.0680444
0.0690901
0.0700238
0.0708421
0.0715422
0.0721219
0.0725793
0.072913
0.0731219
0.0732051
0.0731626
0.0729946
0.0727024
0.0722874
0.0717519
0.0710983
0.0703293
0.069448
0.0684575
0.0673614
0.0661633
0.0648672
0.063477
0.0619967
0.0604303
0.0587813
0.057052
0.0552443
0.0533722
0.0514473
0.0492984
0.0467785
0.0249798
0.0221561
0.0197773
0.0176776
0.0156619
0.0137415
0.0119297
0.010226
0.00862965
0.00714138
0.00576215
0.00449288
0.0033344
0.0022876
0.00135357
0.00053341
-0.000171955
-0.000761873
-0.00123595
-0.00159382
-0.00183512
-0.00195969
-0.00196771
-0.00185975
-0.00163675
-0.0012999
-0.000850441
-0.000289819
0.00038022
0.00115756
0.00203975
0.00302407
0.00410753
0.00528704
0.00655932
0.00792084
0.00936778
0.010896
0.0125011
0.0141783
0.015923
0.0177302
0.0195947
0.0215112
0.0234741
0.0254775
0.0275154
0.0295817
0.03167
0.0337741
0.0358873
0.0380031
0.0401148
0.0422158
0.0442994
0.0463588
0.0483874
0.0503782
0.0523245
0.0542194
0.0560565
0.0578292
0.0595314
0.0611572
0.0627006
0.064156
0.0655181
0.0667816
0.0679416
0.0689934
0.069933
0.0707566
0.0714614
0.0720448
0.0725048
0.0728395
0.0730475
0.0731278
0.0730797
0.0729036
0.0725999
0.0721701
0.0716159
0.0709391
0.0701422
0.0692276
0.0681982
0.0670568
0.0658068
0.0644515
0.0629944
0.0614392
0.0597893
0.0580478
0.0562169
0.0542978
0.0523056
0.0502523
0.0479544
0.0452548
0.0262372
0.0232345
0.0207079
0.0184817
0.0163482
0.0143191
0.0124086
0.0106156
0.00893902
0.00737897
0.00593587
0.00461011
0.00340202
0.002312
0.00134066
0.00048851
-0.000244182
-0.000857403
-0.00135109
-0.00172514
-0.00197955
-0.00211463
-0.00213108
-0.00202988
-0.0018122
-0.00147936
-0.00103275
-0.000474014
0.000194826
0.000971398
0.00185309
0.0028371
0.00392042
0.00509995
0.00637242
0.00773422
0.00918143
0.0107099
0.0123151
0.0139926
0.0157376
0.0175452
0.0194102
0.0213275
0.0232914
0.0252961
0.0273356
0.0294038
0.0314945
0.0336014
0.035718
0.0378378
0.0399541
0.0420604
0.0441499
0.0462159
0.0482517
0.0502503
0.0522049
0.0541089
0.0559555
0.0577383
0.0594512
0.0610879
0.0626424
0.0641091
0.0654822
0.0667567
0.0679272
0.0689892
0.0699382
0.0707706
0.071483
0.0720728
0.0725374
0.0728748
0.0730833
0.0731615
0.0731086
0.0729244
0.0726092
0.0721639
0.0715899
0.0708887
0.0700621
0.0691123
0.0680417
0.0668527
0.0655481
0.0641311
0.0626047
0.0609721
0.0592364
0.0574007
0.0554665
0.0534352
0.0513224
0.049141
0.0466953
0.0438183
0.0273696
0.0241906
0.0215181
0.0191664
0.0169156
0.014778
0.0127684
0.0108854
0.00912739
0.0074942
0.00598577
0.00460198
0.00334273
0.00220802
0.00119792
0.000312301
-0.000449143
-0.00108677
-0.00160079
-0.00199144
-0.00225919
-0.00240489
-0.0024297
-0.00233484
-0.00212162
-0.00179151
-0.00134614
-0.000787447
-0.000117752
0.000660359
0.00154418
0.00253086
0.00361737
0.00480059
0.00607715
0.00744335
0.00889513
0.0104283
0.0120385
0.0137212
0.0154718
0.0172852
0.0191566
0.0210804
0.0230512
0.0250631
0.0271103
0.0291868
0.0312862
0.0334024
0.035529
0.0376594
0.039787
0.0419052
0.0440072
0.0460862
0.0481356
0.0501485
0.0521179
0.0540372
0.0558995
0.0576986
0.0594278
0.0610811
0.0626522
0.0641353
0.0655246
0.0668147
0.0680003
0.0690765
0.0700389
0.0708836
0.0716069
0.0722057
0.0726775
0.0730197
0.0732303
0.0733077
0.0732509
0.0730592
0.0727327
0.0722718
0.0716774
0.0709509
0.0700935
0.069107
0.0679934
0.0667548
0.0653938
0.0639129
0.062315
0.0606031
0.0587799
0.0568483
0.0548097
0.0526653
0.0504315
0.0481222
0.0455296
0.0424769
0.0283677
0.025015
0.0221982
0.019722
0.0173545
0.0151085
0.0129996
0.0110259
0.00918583
0.00747857
0.00590373
0.00446081
0.00314931
0.00196879
0.000918744
-1.4642e-06
-0.000792568
-0.00145515
-0.00198977
-0.00239716
-0.00267833
-0.00283459
-0.00286734
-0.002778
-0.00256801
-0.0022391
-0.00179325
-0.00123269
-0.000559989
0.000222103
0.00111084
0.00210335
0.00319654
0.00438718
0.00567175
0.00704641
0.00850705
0.0100495
0.0116695
0.0133626
0.015124
0.0169488
0.0188319
0.0207681
0.0227516
0.0247768
0.0268378
0.0289287
0.0310433
0.0331753
0.0353184
0.0374659
0.0396113
0.0417479
0.043869
0.0459677
0.0480373
0.0500708
0.0520615
0.0540024
0.0558867
0.057708
0.0594596
0.0611351
0.0627284
0.0642333
0.0656438
0.0669545
0.0681598
0.0692548
0.0702347
0.0710953
0.0718329
0.0724441
0.0729257
0.073275
0.0734898
0.0735682
0.0735087
0.0733105
0.0729732
0.072497
0.0718822
0.0711298
0.0702409
0.0692167
0.0680589
0.0667693
0.0653501
0.0638038
0.0621327
0.0603397
0.0584276
0.0563988
0.0542547
0.0519964
0.0496413
0.0472039
0.044465
0.0412378
0.0292233
0.0256988
0.0227392
0.0201394
0.0176556
0.0153013
0.0130929
0.0110284
0.00910569
0.00732372
0.00568174
0.00417891
0.00281437
0.0015872
0.000496393
-0.000459079
-0.0012802
-0.00196786
-0.00252312
-0.00294724
-0.00324169
-0.00340808
-0.00344796
-0.00336293
-0.0031547
-0.00282535
-0.00237719
-0.00181273
-0.00113472
-0.000345998
0.000550664
0.00155235
0.0026558
0.00385758
0.00515405
0.00654126
0.00801512
0.00957149
0.0112062
0.0129147
0.0146922
0.0165338
0.0184343
0.0203884
0.0223906
0.024435
0.0265159
0.0286275
0.0307636
0.0329179
0.035084
0.0372552
0.039425
0.0415866
0.0437332
0.0458581
0.0479544
0.0500152
0.0520336
0.0540025
0.0559152
0.0577648
0.0595447
0.0612485
0.0628696
0.0644017
0.0658389
0.0671752
0.0684052
0.0695235
0.0705252
0.071406
0.0721616
0.0727884
0.0732829
0.0736422
0.0738636
0.0739449
0.0738845
0.0736811
0.073334
0.072843
0.0722081
0.0714299
0.0705091
0.0694466
0.0682437
0.0669021
0.0654236
0.0638104
0.0620649
0.0601896
0.0581872
0.0560602
0.0538096
0.0514366
0.0489596
0.046394
0.0435088
0.0401078
0.0299282
0.0262336
0.0231322
0.0204093
0.0178096
0.0153473
0.0130395
0.0108841
0.00887843
0.00702132
0.00531172
0.00374851
0.00233041
0.00105604
-7.59384e-05
-0.00106684
-0.00191793
-0.00263059
-0.00320637
-0.00364699
-0.00395423
-0.00412987
-0.00417567
-0.0040935
-0.0038854
-0.00355384
-0.00310142
-0.00253087
-0.00184502
-0.00104676
-0.00013894
0.000875351
0.00199265
0.00320932
0.0045216
0.00592554
0.00741708
0.00899212
0.0106465
0.0123756
0.0141745
0.0160382
0.0179616
0.0199394
0.0219659
0.0240356
0.0261426
0.0282812
0.0304452
0.0326281
0.0348236
0.037025
0.0392257
0.0414188
0.0435977
0.0457554
0.0478851
0.0499797
0.0520323
0.0540357
0.055983
0.0578673
0.0596817
0.0614197
0.0630744
0.0646396
0.0661089
0.0674762
0.0687359
0.0698824
0.0709107
0.0718159
0.0725936
0.0732397
0.0737505
0.0741227
0.0743534
0.0744402
0.0743809
0.074174
0.0738185
0.0733137
0.0726594
0.0718557
0.070903
0.069802
0.0685536
0.0671593
0.0656207
0.0639397
0.0621188
0.0601601
0.0580664
0.05584
0.053482
0.0509935
0.048394
0.0456997
0.042668
0.0390931
0.0304746
0.0266108
0.0233684
0.020523
0.0178078
0.0152378
0.0128308
0.0105842
0.00849544
0.00656298
0.00478555
0.00316169
0.00168976
0.000368036
-0.000805091
-0.00183123
-0.00271206
-0.00344946
-0.00404539
-0.00450191
-0.00482101
-0.00500465
-0.00505489
-0.00497394
-0.00476424
-0.00442856
-0.00396975
-0.00339063
-0.00269412
-0.00188318
-0.000960856
6.95331e-05
0.00120428
0.0024396
0.00377172
0.00519672
0.00671054
0.00830907
0.00998807
0.0117429
0.0135684
0.0154597
0.0174115
0.0194186
0.0214754
0.0235763
0.0257156
0.0278875
0.0300856
0.0323037
0.034535
0.0367731
0.0390111
0.0412425
0.0434602
0.0456574
0.0478271
0.0499623
0.0520557
0.0541001
0.0560885
0.0580139
0.0598691
0.0616474
0.0633419
0.0649459
0.0664531
0.067857
0.0691518
0.0703317
0.0713913
0.0723255
0.0731296
0.073799
0.0743299
0.0747185
0.0749617
0.0750566
0.0750008
0.0747925
0.0744303
0.0739131
0.0732404
0.072412
0.0714279
0.0702884
0.0689945
0.0675471
0.0659479
0.0641986
0.0623014
0.0602586
0.0580726
0.0557459
0.0532795
0.0506747
0.0479517
0.045128
0.0419492
0.0382
0.0308549
0.0268224
0.0234394
0.0204721
0.0176417
0.0149642
0.0124578
0.0101201
0.00794818
0.00594036
0.00409506
0.00241054
0.000884817
-0.000484069
-0.00169804
-0.00275903
-0.00366921
-0.00443084
-0.00504623
-0.00551764
-0.0058473
-0.00603742
-0.00609045
-0.00600899
-0.00579579
-0.00545389
-0.00498626
-0.00439581
-0.00368554
-0.00285865
-0.00191842
-0.000868426
0.000287437
0.00154533
0.0029015
0.00435203
0.00589284
0.00751975
0.0092284
0.011014
0.0128715
0.0147956
0.0167814
0.0188236
0.0209166
0.0230548
0.0252326
0.027444
0.0296826
0.0319421
0.0342158
0.036497
0.0387791
0.0410553
0.0433186
0.0455621
0.0477786
0.0499609
0.0521018
0.054194
0.0562301
0.058203
0.0601054
0.0619304
0.0636709
0.06532
0.0668709
0.0683173
0.0696528
0.0708714
0.0719675
0.0729356
0.0737706
0.0744678
0.0750228
0.0754316
0.0756907
0.0757969
0.0757474
0.0755402
0.0751733
0.0746455
0.0739558
0.0731037
0.072089
0.0709117
0.0695725
0.0680721
0.0664121
0.0645941
0.0626201
0.0604924
0.0582133
0.0557854
0.0532097
0.0504875
0.0476401
0.0446859
0.0413591
0.0374345
0.0310612
0.0268604
0.0233372
0.020248
0.0173026
0.0145175
0.0119119
0.00948319
0.00722821
0.00514513
0.00323212
0.00148712
-9.20805e-05
-0.00150772
-0.00276202
-0.00385734
-0.00479622
-0.00558126
-0.00621501
-0.00669996
-0.0070386
-0.00723354
-0.00728759
-0.00720372
-0.00698493
-0.00663441
-0.00615521
-0.00555038
-0.00482313
-0.00397695
-0.00301538
-0.00194221
-0.000761408
0.000523161
0.00190775
0.00338844
0.00496103
0.00662123
0.00836456
0.0101861
0.0120808
0.0140433
0.0160687
0.0181518
0.020287
0.0224687
0.0246911
0.0269482
0.0292337
0.031541
0.0338635
0.0361946
0.0385274
0.0408551
0.0431708
0.0454673
0.0477374
0.0499737
0.0521689
0.0543155
0.0564061
0.0584332
0.0603895
0.0622677
0.0640606
0.065761
0.067362
0.0688568
0.0702389
0.0715019
0.0726399
0.0736471
0.074518
0.0752476
0.0758312
0.0762643
0.0765431
0.076664
0.0766241
0.0764206
0.0760516
0.0755153
0.0748105
0.0739363
0.0728921
0.0716779
0.0702939
0.0687409
0.0670202
0.0651334
0.0630822
0.060869
0.0584961
0.0559661
0.0532801
0.0504393
0.0474663
0.0443805
0.0409043
0.0368027
0.0310861
0.0267169
0.0230534
0.0198422
0.0167818
0.0138891
0.0111844
0.00866481
0.006327
0.00416891
0.00218848
0.000383371
-0.00124881
-0.0027106
-0.00400457
-0.00513346
-0.00610011
-0.00690738
-0.00755806
-0.00805492
-0.00840083
-0.00859877
-0.00865193
-0.00856353
-0.00833674
-0.00797484
-0.00748106
-0.00685865
-0.00611113
-0.00524227
-0.00425584
-0.00315574
-0.00194599
-0.000630438
0.000787125
0.00230267
0.00391187
0.0056103
0.00739336
0.00925606
0.0111932
0.0131997
0.0152705
0.0174004
0.0195838
0.0218151
0.0240884
0.0263976
0.0287362
0.0310979
0.0334757
0.0358632
0.0382535
0.0406396
0.0430145
0.0453709
0.0477015
0.0499987
0.0522551
0.054463
0.0566149
0.0587031
0.06072
0.0626582
0.0645101
0.0662684
0.0679259
0.0694755
0.0709102
0.0722236
0.0734093
0.074461
0.0753732
0.0761402
0.0767571
0.077219
0.0775217
0.0776613
0.0776344
0.077438
0.0770698
0.0765275
0.0758098
0.0749152
0.0738431
0.0725931
0.0711653
0.0695604
0.0677794
0.0658237
0.0636953
0.0613961
0.0589287
0.0562957
0.0534982
0.0505377
0.0474377
0.0442188
0.0405914
0.0363108
0.0309217
0.0263837
0.0225794
0.0192461
0.0160705
0.0130703
0.0102666
0.00765644