/*--------------------------------*- C++ -*----------------------------------*\
  =========                 |
  \\      /  F ield         | OpenFOAM: The Open Source CFD Toolbox
   \\    /   O peration     | Website:  https://openfoam.org
    \\  /    A nd           | Version:  11
     \\/     M anipulation  |
\*---------------------------------------------------------------------------*/
FoamFile
{
    format      ascii;
    class       surfaceScalarField;
    location    "9.5";
    object      phi;
}
// * * * * * * * * * * * * * * * * * * * * * * * * * * * * * * * * * * * * * //

dimensions      [0 3 -1 0 0 0 0];

internalField   nonuniform List<scalar> 
19980
(
7.11183e-07
-7.11166e-07
2.3862e-06
-1.67503e-06
4.29009e-06
-1.90398e-06
5.78112e-06
-1.49097e-06
6.52946e-06
-7.48268e-07
6.35001e-06
1.79419e-07
5.15057e-06
1.19936e-06
2.89816e-06
2.25231e-06
-4.04285e-07
3.30262e-06
-4.73019e-06
4.32564e-06
-1.00368e-05
5.30673e-06
-1.62718e-05
6.23497e-06
-2.33755e-05
7.10368e-06
-3.12837e-05
7.90829e-06
-3.993e-05
8.64625e-06
-4.92458e-05
9.31569e-06
-5.91617e-05
9.91594e-06
-6.96087e-05
1.04469e-05
-8.05175e-05
1.09089e-05
-9.182e-05
1.13025e-05
-0.000103449
1.16288e-05
-0.000115338
1.18895e-05
-0.000127424
1.20861e-05
-0.000139644
1.222e-05
-0.000151937
1.22929e-05
-0.000164244
1.23068e-05
-0.000176508
1.22639e-05
-0.000188674
1.2166e-05
-0.000200689
1.20151e-05
-0.000212502
1.18132e-05
-0.000224065
1.15629e-05
-0.000235331
1.12661e-05
-0.000246256
1.09246e-05
-0.000256796
1.05407e-05
-0.000266913
1.01168e-05
-0.000276568
9.65506e-06
-0.000285726
9.1574e-06
-0.000294352
8.62612e-06
-0.000302415
8.06356e-06
-0.000309887
7.47191e-06
-0.000316741
6.85338e-06
-0.000322951
6.21024e-06
-0.000328496
5.54472e-06
-0.000333355
4.85908e-06
-0.00033751
4.15553e-06
-0.000340947
3.43655e-06
-0.000343651
2.7047e-06
-0.000345614
1.96237e-06
-0.000346826
1.2118e-06
-0.000347281
4.55287e-07
-0.000346976
-3.04677e-07
-0.000345911
-1.06525e-06
-0.000344087
-1.82362e-06
-0.00034151
-2.5773e-06
-0.000338186
-3.32394e-06
-0.000334125
-4.06111e-06
-0.000329339
-4.78609e-06
-0.000323843
-5.49587e-06
-0.000317656
-6.18743e-06
-0.000310798
-6.85799e-06
-0.000303293
-7.50499e-06
-0.000295167
-8.12578e-06
-0.000286449
-8.71763e-06
-0.000277172
-9.27761e-06
-0.000267369
-9.80268e-06
-0.000257079
-1.029e-05
-0.000246342
-1.07367e-05
-0.000235202
-1.11403e-05
-0.000223704
-1.14982e-05
-0.000211896
-1.18078e-05
-0.000199829
-1.20668e-05
-0.000187557
-1.22726e-05
-0.000175134
-1.24226e-05
-0.000162619
-1.25147e-05
-0.000150073
-1.25466e-05
-0.000137556
-1.25163e-05
-0.000125134
-1.24221e-05
-0.000112872
-1.22625e-05
-0.000100835
-1.20361e-05
-8.90937e-05
-1.17418e-05
-7.7715e-05
-1.13787e-05
-6.67689e-05
-1.09461e-05
-5.63253e-05
-1.04436e-05
-4.6454e-05
-9.87137e-06
-3.72244e-05
-9.22962e-06
-2.87049e-05
-8.51948e-06
-2.09621e-05
-7.74284e-06
-1.40595e-05
-6.90261e-06
-8.05645e-06
-6.00305e-06
-3.00625e-06
-5.05019e-06
1.04623e-06
-4.05247e-06
4.06802e-06
-3.02179e-06
6.04318e-06
-1.97517e-06
6.98091e-06
-9.37731e-07
6.92841e-06
5.25263e-08
5.99155e-06
9.36865e-07
4.36756e-06
1.624e-06
2.40016e-06
1.96742e-06
6.73047e-07
1.72714e-06
6.73056e-07
1.79153e-06
-2.50275e-06
4.82297e-06
-4.70627e-06
7.70342e-06
-4.78452e-06
9.44637e-06
-3.23401e-06
9.32937e-06
-6.3137e-07
6.89664e-06
2.6123e-06
1.88262e-06
6.21325e-06
-5.84252e-06
9.97754e-06
-1.63113e-05
1.37714e-05
-2.9488e-05
1.75025e-05
-4.52887e-05
2.11073e-05
-6.35943e-05
2.45405e-05
-8.42614e-05
2.77709e-05
-0.00010713
3.07766e-05
-0.000132027
3.35434e-05
-0.000158773
3.60615e-05
-0.000187182
3.83255e-05
-0.000217068
4.03329e-05
-0.000248243
4.20831e-05
-0.000280518
4.35774e-05
-0.000313708
4.48189e-05
-0.00034763
4.58118e-05
-0.000382105
4.65609e-05
-0.000416957
4.70716e-05
-0.000452015
4.73504e-05
-0.000487112
4.74041e-05
-0.000522087
4.72394e-05
-0.000556785
4.68635e-05
-0.000591054
4.62843e-05
-0.00062475
4.55096e-05
-0.000657734
4.45471e-05
-0.000689873
4.34049e-05
-0.00072104
4.20912e-05
-0.000751113
4.06142e-05
-0.000779979
3.89821e-05
-0.000807527
3.72034e-05
-0.000833656
3.52864e-05
-0.000858269
3.32396e-05
-0.000881277
3.10715e-05
-0.000902596
2.87906e-05
-0.000922148
2.64058e-05
-0.000939864
2.39257e-05
-0.000955678
2.13592e-05
-0.000969534
1.8715e-05
-0.000981381
1.60022e-05
-0.000991174
1.32299e-05
-0.000998877
1.04075e-05
-0.00100446
7.54437e-06
-0.0010079
4.64961e-06
-0.00100917
1.73276e-06
-0.00100828
-1.19638e-06
-0.00100522
-4.12773e-06
-0.000999992
-7.05113e-06
-0.000992613
-9.95659e-06
-0.000983103
-1.28343e-05
-0.00097149
-1.5674e-05
-0.000957811
-1.84652e-05
-0.00094211
-2.11972e-05
-0.000924438
-2.38589e-05
-0.000904856
-2.64398e-05
-0.000883432
-2.89291e-05
-0.000860242
-3.13164e-05
-0.000835368
-3.35908e-05
-0.000808905
-3.57415e-05
-0.00078095
-3.77577e-05
-0.000751611
-3.96284e-05
-0.000721005
-4.13431e-05
-0.000689254
-4.28916e-05
-0.000656488
-4.42639e-05
-0.000622845
-4.54504e-05
-0.00058847
-4.64416e-05
-0.000553515
-4.72284e-05
-0.000518135
-4.78018e-05
-0.000482497
-4.81534e-05
-0.000446768
-4.82753e-05
-0.000411124
-4.81603e-05
-0.000375744
-4.78021e-05
-0.000340811
-4.7195e-05
-0.000306513
-4.63346e-05
-0.000273038
-4.5217e-05
-0.000240577
-4.38397e-05
-0.000209322
-4.22012e-05
-0.000179464
-4.03015e-05
-0.000151193
-3.8142e-05
-0.000124696
-3.57265e-05
-0.000100155
-3.30613e-05
-7.77413e-05
-3.01562e-05
-5.76186e-05
-2.70253e-05
-3.99338e-05
-2.36879e-05
-2.48133e-05
-2.01707e-05
-1.23556e-05
-1.65101e-05
-2.62173e-06
-1.27557e-05
4.37914e-06
-8.97599e-06
8.70849e-06
-5.26703e-06
1.05259e-05
-1.76481e-06
1.01265e-05
1.33625e-06
7.99218e-06
3.75837e-06
4.85123e-06
5.10841e-06
1.72748e-06
4.85091e-06
2.40052e-06
1.92048e-06
-4.42333e-06
4.87409e-06
-7.66004e-06
7.06242e-06
-6.97278e-06
7.27377e-06
-3.44546e-06
4.6168e-06
2.02568e-06
-1.51894e-06
8.74783e-06
-1.15151e-05
1.62096e-05
-2.5578e-05
2.40401e-05
-4.37782e-05
3.19716e-05
-6.60867e-05
3.98113e-05
-9.2398e-05
4.74184e-05
-0.00012255
5.46927e-05
-0.00015634
6.15609e-05
-0.000193534
6.79708e-05
-0.000233877
7.38861e-05
-0.000277097
7.9282e-05
-0.000322914
8.41424e-05
-0.00037104
8.84587e-05
-0.000421184
9.22273e-05
-0.000473056
9.5449e-05
-0.000526366
9.81281e-05
-0.000580825
0.000100272
-0.000636153
0.000101889
-0.000692072
0.000102991
-0.000748312
0.00010359
-0.000804607
0.000103699
-0.000860702
0.000103334
-0.000916348
0.00010251
-0.000971305
0.000101242
-0.00102534
9.95467e-05
-0.00107824
9.74419e-05
-0.00112978
9.49444e-05
-0.00117976
9.20715e-05
-0.00122798
8.88411e-05
-0.00127427
8.52713e-05
-0.00131845
8.13803e-05
-0.00136035
7.71864e-05
-0.00139982
7.27079e-05
-0.00143671
6.79636e-05
-0.00147089
6.29725e-05
-0.00150224
5.77534e-05
-0.00153064
5.23254e-05
-0.00155599
4.6708e-05
-0.00157819
4.09207e-05
-0.00159717
3.49833e-05
-0.00161286
2.89159e-05
-0.00162519
2.27388e-05
-0.00163412
1.64723e-05
-0.00163961
1.01373e-05
-0.00164163
3.7547e-06
-0.00164017
-2.65408e-06
-0.00163523
-9.06726e-06
-0.00162682
-1.54629e-05
-0.00161496
-2.18188e-05
-0.00159968
-2.81128e-05
-0.00158103
-3.43224e-05
-0.00155907
-4.04247e-05
-0.00153387
-4.63963e-05
-0.00150552
-5.22137e-05
-0.0014741
-5.78536e-05
-0.00143974
-6.32924e-05
-0.00140255
-6.85069e-05
-0.00136267
-7.34735e-05
-0.00132024
-7.81688e-05
-0.00127543
-8.25693e-05
-0.00122841
-8.66518e-05
-0.00117936
-9.03935e-05
-0.00112847
-9.37722e-05
-0.00107597
-9.67661e-05
-0.00102207
-9.93543e-05
-0.000966993
-0.000101516
-0.000910989
-0.000103233
-0.000854305
-0.000104485
-0.000797204
-0.000105255
-0.000739952
-0.000105527
-0.000682828
-0.000105285
-0.000626115
-0.000104516
-0.0005701
-0.000103209
-0.000515079
-0.000101356
-0.000461349
-9.89477e-05
-0.000409207
-9.59813e-05
-0.000358953
-9.24549e-05
-0.000310885
-8.83704e-05
-0.000265293
-8.37337e-05
-0.000222464
-7.85557e-05
-0.000182671
-7.28535e-05
-0.000146176
-6.66517e-05
-0.000113217
-5.99844e-05
-8.4007e-05
-5.28978e-05
-5.8724e-05
-4.54537e-05
-3.74995e-05
-3.77346e-05
-2.04046e-05
-2.98505e-05
-7.43133e-06
-2.19493e-05
1.53209e-06
-1.42304e-05
6.73236e-06
-6.96504e-06
8.5909e-06
-5.22223e-07
7.75192e-06
4.59741e-06
5.13314e-06
7.7272e-06
1.97501e-06
8.00902e-06
4.37554e-06
1.53236e-06
-5.95558e-06
3.36107e-06
-9.48869e-06
3.62056e-06
-7.23248e-06
1.0029e-06
-8.27593e-07
-5.45595e-06
8.48431e-06
-1.64352e-05
1.97272e-05
-3.23775e-05
3.21519e-05
-5.35326e-05
4.51953e-05
-7.99978e-05
5.84366e-05
-0.000111748
7.15612e-05
-0.000148664
8.43347e-05
-0.000190554
9.65829e-05
-0.00023717
0.000108177
-0.000288222
0.000119022
-0.000343386
0.000129051
-0.000402319
0.000138215
-0.000464659
0.000146482
-0.000530033
0.000153833
-0.000598064
0.000160258
-0.00066837
0.000165755
-0.00074057
0.000170328
-0.000814285
0.000173987
-0.000889141
0.000176745
-0.00096477
0.00017862
-0.00104081
0.000179631
-0.00111691
0.0001798
-0.00119273
0.000179152
-0.00126793
0.000177711
-0.0013422
0.000175505
-0.00141521
0.000172561
-0.00148668
0.000168909
-0.00155631
0.000164576
-0.00162383
0.000159594
-0.00168898
0.000153992
-0.00175151
0.000147802
-0.00181119
0.000141055
-0.00186778
0.000133783
-0.00192109
0.000126017
-0.00197092
0.00011779
-0.00201708
0.000109135
-0.00205941
0.000100084
-0.00209776
9.06716e-05
-0.00213198
8.09303e-05
-0.00216196
7.08944e-05
-0.00218757
6.05985e-05
-0.00220873
5.00774e-05
-0.00222536
3.93664e-05
-0.00223739
2.8501e-05
-0.00224477
1.75175e-05
-0.00224747
6.45239e-06
-0.00224546
-4.65726e-06
-0.00223876
-1.57736e-05
-0.00222736
-2.68586e-05
-0.00221131
-3.78738e-05
-0.00219064
-4.87804e-05
-0.00216542
-5.95392e-05
-0.00213574
-7.01104e-05
-0.00210168
-8.04539e-05
-0.00206336
-9.05291e-05
-0.00202092
-0.000100296
-0.0019745
-0.000109713
-0.00192427
-0.00011874
-0.0018704
-0.000127337
-0.00181311
-0.000135463
-0.0017526
-0.000143078
-0.00168911
-0.000150142
-0.00162289
-0.000156617
-0.0015542
-0.000162463
-0.00148332
-0.000167645
-0.00141055
-0.000172126
-0.00133619
-0.00017587
-0.00126058
-0.000178846
-0.00118404
-0.000181021
-0.00110693
-0.000182366
-0.00102961
-0.000182853
-0.000952432
-0.000182459
-0.000875787
-0.000181161
-0.000800056
-0.000178941
-0.000725627
-0.000175784
-0.000652894
-0.000171681
-0.00058225
-0.000166625
-0.000514088
-0.000160618
-0.000448795
-0.000153663
-0.000386752
-0.000145777
-0.000328328
-0.00013698
-0.000273876
-0.000127306
-0.000223725
-0.000116802
-0.000178179
-0.000105531
-0.0001375
-9.35768e-05
-0.000101904
-8.1049e-05
-7.15472e-05
-6.80916e-05
-4.65055e-05
-5.48922e-05
-2.67576e-05
-4.16972e-05
-1.21584e-05
-2.88295e-05
-2.40904e-06
-1.67144e-05
2.97991e-06
-5.91112e-06
4.7301e-06
2.84724e-06
3.84117e-06
8.61614e-06
1.64937e-06
1.02008e-05
6.02494e-06
8.12546e-07
-6.76814e-06
8.26967e-07
-9.50325e-06
-1.72635e-06
-4.67902e-06
-8.13121e-06
5.57705e-06
-1.93446e-05
1.96979e-05
-3.6054e-05
3.64364e-05
-5.87158e-05
5.48136e-05
-8.75936e-05
7.40733e-05
-0.000122791
9.36339e-05
-0.000164279
0.00011305
-0.000211926
0.000131981
-0.000265512
0.000150169
-0.000324753
0.000167418
-0.000389312
0.000183581
-0.000458813
0.000198551
-0.000532848
0.00021225
-0.000610988
0.000224623
-0.00069279
0.000235634
-0.000777798
0.000245266
-0.000865554
0.000253511
-0.000955596
0.00026037
-0.00104746
0.000265855
-0.0011407
0.000269984
-0.00123486
0.00027278
-0.0013295
0.00027427
-0.00142419
0.000274486
-0.0015185
0.000273463
-0.00161203
0.000271239
-0.00170437
0.000267852
-0.00179516
0.000263343
-0.001884
0.000257756
-0.00197056
0.000251134
-0.00205449
0.000243523
-0.00213547
0.000234968
-0.00221318
0.000225516
-0.00228734
0.000215215
-0.00235767
0.000204112
-0.00242391
0.000192256
-0.00248581
0.000179698
-0.00254316
0.000166485
-0.00259575
0.000152669
-0.00264338
0.000138301
-0.00268588
0.000123432
-0.0027231
0.000108113
-0.0027549
9.23986e-05
-0.00278116
7.63408e-05
-0.00280179
5.99939e-05
-0.0028167
4.34124e-05
-0.00282583
2.66517e-05
-0.00282915
9.76762e-06
-0.00282662
-7.18296e-06
-0.00281826
-2.41426e-05
-0.00280406
-4.10529e-05
-0.00278408
-5.78554e-05
-0.00275837
-7.44906e-05
-0.00272701
-9.08986e-05
-0.0026901
-0.000107019
-0.00264777
-0.00012279
-0.00260014
-0.00013815
-0.0025474
-0.000153039
-0.00248972
-0.000167394
-0.00242731
-0.000181153
-0.00236039
-0.000194255
-0.00228921
-0.000206639
-0.00221405
-0.000218244
-0.00213518
-0.00022901
-0.00205292
-0.000238878
-0.00196759
-0.000247791
-0.00187954
-0.000255692
-0.00178914
-0.000262528
-0.00169676
-0.000268246
-0.00160281
-0.000272797
-0.0015077
-0.000276134
-0.00141185
-0.000278212
-0.00131571
-0.000278993
-0.00121973
-0.000278441
-0.00112437
-0.000276523
-0.0010301
-0.000273214
-0.000937386
-0.000268495
-0.000846715
-0.000262352
-0.000758562
-0.000254779
-0.000673401
-0.000245779
-0.000591699
-0.000235365
-0.000513913
-0.000223562
-0.000440484
-0.000210409
-0.00037183
-0.00019596
-0.000308341
-0.000180291
-0.000250371
-0.000163502
-0.000198224
-0.000145723
-0.00015215
-0.000127123
-0.000112323
-0.000107918
-7.88295e-05
-8.8386e-05
-5.16441e-05
-6.88826e-05
-3.06087e-05
-4.98649e-05
-1.54043e-05
-3.19187e-05
-5.51972e-06
-1.57957e-05
-2.16184e-07
-2.45625e-06
1.51206e-06
6.88792e-06
9.91473e-07
1.07213e-05
7.01643e-06
-8.73538e-08
-6.68073e-06
-2.34071e-06
-7.24979e-06
-8.31951e-06
1.29959e-06
-1.91997e-05
1.64573e-05
-3.58728e-05
3.63709e-05
-5.89857e-05
5.95492e-05
-8.89717e-05
8.47998e-05
-0.00012608
0.000111181
-0.0001704
0.000137954
-0.00022189
0.00016454
-0.000280396
0.000190487
-0.000345674
0.000215447
-0.000417404
0.000239148
-0.00049521
0.000261387
-0.000578668
0.000282009
-0.000667316
0.000300898
-0.000760669
0.000317975
-0.000858219
0.000333184
-0.000959446
0.000346493
-0.00106382
0.000357886
-0.00117081
0.000367363
-0.00127989
0.000374933
-0.00139053
0.000380619
-0.0015022
0.000384449
-0.00161439
0.00038646
-0.00172659
0.000386692
-0.00183832
0.000385192
-0.0019491
0.000382011
-0.00205845
0.000377202
-0.00216592
0.000370822
-0.0022711
0.000362928
-0.00237355
0.000353583
-0.00247287
0.000342848
-0.00256869
0.000330788
-0.00266064
0.000317467
-0.00274838
0.000302953
-0.00283158
0.000287311
-0.00290994
0.000270611
-0.00298316
0.000252921
-0.00305099
0.000234312
-0.00311317
0.000214854
-0.00316949
0.00019462
-0.00321974
0.00017368
-0.00326373
0.00015211
-0.00330132
0.000129983
-0.00333235
0.000107373
-0.00335671
8.43581e-05
-0.00337432
6.10142e-05
-0.00338508
3.74195e-05
-0.00338897
1.36527e-05
-0.00338595
-1.02059e-05
-0.00337601
-3.40755e-05
-0.00335919
-5.78741e-05
-0.00333553
-8.15191e-05
-0.00330509
-0.000104927
-0.00326798
-0.000128013
-0.00322431
-0.000150692
-0.00317422
-0.000172878
-0.00311788
-0.000194486
-0.00305549
-0.000215428
-0.00298727
-0.000235619
-0.00291345
-0.000254971
-0.00283431
-0.000273399
-0.00275013
-0.000290816
-0.00266123
-0.000307139
-0.00256796
-0.000322284
-0.00247067
-0.000336169
-0.00236975
-0.000348713
-0.0022656
-0.000359839
-0.00215866
-0.000369471
-0.00204937
-0.000377538
-0.00193819
-0.000383972
-0.00182562
-0.000388707
-0.00171215
-0.000391685
-0.00159829
-0.00039285
-0.00148457
-0.000392155
-0.00137154
-0.000389558
-0.00125973
-0.000385025
-0.00114969
-0.00037853
-0.00104199
-0.00037006
-0.000937157
-0.000359607
-0.000835754
-0.000347182
-0.000738315
-0.000332805
-0.000645361
-0.000316516
-0.000557396
-0.000298374
-0.000474896
-0.00027846
-0.000398302
-0.000256885
-0.000328013
-0.000233791
-0.000264372
-0.000209364
-0.000207657
-0.000183838
-0.000158066
-0.000157509
-0.0001157
-0.000130752
-8.05434e-05
-0.000104039
-5.24451e-05
-7.79631e-05
-3.10941e-05
-5.32697e-05
-1.59941e-05
-3.08956e-05
-6.4362e-06
-1.20142e-05
-1.46768e-06
1.9194e-06
1.46242e-07
9.10737e-06
7.16266e-06
-1.0805e-06
-5.60025e-06
-5.8775e-06
-2.45298e-06
-1.5684e-05
1.11063e-05
-3.15148e-05
3.22881e-05
-5.41514e-05
5.90073e-05
-8.41637e-05
8.95615e-05
-0.000121932
0.000122568
-0.000167665
0.000156914
-0.000221423
0.000191712
-0.000283135
0.000226252
-0.000352619
0.000259972
-0.0004296
0.000292428
-0.000513727
0.000323275
-0.000604582
0.000352243
-0.000701699
0.000379125
-0.00080457
0.000403769
-0.000912655
0.00042606
-0.00102539
0.000445922
-0.00114221
0.000463306
-0.0012625
0.000478185
-0.00138569
0.000490552
-0.00151118
0.000500418
-0.00163836
0.000507806
-0.00176666
0.00051275
-0.0018955
0.000515294
-0.0020243
0.000515491
-0.00215251
0.000513399
-0.00227958
0.000509082
-0.00240498
0.00050261
-0.00252822
0.000494055
-0.00264878
0.000483495
-0.00276621
0.000471008
-0.00288004
0.000456676
-0.00298983
0.000440584
-0.00309518
0.000422817
-0.00319569
0.000403464
-0.003291
0.000382612
-0.00338074
0.000360353
-0.0034646
0.000336779
-0.00354227
0.000311982
-0.00361347
0.000286057
-0.00367795
0.000259098
-0.00373547
0.000231203
-0.00378583
0.000202468
-0.00382884
0.000172994
-0.00386435
0.00014288
-0.00389221
0.000112227
-0.00391234
8.11382e-05
-0.00392464
4.97173e-05
-0.00392905
1.80696e-05
-0.00392556
-1.36984e-05
-0.00391416
-4.54789e-05
-0.00389487
-7.7163e-05
-0.00386775
-0.00010864
-0.00383287
-0.0001398
-0.00379036
-0.000170529
-0.00374033
-0.000200716
-0.00368297
-0.000230245
-0.00361845
-0.000259002
-0.003547
-0.000286874
-0.00346888
-0.000313744
-0.00338435
-0.000339499
-0.00329372
-0.000364025
-0.00319733
-0.000387209
-0.00309553
-0.000408938
-0.00298871
-0.000429102
-0.00287729
-0.000447594
-0.00276169
-0.000464308
-0.00264239
-0.000479142
-0.00251987
-0.000491996
-0.00239463
-0.000502778
-0.0022672
-0.000511397
-0.00213814
-0.00051777
-0.00200801
-0.000521819
-0.00187738
-0.000523475
-0.00174686
-0.000522677
-0.00161705
-0.000519371
-0.00148855
-0.000513515
-0.00136201
-0.00050508
-0.00123802
-0.000494047
-0.00111721
-0.000480416
-0.00100019
-0.0004642
-0.000887562
-0.000445433
-0.000779905
-0.000424173
-0.000677778
-0.000400501
-0.000581708
-0.00037453
-0.000492183
-0.00034641
-0.000409642
-0.000316332
-0.000334467
-0.000284539
-0.000266967
-0.000251338
-0.000207366
-0.00021711
-0.000155789
-0.000182329
-0.000112244
-0.000147584
-7.66052e-05
-0.000113602
-4.85939e-05
-8.1281e-05
-2.77589e-05
-5.17306e-05
-1.3457e-05
-2.63161e-05
-4.83291e-06
-6.70465e-06
-7.98479e-07
5.07292e-06
6.36417e-06
-2.11504e-06
-3.4853e-06
-9.60678e-06
5.03895e-06
-2.34881e-05
2.49873e-05
-4.458e-05
5.33801e-05
-7.35233e-05
8.79509e-05
-0.000110786
0.000126824
-0.000156669
0.000168451
-0.000211322
0.000211568
-0.000274758
0.000255148
-0.000346865
0.000298359
-0.000427426
0.000340532
-0.000516127
0.00038113
-0.000612581
0.000419729
-0.000716333
0.000455994
-0.000826873
0.000489665
-0.000943649
0.000520545
-0.00106608
0.000548487
-0.00119354
0.000573387
-0.00132541
0.000595178
-0.00146105
0.00061382
-0.0015998
0.0006293
-0.001741
0.000641625
-0.00188402
0.000650821
-0.00202819
0.000656925
-0.00217289
0.000659991
-0.00231748
0.000660081
-0.00246135
0.000657267
-0.00260389
0.000651627
-0.00274453
0.000643247
-0.00288269
0.000632218
-0.00301783
0.000618636
-0.00314943
0.000602601
-0.00327697
0.000584216
-0.00339997
0.000563587
-0.00351798
0.000540823
-0.00363055
0.000516034
-0.00373727
0.000489335
-0.00383776
0.00046084
-0.00393164
0.000430667
-0.0040186
0.000398933
-0.0040983
0.000365759
-0.00417047
0.000331266
-0.00423484
0.000295578
-0.00429119
0.00025882
-0.00433932
0.000221118
-0.00437904
0.000182601
-0.00441021
0.000143397
-0.00443271
0.000103638
-0.00444645
6.34577e-05
-0.00445137
2.29893e-05
-0.00444744
-1.76304e-05
-0.00443465
-5.82639e-05
-0.00441304
-9.87718e-05
-0.00438267
-0.000139013
-0.00434362
-0.000178847
-0.00429602
-0.000218129
-0.00424002
-0.000256715
-0.00417581
-0.000294461
-0.00410359
-0.00033122
-0.00402362
-0.000366846
-0.00393617
-0.000401195
-0.00384155
-0.000434119
-0.0037401
-0.000465474
-0.00363219
-0.000495117
-0.00351822
-0.000522906
-0.00339862
-0.000548701
-0.00327385
-0.000572365
-0.00314439
-0.000593766
-0.00301076
-0.000612773
-0.0028735
-0.000629263
-0.00273316
-0.000643118
-0.00259033
-0.000654224
-0.00244562
-0.000662478
-0.00229966
-0.000667784
-0.00215308
-0.000670055
-0.00200654
-0.000669214
-0.00186071
-0.000665199
-0.00171627
-0.000657959
-0.00157389
-0.000647459
-0.00143425
-0.000633681
-0.00129804
-0.000616626
-0.00116592
-0.000596317
-0.00103856
-0.000572803
-0.00091657
-0.000546159
-0.000800576
-0.000516494
-0.000691151
-0.000483956
-0.000588824
-0.000448736
-0.000494078
-0.000411078
-0.000407329
-0.000371288
-0.000328922
-0.000329745
-0.000259114
-0.000286918
-0.000198064
-0.00024338
-0.000145815
-0.000199833
-0.000102284
-0.000157132
-6.72453e-05
-0.00011632
-4.03155e-05
-7.86604e-05
-2.09449e-05
-4.56867e-05
-8.40596e-06
-1.92436e-05
-1.78865e-06
-1.54438e-06
4.57552e-06
-3.15812e-06
-3.27036e-07
-1.34146e-05
1.52954e-05
-3.15042e-05
4.30768e-05
-5.8042e-05
7.99179e-05
-9.35112e-05
0.00012342
-0.000138256
0.000171569
-0.000192483
0.000222677
-0.000256265
0.00027535
-0.000329553
0.000328436
-0.000412183
0.000380989
-0.000503891
0.00043224
-0.000604324
0.000481563
-0.00071305
0.000528456
-0.000829575
0.000572519
-0.000953348
0.000613438
-0.00108377
0.00065097
-0.00122022
0.000684933
-0.00136203
0.000715196
-0.00150852
0.00074167
-0.001659
0.000764301
-0.00181277
0.000783069
-0.00196912
0.000797976
-0.00212735
0.000809048
-0.00228675
0.000816329
-0.00244664
0.000819879
-0.00260633
0.00081977
-0.00276515
0.000816088
-0.00292245
0.000808927
-0.0030776
0.000798391
-0.00322997
0.000784589
-0.00337897
0.000767637
-0.00352402
0.000747657
-0.00366458
0.000724775
-0.00380012
0.000699121
-0.00393012
0.000670829
-0.00405412
0.000640035
-0.00417167
0.000606879
-0.00428233
0.000571502
-0.00438571
0.000534049
-0.00448144
0.000494666
-0.00456919
0.000453503
-0.00464863
0.000410709
-0.00471949
0.000366436
-0.00478151
0.000320841
-0.00483447
0.000274079
-0.00487818
0.000226309
-0.00491247
0.000177692
-0.00493722
0.00012839
-0.00495233
7.85672e-05
-0.00495774
2.83911e-05
-0.0049534
-2.197e-05
-0.00493931
-7.23456e-05
-0.00491552
-0.000122563
-0.00488209
-0.000172449
-0.00483911
-0.000221828
-0.00478671
-0.000270521
-0.00472508
-0.000318352
-0.0046544
-0.000365141
-0.00457491
-0.000410708
-0.00448688
-0.000454872
-0.00439062
-0.000497455
-0.00428647
-0.000538276
-0.00417478
-0.000577157
-0.00405598
-0.000613922
-0.00393049
-0.000648395
-0.00379879
-0.000680406
-0.00366136
-0.000709787
-0.00351876
-0.000736374
-0.00337152
-0.000760008
-0.00322024
-0.00078054
-0.00306554
-0.000797822
-0.00290804
-0.00081172
-0.00274842
-0.000822106
-0.00258734
-0.000828864
-0.0024255
-0.00083189
-0.00226362
-0.000831093
-0.00210242
-0.000826397
-0.00194264
-0.000817745
-0.001785
-0.000805096
-0.00163025
-0.000788432
-0.00147912
-0.000767759
-0.00133232
-0.00074311
-0.00119058
-0.000714548
-0.00105457
-0.000682171
-0.000924942
-0.000646117
-0.000802329
-0.000606569
-0.000687301
-0.000563764
-0.000580379
-0.000518
-0.000482022
-0.000469645
-0.000392613
-0.000419155
-0.000312449
-0.000367082
-0.000241731
-0.000314097
-0.000180552
-0.000261012
-0.000128882
-0.000208802
-8.65662e-05
-0.000158636
-5.33079e-05
-0.000111919
-2.86697e-05
-7.03249e-05
-1.20701e-05
-3.58431e-05
-2.79162e-06
-1.08229e-05
1.78393e-06
-4.19145e-06
3.8642e-06
-1.72272e-05
2.83313e-05
-3.95791e-05
6.54287e-05
-7.16555e-05
0.000111994
-0.000113772
0.000165536
-0.000166139
0.000223935
-0.000228853
0.000285391
-0.000301899
0.000348396
-0.000385153
0.00041169
-0.000478391
0.000474227
-0.000581293
0.000535142
-0.000693457
0.000593727
-0.000814407
0.000649406
-0.000943603
0.000701715
-0.00108045
0.000750287
-0.00122431
0.000794833
-0.00137452
0.000835135
-0.00153035
0.000871033
-0.0016911
0.000902417
-0.00185602
0.000929219
-0.00202435
0.000951407
-0.00219536
0.000968981
-0.00236828
0.000981965
-0.00254236
0.000990409
-0.00271686
0.00099438
-0.00289105
0.000993962
-0.00306422
0.000989253
-0.00323565
0.000980364
-0.00340468
0.000967416
-0.00357063
0.000950539
-0.00373286
0.000929871
-0.00389076
0.000905556
-0.00404373
0.000877745
-0.0041912
0.000846594
-0.00433264
0.000812261
-0.00446751
0.000774912
-0.00459535
0.000734714
-0.00471568
0.000691837
-0.00482809
0.000646456
-0.00493217
0.000598746
-0.00502755
0.000548887
-0.00511391
0.000497061
-0.00519092
0.000443452
-0.00525833
0.000388247
-0.00531589
0.000331635
-0.00536338
0.000273808
-0.00540065
0.000214959
-0.00542755
0.000155286
-0.00544397
9.49864e-05
-0.00544984
3.42624e-05
-0.00544513
-2.66826e-05
-0.00542983
-8.76426e-05
-0.00540398
-0.00014841
-0.00536766
-0.000208774
-0.00532096
-0.000268523
-0.00526404
-0.000327443
-0.00519707
-0.00038532
-0.00512028
-0.000441937
-0.0050339
-0.000497079
-0.00493825
-0.000550527
-0.00483364
-0.000602065
-0.00472044
-0.000651478
-0.00459904
-0.000698552
-0.00446989
-0.000743073
-0.00433345
-0.000784833
-0.00419023
-0.000823625
-0.00404077
-0.000859249
-0.00388564
-0.000891509
-0.00372543
-0.000920216
-0.00356078
-0.000945189
-0.00339235
-0.000966255
-0.00322081
-0.000983251
-0.00304689
-0.000996028
-0.00287131
-0.00100445
-0.00269481
-0.00100839
-0.00251816
-0.00100774
-0.00234214
-0.00100242
-0.00216753
-0.000992358
-0.00199511
-0.000977512
-0.00182568
-0.000957863
-0.00166002
-0.000933422
-0.0014989
-0.000904233
-0.00134307
-0.000870375
-0.00119327
-0.000831969
-0.00105021
-0.000789183
-0.000914537
-0.000742238
-0.000786884
-0.000691417
-0.000667812
-0.000637071
-0.000557822
-0.000579635
-0.000457341
-0.000519635
-0.000366714
-0.000457708
-0.000286193
-0.000394619
-0.000215928
-0.000331278
-0.000155959
-0.000268771
-0.00010621
-0.000208385
-6.64867e-05
-0.000151642
-3.64755e-05
-0.000100336
-1.57503e-05
-5.65683e-05
-3.78802e-06
-2.27851e-05
-2.00408e-06
-5.20446e-06
9.06873e-06
-2.09987e-05
4.41256e-05
-4.76129e-05
9.20427e-05
-8.52529e-05
0.000149634
-0.000134066
0.00021435
-0.000194121
0.00028399
-0.000265397
0.000356668
-0.000347782
0.000430781
-0.000441069
0.000504977
-0.000544961
0.000578119
-0.000659078
0.000649259
-0.000782961
0.000717611
-0.000916086
0.00078253
-0.00105786
0.000843493
-0.00120766
0.000900079
-0.00136478
0.000951956
-0.00152852
0.000998871
-0.00169812
0.00104063
-0.00187282
0.00107711
-0.00205182
0.00110823
-0.00223435
0.00113393
-0.0024196
0.00115423
-0.00260676
0.00116913
-0.00279505
0.0011787
-0.00298367
0.00118301
-0.00317186
0.00118215
-0.00335884
0.00117624
-0.00354388
0.0011654
-0.00372625
0.00114978
-0.00390523
0.00112953
-0.00408016
0.0011048
-0.00425036
0.00107576
-0.00441522
0.0010426
-0.00457411
0.00100549
-0.00472647
0.000964618
-0.00487174
0.000920182
-0.0050094
0.000872378
-0.00513897
0.000821407
-0.00525999
0.000767474
-0.00537203
0.000710788
-0.00547471
0.00065156
-0.00556765
0.000590005
-0.00565054
0.000526342
-0.00572308
0.000460792
-0.00578503
0.000393578
-0.00583615
0.000324927
-0.00587626
0.00025507
-0.00590521
0.000184238
-0.00592289
0.000112668
-0.00592923
4.05979e-05
-0.00592418
-3.17317e-05
-0.00590774
-0.000104077
-0.00587996
-0.000176191
-0.00584091
-0.000247827
-0.0057907
-0.000318732
-0.00572949
-0.000388655
-0.00565746
-0.000457342
-0.00557486
-0.000524538
-0.00548195
-0.000589986
-0.00537905
-0.000653431
-0.0052665
-0.000714617
-0.00514469
-0.00077329
-0.00501404
-0.000829197
-0.00487503
-0.000882087
-0.00472815
-0.000931715
-0.00457393
-0.000977838
-0.00441296
-0.00102022
-0.00424584
-0.00105863
-0.00407321
-0.00109285
-0.00389574
-0.00112266
-0.00371413
-0.00114787
-0.00352911
-0.00116827
-0.00334143
-0.00118371
-0.00315186
-0.00119401
-0.0029612
-0.00119904
-0.00277027
-0.00119867
-0.00257988
-0.00119281
-0.00239087
-0.00118137
-0.00220407
-0.00116431
-0.00202031
-0.00114161
-0.00184044
-0.00111329
-0.00166527
-0.00107941
-0.0014956
-0.00104005
-0.00133221
-0.000995358
-0.00117585
-0.000945543
-0.00102723
-0.000890858
-0.000887015
-0.000831633
-0.000755814
-0.000768272
-0.000634177
-0.000701273
-0.000522579
-0.000631233
-0.000421419
-0.000558868
-0.000331007
-0.00048503
-0.000251561
-0.000410724
-0.000183198
-0.000337134
-0.000125933
-0.00026565
-7.96812e-05
-0.000197894
-4.42593e-05
-0.000135758
-1.93991e-05
-8.14285e-05
-4.76667e-06
-3.74175e-05
-6.77075e-06
-6.19153e-06
1.52603e-05
-2.47024e-05
6.26364e-05
-5.55419e-05
0.000122882
-9.8724e-05
0.000192817
-0.00015423
0.000269855
-0.000221984
0.000351745
-0.000301846
0.00043653
-0.000393597
0.000522532
-0.000496939
0.00060832
-0.0006115
0.00069268
-0.00073683
0.000774588
-0.00087241
0.00085319
-0.00101766
0.000927779
-0.00117194
0.000997772
-0.00133456
0.0010627
-0.0015048
0.00112219
-0.00168188
0.00117596
-0.00186503
0.00122378
-0.00205342
0.00126551
-0.00224624
0.00130104
-0.00244263
0.00133033
-0.00264177
0.00135336
-0.00284281
0.00137017
-0.0030449
0.00138079
-0.00324723
0.00138533
-0.00344898
0.00138389
-0.00364933
0.00137659
-0.00384752
0.00136358
-0.00404276
0.00134502
-0.00423431
0.00132108
-0.00442146
0.00129195
-0.00460351
0.00125781
-0.00477978
0.00121887
-0.00494965
0.00117535
-0.00511249
0.00112746
-0.00526773
0.00107542
-0.00541482
0.00101947
-0.00555325
0.000959831
-0.00568252
0.000896746
-0.00580219
0.000830459
-0.00591184
0.000761215
-0.0060111
0.000689264
-0.00609962
0.00061486
-0.00617709
0.000538261
-0.00624324
0.000459727
-0.00629784
0.000379522
-0.00634068
0.000297915
-0.00637162
0.000215175
-0.00639053
0.000131577
-0.00639733
4.73995e-05
-0.00639198
-3.70783e-05
-0.00637449
-0.000121572
-0.00634488
-0.000205796
-0.00630325
-0.00028946
-0.00624971
-0.000372273
-0.00618442
-0.000453941
-0.0061076
-0.000534169
-0.00601947
-0.000612661
-0.00592034
-0.000689119
-0.00581052
-0.000763247
-0.0056904
-0.000834746
-0.00556036
-0.000903322
-0.00542088
-0.000968683
-0.00527243
-0.00103054
-0.00511554
-0.0010886
-0.00495079
-0.00114259
-0.00477878
-0.00119223
-0.00460015
-0.00123726
-0.00441557
-0.00127743
-0.00422575
-0.00131248
-0.00403143
-0.00134218
-0.00383338
-0.00136632
-0.0036324
-0.0013847
-0.00342929
-0.00139712
-0.0032249
-0.00140343
-0.00302008
-0.00140349
-0.0028157
-0.00139719
-0.00261265
-0.00138443
-0.00241178
-0.00136517
-0.00221401
-0.00133939
-0.00202019
-0.00130711
-0.00183119
-0.0012684
-0.00164786
-0.00122337
-0.00147103
-0.00117219
-0.0013015
-0.00111508
-0.00114001
-0.00105235
-0.000987279
-0.000984361
-0.00084397
-0.000911581
-0.000710679
-0.000834564
-0.000587939
-0.000753974
-0.000476205
-0.000670602
-0.000375855
-0.00058538
-0.000287179
-0.0004994
-0.00021038
-0.000413934
-0.000145571
-0.000330459
-9.27792e-05
-0.000250685