/*--------------------------------*- C++ -*----------------------------------*\
  =========                 |
  \\      /  F ield         | OpenFOAM: The Open Source CFD Toolbox
   \\    /   O peration     | Website:  https://openfoam.org
    \\  /    A nd           | Version:  11
     \\/     M anipulation  |
\*---------------------------------------------------------------------------*/
FoamFile
{
    format      ascii;
    class       volVectorField;
    location    "9.5";
    object      U;
}
// * * * * * * * * * * * * * * * * * * * * * * * * * * * * * * * * * * * * * //

dimensions      [0 1 -1 0 0 0 0];

internalField   nonuniform List<vector> 
10100
(
(3.76297e-06 -2.32916e-06 0)
(1.488e-05 -6.88814e-06 0)
(3.40067e-05 -8.74899e-06 0)
(5.15147e-05 -7.61915e-06 0)
(6.33854e-05 -5.1366e-06 0)
(6.65694e-05 -2.00287e-06 0)
(5.98476e-05 1.39084e-06 0)
(4.26495e-05 4.83674e-06 0)
(1.48649e-05 8.21765e-06 0)
(-2.33407e-05 1.14616e-05 0)
(-7.16032e-05 1.45362e-05 0)
(-0.000129428 1.74133e-05 0)
(-0.000196261 2.00766e-05 0)
(-0.000271468 2.25261e-05 0)
(-0.000354395 2.47618e-05 0)
(-0.000444366 2.67828e-05 0)
(-0.00054069 2.85871e-05 0)
(-0.000642666 3.01746e-05 0)
(-0.000749605 3.15531e-05 0)
(-0.000860823 3.2723e-05 0)
(-0.000975637 3.36879e-05 0)
(-0.00109339 3.446e-05 0)
(-0.00121342 3.50429e-05 0)
(-0.00133509 3.54375e-05 0)
(-0.0014578 3.56522e-05 0)
(-0.00158094 3.56934e-05 0)
(-0.00170393 3.55667e-05 0)
(-0.00182621 3.52808e-05 0)
(-0.00194724 3.48413e-05 0)
(-0.0020665 3.42532e-05 0)
(-0.0021835 3.3524e-05 0)
(-0.00229776 3.26606e-05 0)
(-0.00240882 3.16684e-05 0)
(-0.00251624 3.05537e-05 0)
(-0.00261962 2.93231e-05 0)
(-0.00271857 2.79823e-05 0)
(-0.00281272 2.65377e-05 0)
(-0.00290171 2.49976e-05 0)
(-0.00298524 2.3369e-05 0)
(-0.00306298 2.16561e-05 0)
(-0.00313467 1.9864e-05 0)
(-0.00320005 1.80002e-05 0)
(-0.00325887 1.60735e-05 0)
(-0.00331094 1.40902e-05 0)
(-0.00335605 1.20546e-05 0)
(-0.00339405 9.97267e-06 0)
(-0.00342478 7.8531e-06 0)
(-0.00344814 5.7046e-06 0)
(-0.00346403 3.53377e-06 0)
(-0.00347237 1.34531e-06 0)
(-0.00347313 -8.55295e-07 0)
(-0.00346628 -3.05931e-06 0)
(-0.00345183 -5.25671e-06 0)
(-0.00342981 -7.43931e-06 0)
(-0.00340028 -9.60106e-06 0)
(-0.00336333 -1.17367e-05 0)
(-0.00331906 -1.38397e-05 0)
(-0.00326761 -1.59006e-05 0)
(-0.00320915 -1.79092e-05 0)
(-0.00314386 -1.98567e-05 0)
(-0.00307199 -2.17358e-05 0)
(-0.00299376 -2.354e-05 0)
(-0.00290947 -2.52623e-05 0)
(-0.00281942 -2.68944e-05 0)
(-0.00272393 -2.84265e-05 0)
(-0.00262337 -2.9849e-05 0)
(-0.00251814 -3.11533e-05 0)
(-0.00240864 -3.23318e-05 0)
(-0.00229533 -3.33774e-05 0)
(-0.00217868 -3.42835e-05 0)
(-0.00205918 -3.50432e-05 0)
(-0.00193736 -3.56487e-05 0)
(-0.00181375 -3.60918e-05 0)
(-0.00168892 -3.63645e-05 0)
(-0.00156346 -3.64599e-05 0)
(-0.001438 -3.63713e-05 0)
(-0.00131315 -3.60932e-05 0)
(-0.00118957 -3.56208e-05 0)
(-0.00106791 -3.49498e-05 0)
(-0.000948858 -3.4076e-05 0)
(-0.000833091 -3.29958e-05 0)
(-0.000721302 -3.17058e-05 0)
(-0.000614188 -3.02027e-05 0)
(-0.000512449 -2.84841e-05 0)
(-0.000416783 -2.65481e-05 0)
(-0.000327881 -2.4395e-05 0)
(-0.00024642 -2.20267e-05 0)
(-0.000173054 -1.9448e-05 0)
(-0.000108402 -1.6667e-05 0)
(-5.30299e-05 -1.36963e-05 0)
(-7.43737e-06 -1.05551e-05 0)
(2.79764e-05 -7.27208e-06 0)
(5.29514e-05 -3.89233e-06 0)
(6.74314e-05 -4.89067e-07 0)
(7.16658e-05 2.81401e-06 0)
(6.63705e-05 5.80455e-06 0)
(5.29521e-05 8.11591e-06 0)
(3.39768e-05 9.09694e-06 0)
(1.45565e-05 7.64683e-06 0)
(2.80048e-06 2.79929e-06 0)
(8.73486e-06 -1.52807e-05 0)
(3.27228e-05 -3.05347e-05 0)
(6.41342e-05 -3.33941e-05 0)
(8.94185e-05 -2.55832e-05 0)
(9.89669e-05 -1.14616e-05 0)
(8.70575e-05 6.29166e-06 0)
(5.03017e-05 2.59392e-05 0)
(-1.31823e-05 4.63395e-05 0)
(-0.000104148 6.67802e-05 0)
(-0.000222511 8.67607e-05 0)
(-0.000367632 0.000105975 0)
(-0.000538479 0.000124194 0)
(-0.000733706 0.000141273 0)
(-0.000951784 0.000157114 0)
(-0.00119104 0.000171659 0)
(-0.0014497 0.000184865 0)
(-0.00172593 0.000196718 0)
(-0.00201787 0.00020721 0)
(-0.00232363 0.000216343 0)
(-0.00264133 0.000224133 0)
(-0.00296911 0.000230595 0)
(-0.00330511 0.000235757 0)
(-0.00364754 0.000239654 0)
(-0.0039946 0.000242313 0)
(-0.00434456 0.000243763 0)
(-0.00469574 0.000244046 0)
(-0.00504649 0.000243202 0)
(-0.00539523 0.000241268 0)
(-0.00574043 0.000238283 0)
(-0.00608061 0.000234288 0)
(-0.00641435 0.000229328 0)
(-0.00674028 0.000223445 0)
(-0.00705711 0.000216678 0)
(-0.00736361 0.00020907 0)
(-0.00765858 0.000200665 0)
(-0.00794091 0.000191507 0)
(-0.00820954 0.000181639 0)
(-0.00846348 0.000171104 0)
(-0.0087018 0.000159946 0)
(-0.00892364 0.000148209 0)
(-0.00912817 0.000135938 0)
(-0.00931468 0.000123178 0)
(-0.00948248 0.000109975 0)
(-0.00963096 9.63729e-05 0)
(-0.00975959 8.2416e-05 0)
(-0.00986789 6.81525e-05 0)
(-0.00995546 5.36321e-05 0)
(-0.010022 3.8903e-05 0)
(-0.0100671 2.40111e-05 0)
(-0.0100907 9.00326e-06 0)
(-0.0100926 -6.07075e-06 0)
(-0.0100729 -2.11576e-05 0)
(-0.0100314 -3.62032e-05 0)
(-0.00996832 -5.11564e-05 0)
(-0.00988381 -6.59685e-05 0)
(-0.00977811 -8.05893e-05 0)
(-0.00965155 -9.49651e-05 0)
(-0.00950453 -0.000109039 0)
(-0.00933753 -0.000122752 0)
(-0.00915111 -0.00013605 0)
(-0.0089459 -0.000148878 0)
(-0.00872263 -0.000161184 0)
(-0.00848209 -0.000172913 0)
(-0.00822517 -0.000184008 0)
(-0.00795282 -0.000194411 0)
(-0.00766608 -0.000204066 0)
(-0.00736606 -0.000212917 0)
(-0.00705396 -0.00022091 0)
(-0.00673104 -0.000227997 0)
(-0.00639865 -0.000234125 0)
(-0.0060582 -0.000239248 0)
(-0.00571117 -0.000243315 0)
(-0.0053591 -0.00024628 0)
(-0.0050036 -0.000248096 0)
(-0.00464633 -0.000248721 0)
(-0.00428903 -0.000248116 0)
(-0.00393347 -0.000246247 0)
(-0.00358145 -0.000243084 0)
(-0.00323484 -0.000238601 0)
(-0.0028955 -0.000232776 0)
(-0.00256535 -0.000225592 0)
(-0.0022463 -0.000217039 0)
(-0.00194027 -0.00020711 0)
(-0.00164917 -0.000195807 0)
(-0.00137488 -0.000183143 0)
(-0.00111926 -0.000169142 0)
(-0.000884076 -0.000153845 0)
(-0.000671024 -0.000137315 0)
(-0.000481659 -0.000119643 0)
(-0.000317365 -0.000100955 0)
(-0.000179287 -8.14255e-05 0)
(-6.82511e-05 -6.13021e-05 0)
(1.53532e-05 -4.09343e-05 0)
(7.17329e-05 -2.08297e-05 0)
(0.000101924 -1.73886e-06 0)
(0.000108109 1.52132e-05 0)
(9.39769e-05 2.83329e-05 0)
(6.52898e-05 3.50658e-05 0)
(3.17376e-05 3.17179e-05 0)
(7.64882e-06 1.45493e-05 0)
(9.3079e-06 -3.45198e-05 0)
(3.43323e-05 -6.30928e-05 0)
(6.29446e-05 -6.17507e-05 0)
(7.77425e-05 -3.85977e-05 0)
(6.73522e-05 -8.49548e-07 0)
(2.45598e-05 4.60531e-05 0)
(-5.53974e-05 9.82029e-05 0)
(-0.000175357 0.000152861 0)
(-0.000336616 0.000208086 0)
(-0.000539328 0.000262535 0)
(-0.000782753 0.000315234 0)
(-0.00106551 0.000365514 0)
(-0.00138576 0.000412892 0)
(-0.00174129 0.000457026 0)
(-0.00212961 0.000497692 0)
(-0.00254811 0.000534736 0)
(-0.002994 0.000568061 0)
(-0.00346443 0.000597631 0)
(-0.0039565 0.000623429 0)
(-0.00446729 0.000645461 0)
(-0.00499391 0.000663777 0)
(-0.00553346 0.000678431 0)
(-0.00608309 0.000689487 0)
(-0.00664001 0.000697026 0)
(-0.00720147 0.000701143 0)
(-0.00776478 0.00070193 0)
(-0.00832735 0.00069949 0)
(-0.00888666 0.00069393 0)
(-0.00944027 0.000685358 0)
(-0.0099858 0.000673891 0)
(-0.010521 0.000659647 0)
(-0.0110437 0.000642742 0)
(-0.0115518 0.000623295 0)
(-0.0120433 0.000601427 0)
(-0.0125163 0.000577262 0)
(-0.0129691 0.000550926 0)
(-0.0133998 0.00052254 0)
(-0.0138071 0.000492229 0)
(-0.0141892 0.00046012 0)
(-0.0145449 0.00042634 0)
(-0.0148728 0.00039102 0)
(-0.0151718 0.000354287 0)
(-0.0154408 0.000316274 0)
(-0.0156788 0.00027711 0)
(-0.0158849 0.000236929 0)
(-0.0160584 0.000195867 0)
(-0.0161987 0.000154063 0)
(-0.0163051 0.000111655 0)
(-0.0163772 6.87801e-05 0)
(-0.0164148 2.55797e-05 0)
(-0.0164177 -1.78012e-05 0)
(-0.0163857 -6.12141e-05 0)
(-0.0163189 -0.000104509 0)
(-0.0162174 -0.000147537 0)
(-0.0160816 -0.000190151 0)
(-0.0159118 -0.000232199 0)
(-0.0157086 -0.000273526 0)
(-0.0154727 -0.000313972 0)
(-0.0152047 -0.000353377 0)
(-0.0149056 -0.000391583 0)
(-0.0145764 -0.00042843 0)
(-0.0142183 -0.000463763 0)
(-0.0138326 -0.000497421 0)
(-0.0134207 -0.000529246 0)
(-0.0129841 -0.000559076 0)
(-0.0125244 -0.000586752 0)
(-0.0120436 -0.000612119 0)
(-0.0115434 -0.000635025 0)
(-0.011026 -0.000655323 0)
(-0.0104934 -0.000672869 0)
(-0.00994792 -0.000687526 0)
(-0.00939191 -0.000699157 0)
(-0.00882784 -0.000707633 0)
(-0.00825826 -0.00071283 0)
(-0.00768582 -0.000714635 0)
(-0.00711325 -0.000712941 0)
(-0.00654335 -0.000707658 0)
(-0.00597899 -0.000698705 0)
(-0.00542308 -0.000686015 0)
(-0.00487858 -0.000669536 0)
(-0.00434848 -0.000649232 0)
(-0.00383577 -0.000625085 0)
(-0.00334343 -0.000597099 0)
(-0.00287441 -0.000565306 0)
(-0.00243162 -0.000529767 0)
(-0.00201785 -0.000490585 0)
(-0.0016358 -0.000447913 0)
(-0.00128797 -0.00040197 0)
(-0.00097665 -0.000353054 0)
(-0.000703807 -0.000301572 0)
(-0.000471021 -0.000248074 0)
(-0.000279346 -0.000193306 0)
(-0.000129149 -0.000138288 0)
(-1.99e-05 -8.44268e-05 0)
(5.01142e-05 -3.36813e-05 0)
(8.41404e-05 1.12097e-05 0)
(8.73029e-05 4.64303e-05 0)
(6.70764e-05 6.67542e-05 0)
(3.52301e-05 6.5308e-05 0)
(9.12395e-06 3.39912e-05 0)
(8.0447e-06 -5.32644e-05 0)
(2.65693e-05 -8.93808e-05 0)
(4.03349e-05 -7.6918e-05 0)
(3.15453e-05 -2.96018e-05 0)
(-1.18037e-05 4.18756e-05 0)
(-9.766e-05 0.000129166 0)
(-0.000231431 0.000225976 0)
(-0.000416496 0.000327663 0)
(-0.000654518 0.000430803 0)
(-0.000945774 0.000532896 0)
(-0.00128949 0.00063211 0)
(-0.00168407 0.000727102 0)
(-0.00212727 0.000816895 0)
(-0.00261637 0.000900784 0)
(-0.00314827 0.000978263 0)
(-0.00371964 0.00104899 0)
(-0.00432691 0.00111275 0)
(-0.0049664 0.00116939 0)
(-0.00563438 0.00121888 0)
(-0.00632701 0.00126119 0)
(-0.00704047 0.00129639 0)
(-0.00777098 0.00132456 0)
(-0.00851476 0.00134581 0)
(-0.0092681 0.00136028 0)
(-0.0100273 0.00136813 0)
(-0.0107889 0.00136953 0)
(-0.0115493 0.00136468 0)
(-0.0123053 0.00135377 0)
(-0.0130534 0.00133702 0)
(-0.0137905 0.00131463 0)
(-0.0145136 0.00128683 0)
(-0.0152198 0.00125385 0)
(-0.0159063 0.00121591 0)
(-0.0165703 0.00117325 0)
(-0.0172093 0.0011261 0)
(-0.0178209 0.00107471 0)
(-0.0184028 0.00101933 0)
(-0.0189528 0.000960176 0)
(-0.019469 0.000897514 0)
(-0.0199493 0.000831589 0)
(-0.0203922 0.000762654 0)
(-0.020796 0.00069096 0)
(-0.0211591 0.000616762 0)
(-0.0214804 0.000540319 0)
(-0.0217586 0.000461894 0)
(-0.0219927 0.000381753 0)
(-0.0221818 0.000300164 0)
(-0.0223253 0.000217396 0)
(-0.0224224 0.000133724 0)
(-0.0224729 4.94243e-05 0)
(-0.0224764 -3.52176e-05 0)
(-0.0224328 -0.000119914 0)
(-0.0223422 -0.000204375 0)
(-0.0222049 -0.00028831 0)
(-0.0220211 -0.000371424 0)
(-0.0217915 -0.000453419 0)
(-0.0215168 -0.000533991 0)
(-0.0211978 -0.000612832 0)
(-0.0208356 -0.000689633 0)
(-0.0204315 -0.000764086 0)
(-0.0199868 -0.000835882 0)
(-0.0195031 -0.000904711 0)
(-0.0189821 -0.000970264 0)
(-0.0184258 -0.00103223 0)
(-0.0178363 -0.0010903 0)
(-0.0172157 -0.00114417 0)
(-0.0165665 -0.00119355 0)
(-0.0158912 -0.00123813 0)
(-0.0151927 -0.00127764 0)
(-0.0144736 -0.00131179 0)
(-0.0137372 -0.00134033 0)
(-0.0129866 -0.00136298 0)
(-0.012225 -0.00137951 0)
(-0.0114559 -0.0013897 0)
(-0.0106828 -0.00139331 0)
(-0.00990935 -0.00139017 0)
(-0.00913931 -0.0013801 0)
(-0.00837647 -0.00136295 0)
(-0.0076247 -0.00133861 0)
(-0.00688792 -0.00130699 0)
(-0.00617006 -0.00126805 0)
(-0.00547506 -0.00122175 0)
(-0.00480682 -0.00116815 0)
(-0.00416922 -0.00110733 0)
(-0.00356599 -0.00103945 0)
(-0.00300076 -0.00096474 0)
(-0.00247697 -0.000883544 0)
(-0.00199778 -0.000796327 0)
(-0.00156606 -0.000703712 0)
(-0.00118423 -0.00060653 0)
(-0.000854174 -0.000505877 0)
(-0.000577107 -0.000403209 0)
(-0.000353357 -0.000300456 0)
(-0.000182162 -0.000200195 0)
(-6.13779e-05 -0.000105876 0)
(1.28519e-05 -2.21207e-05 0)
(4.64008e-05 4.49081e-05 0)
(4.7569e-05 8.71489e-05 0)
(2.88386e-05 9.43114e-05 0)
(8.20844e-06 5.31088e-05 0)
(5.58155e-06 -6.54908e-05 0)
(1.27909e-05 -9.99919e-05 0)
(3.48928e-06 -6.73245e-05 0)
(-3.84243e-05 1.34466e-05 0)
(-0.000124482 0.000128161 0)
(-0.000262709 0.000265669 0)
(-0.00045869 0.000417303 0)
(-0.000715947 0.00057644 0)
(-0.00103624 0.00073809 0)
(-0.00141987 0.000898457 0)
(-0.00186599 0.00105469 0)
(-0.00237278 0.00120464 0)
(-0.00293769 0.00134671 0)
(-0.00355758 0.00147972 0)
(-0.00422885 0.00160281 0)
(-0.00494757 0.00171535 0)
(-0.00570953 0.00181694 0)
(-0.00651036 0.00190731 0)
(-0.00734554 0.00198633 0)
(-0.00821051 0.00205395 0)
(-0.00910064 0.00211021 0)
(-0.0100113 0.00215522 0)
(-0.010938 0.00218914 0)
(-0.0118761 0.00221217 0)
(-0.0128212 0.00222454 0)
(-0.0137689 0.00222652 0)
(-0.0147149 0.00221841 0)
(-0.0156551 0.0022005 0)
(-0.0165854 0.00217314 0)
(-0.017502 0.00213665 0)
(-0.0184011 0.0020914 0)
(-0.0192789 0.00203773 0)
(-0.0201322 0.00197602 0)
(-0.0209575 0.00190665 0)
(-0.0217517 0.00182999 0)
(-0.0225118 0.00174644 0)
(-0.0232349 0.00165638 0)
(-0.0239184 0.00156022 0)
(-0.0245597 0.00145834 0)
(-0.0251565 0.00135116 0)
(-0.0257067 0.00123908 0)
(-0.0262082 0.00112251 0)
(-0.0266593 0.00100188 0)
(-0.0270582 0.000877599 0)
(-0.0274036 0.000750102 0)
(-0.0276942 0.000619818 0)
(-0.0279289 0.000487184 0)
(-0.0281068 0.000352642 0)
(-0.0282271 0.000216639 0)
(-0.0282895 7.96296e-05 0)
(-0.0282934 -5.79252e-05 0)
(-0.0282389 -0.000195559 0)
(-0.0281261 -0.0003328 0)
(-0.027955 -0.000469172 0)
(-0.0277264 -0.000604195 0)
(-0.0274408 -0.000737381 0)
(-0.0270992 -0.000868237 0)
(-0.0267027 -0.000996268 0)
(-0.0262525 -0.00112097 0)
(-0.0257503 -0.00124185 0)
(-0.0251977 -0.0013584 0)
(-0.0245966 -0.00147012 0)
(-0.0239494 -0.00157651 0)
(-0.0232583 -0.00167706 0)
(-0.0225259 -0.00177129 0)
(-0.021755 -0.00185871 0)
(-0.0209485 -0.00193882 0)
(-0.0201098 -0.00201118 0)
(-0.019242 -0.0020753 0)
(-0.0183488 -0.00213076 0)
(-0.0174339 -0.00217712 0)
(-0.0165013 -0.00221398 0)
(-0.0155549 -0.00224094 0)
(-0.0145991 -0.00225766 0)
(-0.013638 -0.00226379 0)
(-0.0126763 -0.00225904 0)
(-0.0117184 -0.00224315 0)
(-0.010769 -0.00221589 0)
(-0.00983294 -0.0021771 0)
(-0.00891485 -0.00212666 0)
(-0.00801954 -0.00206449 0)
(-0.0071518 -0.00199063 0)
(-0.00631634 -0.00190515 0)
(-0.00551778 -0.00180823 0)
(-0.00476064 -0.00170018 0)
(-0.00404922 -0.00158142 0)
(-0.00338758 -0.00145255 0)
(-0.00277946 -0.00131436 0)
(-0.00222819 -0.0011679 0)
(-0.00173656 -0.00101454 0)
(-0.00130672 -0.00085607 0)
(-0.00094004 -0.000694779 0)
(-0.000636861 -0.000533664 0)
(-0.00039634 -0.000376608 0)
(-0.000216157 -0.000228662 0)
(-9.22366e-05 -9.63899e-05 0)
(-1.84704e-05 1.17157e-05 0)
(1.36507e-05 8.48243e-05 0)
(1.62714e-05 0.000109288 0)
(6.00864e-06 6.69064e-05 0)
(2.53599e-06 -6.9417e-05 0)
(-4.50156e-06 -8.96445e-05 0)
(-4.24113e-05 -2.58787e-05 0)
(-0.000124191 9.84486e-05 0)
(-0.000260058 0.000266113 0)
(-0.000457657 0.000463337 0)
(-0.000722324 0.000679208 0)
(-0.00105739 0.000905224 0)
(-0.00146447 0.00113476 0)
(-0.00194378 0.00136269 0)
(-0.00249426 0.00158506 0)
(-0.00311389 0.00179886 0)
(-0.0037998 0.00200176 0)
(-0.00454848 0.00219201 0)
(-0.0053559 0.00236832 0)
(-0.00621761 0.00252973 0)
(-0.00712885 0.0026756 0)
(-0.00808464 0.00280547 0)
(-0.00907984 0.00291909 0)
(-0.0101092 0.00301635 0)
(-0.0111673 0.00309728 0)
(-0.012249 0.00316197 0)
(-0.0133489 0.00321063 0)
(-0.0144617 0.00324352 0)
(-0.0155823 0.00326095 0)
(-0.0167055 0.0032633 0)
(-0.0178264 0.00325096 0)
(-0.0189401 0.00322437 0)
(-0.0200418 0.00318399 0)
(-0.0211271 0.0031303 0)
(-0.0221914 0.00306382 0)
(-0.0232305 0.00298505 0)
(-0.0242404 0.00289452 0)
(-0.025217 0.00279279 0)
(-0.0261568 0.00268041 0)
(-0.027056 0.00255793 0)
(-0.0279115 0.00242593 0)
(-0.02872 0.00228499 0)
(-0.0294786 0.00213569 0)
(-0.0301845 0.00197862 0)
(-0.0308351 0.00181438 0)
(-0.0314282 0.00164357 0)
(-0.0319615 0.00146681 0)
(-0.0324332 0.00128471 0)
(-0.0328414 0.00109791 0)
(-0.0331848 0.000907035 0)
(-0.0334621 0.000712724 0)
(-0.0336721 0.000515631 0)
(-0.0338141 0.000316411 0)
(-0.0338875 0.000115733 0)
(-0.0338918 -8.57293e-05 0)
(-0.033827 -0.000287292 0)
(-0.0336932 -0.000488265 0)
(-0.0334906 -0.000687948 0)
(-0.0332199 -0.000885636 0)
(-0.0328819 -0.00108062 0)
(-0.0324776 -0.00127217 0)
(-0.0320084 -0.00145956 0)
(-0.0314758 -0.00164207 0)
(-0.0308817 -0.00181897 0)
(-0.0302281 -0.00198952 0)
(-0.0295172 -0.00215299 0)
(-0.0287517 -0.00230866 0)
(-0.0279343 -0.00245578 0)
(-0.0270682 -0.00259365 0)
(-0.0261564 -0.00272156 0)
(-0.0252027 -0.00283881 0)
(-0.0242106 -0.00294472 0)
(-0.0231843 -0.00303862 0)
(-0.0221277 -0.00311988 0)
(-0.0210454 -0.00318788 0)
(-0.0199419 -0.00324204 0)
(-0.0188219 -0.00328181 0)
(-0.0176904 -0.00330667 0)
(-0.0165525 -0.00331615 0)
(-0.0154133 -0.00330985 0)
(-0.0142782 -0.00328738 0)
(-0.0131526 -0.00324847 0)
(-0.012042 -0.00319287 0)
(-0.0109519 -0.00312045 0)
(-0.00988788 -0.00303115 0)
(-0.00885537 -0.00292502 0)
(-0.00785983 -0.00280223 0)
(-0.00690659 -0.00266309 0)
(-0.00600078 -0.00250807 0)
(-0.00514731 -0.00233786 0)
(-0.00435079 -0.00215336 0)
(-0.00361545 -0.00195578 0)
(-0.00294502 -0.00174667 0)
(-0.00234265 -0.00152804 0)
(-0.00181074 -0.00130243 0)
(-0.00135084 -0.0010731 0)
(-0.000963427 -0.00084417 0)
(-0.000647717 -0.000620898 0)
(-0.000401462 -0.000409953 0)
(-0.000220692 -0.000219799 0)
(-9.94678e-05 -6.11534e-05 0)
(-2.95536e-05 5.25766e-05 0)
(5.10311e-08 0.000104695 0)
(3.17138e-06 7.29285e-05 0)
(-7.61348e-07 -6.37463e-05 0)
(-2.3702e-05 -5.49024e-05 0)
(-9.3744e-05 5.22606e-05 0)
(-0.000219923 0.000231043 0)
(-0.000410595 0.000461614 0)
(-0.000672661 0.000727913 0)
(-0.00101084 0.001017 0)
(-0.00142802 0.00131858 0)
(-0.0019255 0.00162446 0)
(-0.00250318 0.00192821 0)
(-0.00315973 0.00222475 0)
(-0.00389284 0.00251011 0)
(-0.00469935 0.00278124 0)
(-0.00557537 0.00303574 0)
(-0.00651644 0.00327184 0)
(-0.00751768 0.0034882 0)
(-0.00857384 0.00368386 0)
(-0.00967938 0.00385817 0)
(-0.0108286 0.00401072 0)
(-0.0120156 0.00414131 0)
(-0.0132345 0.00424991 0)
(-0.0144794 0.00433663 0)
(-0.0157442 0.00440168 0)
(-0.0170231 0.0044454 0)
(-0.0183102 0.00446817 0)
(-0.0195998 0.00447047 0)
(-0.0208862 0.00445281 0)
(-0.0221639 0.00441578 0)
(-0.0234276 0.00435998 0)
(-0.0246721 0.00428606 0)
(-0.0258923 0.00419468 0)
(-0.0270834 0.00408655 0)
(-0.0282408 0.00396238 0)
(-0.0293599 0.00382291 0)
(-0.0304367 0.00366888 0)
(-0.0314669 0.00350106 0)
(-0.0324469 0.00332023 0)
(-0.0333729 0.00312718 0)
(-0.0342417 0.00292269 0)
(-0.0350501 0.00270759 0)
(-0.0357951 0.00248268 0)
(-0.0364741 0.00224879 0)
(-0.0370847 0.00200677 0)
(-0.0376246 0.00175746 0)
(-0.0380919 0.00150172 0)
(-0.0384848 0.00124042 0)
(-0.038802 0.00097443 0)
(-0.0390422 0.00070465 0)
(-0.0392045 0.000431978 0)
(-0.0392881 0.000157328 0)
(-0.0392928 -0.000118377 0)
(-0.0392183 -0.000394201 0)
(-0.0390647 -0.000669196 0)
(-0.0388325 -0.000942407 0)
(-0.0385223 -0.00121287 0)
(-0.0381351 -0.0014796 0)
(-0.037672 -0.00174163 0)
(-0.0371346 -0.00199796 0)
(-0.0365247 -0.00224759 0)
(-0.0358443 -0.00248954 0)
(-0.0350957 -0.00272279 0)
(-0.0342817 -0.00294636 0)
(-0.0334052 -0.00315925 0)
(-0.0324692 -0.00336047 0)
(-0.0314773 -0.00354906 0)
(-0.0304333 -0.00372404 0)
(-0.029341 -0.00388448 0)
(-0.0282048 -0.00402945 0)
(-0.0270291 -0.00415806 0)
(-0.0258187 -0.00426945 0)
(-0.0245786 -0.00436279 0)
(-0.0233139 -0.0044373 0)
(-0.0220301 -0.00449224 0)
(-0.0207327 -0.00452693 0)
(-0.0194274 -0.00454075 0)
(-0.0181202 -0.00453315 0)
(-0.016817 -0.00450367 0)
(-0.0155239 -0.00445193 0)
(-0.0142472 -0.00437765 0)
(-0.012993 -0.00428065 0)
(-0.0117675 -0.00416091 0)
(-0.0105768 -0.00401854 0)
(-0.00942711 -0.0038538 0)
(-0.00832426 -0.00366718 0)
(-0.00727398 -0.00345936 0)
(-0.00628173 -0.00323131 0)
(-0.00535259 -0.00298432 0)
(-0.00449124 -0.00272006 0)
(-0.0037018 -0.00244065 0)
(-0.00298776 -0.00214878 0)
(-0.00235181 -0.00184784 0)
(-0.00179574 -0.00154207 0)
(-0.00132027 -0.00123677 0)
(-0.000924845 -0.000938561 0)
(-0.000607494 -0.000655681 0)
(-0.000364626 -0.000398396 0)
(-0.000190793 -0.00017946 0)
(-7.84132e-05 -1.45713e-05 0)
(-1.81958e-05 7.69913e-05 0)
(5.22736e-08 6.98534e-05 0)
(-4.12429e-06 -4.78455e-05 0)
(-4.38095e-05 6.2731e-06 0)
(-0.000148021 0.000170234 0)
(-0.000321481 0.000415052 0)
(-0.000570315 0.000718823 0)
(-0.000900362 0.00106356 0)
(-0.00131554 0.00143457 0)
(-0.00181803 0.00181989 0)
(-0.00240861 0.00220992 0)
(-0.00308674 0.00259694 0)
(-0.00385075 0.00297477 0)
(-0.00469794 0.00333851 0)
(-0.00562477 0.0036843 0)
(-0.00662701 0.00400913 0)
(-0.00769979 0.00431067 0)
(-0.0088378 0.00458716 0)
(-0.0100353 0.00483732 0)
(-0.0112863 0.00506025 0)
(-0.0125846 0.00525536 0)
(-0.0139237 0.00542233 0)
(-0.0152973 0.00556107 0)
(-0.0166987 0.00567167 0)
(-0.0181214 0.00575437 0)
(-0.019559 0.00580954 0)
(-0.0210049 0.00583765 0)
(-0.0224529 0.00583929 0)
(-0.0238967 0.0058151 0)
(-0.0253302 0.0057658 0)
(-0.0267476 0.00569215 0)
(-0.028143 0.00559499 0)
(-0.0295108 0.00547515 0)
(-0.0308458 0.00533354 0)
(-0.0321427 0.00517108 0)
(-0.0333966 0.00498872 0)
(-0.0346028 0.00478741 0)
(-0.0357567 0.00456816 0)
(-0.0368542 0.00433197 0)
(-0.0378912 0.00407985 0)
(-0.0388639 0.00381285 0)
(-0.0397689 0.00353202 0)
(-0.0406029 0.00323842 0)
(-0.0413629 0.00293314 0)
(-0.0420463 0.00261726 0)
(-0.0426505 0.00229189 0)
(-0.0431733 0.00195814 0)
(-0.0436129 0.00161717 0)
(-0.0439677 0.0012701 0)
(-0.0442363 0.000918113 0)
(-0.0444177 0.000562372 0)
(-0.0445111 0.000204074 0)
(-0.0445161 -0.000155577 0)
(-0.0444325 -0.000515361 0)
(-0.0442604 -0.000874042 0)
(-0.0440003 -0.00123037 0)
(-0.043653 -0.0015831 0)
(-0.0432194 -0.00193095 0)
(-0.042701 -0.00227264 0)
(-0.0420994 -0.00260689 0)
(-0.0414167 -0.0029324 0)
(-0.040655 -0.00324789 0)
(-0.0398172 -0.00355204 0)
(-0.038906 -0.00384357 0)
(-0.0379248 -0.00412119 0)
(-0.0368771 -0.00438363 0)
(-0.0357667 -0.00462962 0)
(-0.0345977 -0.00485793 0)
(-0.0333747 -0.00506732 0)
(-0.0321023 -0.00525663 0)
(-0.0307855 -0.00542468 0)
(-0.0294297 -0.00557038 0)
(-0.0280402 -0.00569267 0)
(-0.0266229 -0.00579055 0)
(-0.0251837 -0.00586306 0)
(-0.0237287 -0.00590937 0)
(-0.0222644 -0.00592867 0)
(-0.0207971 -0.00592029 0)
(-0.0193336 -0.00588365 0)
(-0.0178806 -0.00581829 0)
(-0.0164448 -0.00572387 0)
(-0.015033 -0.00560022 0)
(-0.0136521 -0.00544734 0)
(-0.0123088 -0.0052654 0)
(-0.0110098 -0.00505482 0)
(-0.00976144 -0.00481624 0)
(-0.00857007 -0.00455063 0)
(-0.0074416 -0.00425928 0)
(-0.00638157 -0.00394387 0)
(-0.00539508 -0.0036066 0)
(-0.00448665 -0.00325018 0)
(-0.00366011 -0.00287805 0)
(-0.00291851 -0.00249446 0)
(-0.00226396 -0.00210465 0)
(-0.00169751 -0.00171507 0)
(-0.00121899 -0.00133367 0)
(-0.000826894 -0.000970175 0)
(-0.000518228 -0.000636492 0)
(-0.000288291 -0.000347182 0)
(-0.000130434 -0.000119891 0)
(-3.74338e-05 2.40319e-05 0)
(-3.15149e-06 5.70082e-05 0)
(-7.44668e-06 -2.14974e-05 0)
(-6.41804e-05 9.49029e-05 0)
(-0.000203606 0.000329863 0)
(-0.000425975 0.00065286 0)
(-0.000735034 0.00104047 0)
(-0.00113538 0.00147315 0)
(-0.00162989 0.00193466 0)
(-0.00221992 0.00241165 0)
(-0.00290554 0.00289318 0)
(-0.00368568 0.00337036 0)
(-0.00455814 0.00383596 0)
(-0.00551983 0.00428417 0)
(-0.00656679 0.00471034 0)
(-0.00769436 0.00511079 0)
(-0.00889728 0.00548266 0)
(-0.0101698 0.00582375 0)
(-0.0115058 0.00613242 0)
(-0.0128987 0.00640748 0)
(-0.0143419 0.00664818 0)
(-0.0158285 0.00685404 0)
(-0.0173516 0.0070249 0)
(-0.0189039 0.0071608 0)
(-0.0204786 0.00726201 0)
(-0.0220685 0.00732893 0)
(-0.0236666 0.00736213 0)
(-0.0252662 0.00736229 0)
(-0.0268604 0.00733019 0)
(-0.0284426 0.00726669 0)
(-0.0300064 0.00717274 0)
(-0.0315455 0.00704934 0)
(-0.0330538 0.00689754 0)
(-0.0345255 0.00671845 0)
(-0.0359549 0.0065132 0)
(-0.0373367 0.00628299 0)
(-0.0386656 0.00602901 0)
(-0.0399368 0.0057525 0)
(-0.0411456 0.00545471 0)
(-0.0422877 0.00513693 0)
(-0.0433588 0.00480046 0)
(-0.0443553 0.00444661 0)
(-0.0452735 0.00407673 0)
(-0.0461102 0.00369217 0)
(-0.0468623 0.0032943 0)
(-0.0475273 0.00288451 0)
(-0.0481028 0.00246422 0)
(-0.0485865 0.00203485 0)
(-0.0489769 0.00159784 0)
(-0.0492724 0.00115466 0)
(-0.049472 0.000706788 0)
(-0.0495746 0.000255723 0)
(-0.04958 -0.000197018 0)
(-0.0494878 -0.000649901 0)
(-0.0492984 -0.00110137 0)
(-0.049012 -0.00154987 0)
(-0.0486296 -0.00199381 0)
(-0.0481524 -0.0024316 0)
(-0.0475818 -0.00286163 0)
(-0.0469197 -0.00328229 0)
(-0.0461682 -0.00369195 0)
(-0.0453299 -0.004089 0)
(-0.0444077 -0.00447181 0)
(-0.0434047 -0.00483875 0)
(-0.0423245 -0.00518824 0)
(-0.0411711 -0.00551866 0)
(-0.0399485 -0.00582844 0)
(-0.0386613 -0.00611603 0)
(-0.0373144 -0.00637992 0)
(-0.0359129 -0.00661862 0)
(-0.0344622 -0.00683071 0)
(-0.0329682 -0.00701481 0)
(-0.0314367 -0.00716961 0)
(-0.0298741 -0.00729387 0)
(-0.0282868 -0.00738644 0)
(-0.0266815 -0.00744625 0)
(-0.0250652 -0.00747236 0)
(-0.0234448 -0.00746393 0)
(-0.0218276 -0.00742027 0)
(-0.0202209 -0.00734084 0)
(-0.0186319 -0.00722526 0)
(-0.0170682 -0.00707335 0)
(-0.0155369 -0.00688514 0)
(-0.0140455 -0.00666091 0)
(-0.0126011 -0.00640121 0)
(-0.0112106 -0.00610691 0)
(-0.00988083 -0.00577924 0)
(-0.00861815 -0.00541985 0)
(-0.00742857 -0.00503087 0)
(-0.00631759 -0.00461501 0)
(-0.00529015 -0.00417564 0)
(-0.00435046 -0.00371694 0)
(-0.00350197 -0.003244 0)
(-0.00274719 -0.00276308 0)
(-0.00208761 -0.00228174 0)
(-0.00152359 -0.00180917 0)
(-0.00105422 -0.00135646 0)
(-0.000677296 -0.000936979 0)
(-0.000389044 -0.000566854 0)
(-0.000183938 -0.000265324 0)
(-5.70165e-05 -5.53143e-05 0)
(-6.3336e-06 3.41354e-05 0)
(-1.06838e-05 1.52683e-05 0)
(-8.44381e-05 0.00021136 0)
(-0.000259402 0.000531998 0)
(-0.000531446 0.000945791 0)
(-0.000901814 0.00142819 0)
(-0.0013738 0.00195846 0)
(-0.0019491 0.00251909 0)
(-0.00262808 0.00309553 0)
(-0.00341002 0.00367568 0)
(-0.00429317 0.00424954 0)
(-0.00527478 0.00480893 0)
(-0.00635121 0.00534717 0)
(-0.00751805 0.00585884 0)
(-0.0087702 0.00633964 0)
(-0.010102 0.00678613 0)
(-0.0115072 0.00719567 0)
(-0.0129792 0.00756626 0)
(-0.0145112 0.00789644 0)
(-0.0160959 0.00818521 0)
(-0.0177261 0.00843198 0)
(-0.0193943 0.00863647 0)
(-0.0210929 0.0087987 0)
(-0.0228143 0.00891893 0)
(-0.0245512 0.00899762 0)
(-0.0262959 0.00903541 0)
(-0.0280412 0.00903307 0)
(-0.0297798 0.00899154 0)
(-0.0315045 0.00891182 0)
(-0.0332085 0.00879504 0)
(-0.034885 0.0086424 0)
(-0.0365275 0.00845517 0)
(-0.0381297 0.00823466 0)
(-0.0396855 0.00798227 0)
(-0.0411891 0.00769941 0)
(-0.0426349 0.00738755 0)
(-0.0440177 0.00704818 0)
(-0.0453325 0.00668284 0)
(-0.0465744 0.00629309 0)
(-0.0477392 0.0058805 0)
(-0.0488226 0.0054467 0)
(-0.0498208 0.00499331 0)
(-0.0507303 0.00452199 0)
(-0.0515478 0.00403442 0)
(-0.0522706 0.00353231 0)
(-0.0528959 0.00301736 0)
(-0.0534217 0.00249134 0)
(-0.0538459 0.001956 0)
(-0.054167 0.00141314 0)
(-0.0543838 0.000864565 0)
(-0.0544954 0.000312111 0)
(-0.0545012 -0.000242367 0)
(-0.0544012 -0.000796994 0)
(-0.0541953 -0.00134987 0)
(-0.0538842 -0.00189909 0)
(-0.0534688 -0.00244271 0)
(-0.0529503 -0.0029788 0)
(-0.0523304 -0.00350538 0)
(-0.051611 -0.00402049 0)
(-0.0507945 -0.00452216 0)
(-0.0498836 -0.0050084 0)
(-0.0488814 -0.00547724 0)
(-0.0477913 -0.00592671 0)
(-0.0466173 -0.00635485 0)
(-0.0453634 -0.00675972 0)
(-0.0440343 -0.00713941 0)
(-0.0426347 -0.00749204 0)
(-0.0411699 -0.00781576 0)
(-0.0396455 -0.00810879 0)
(-0.0380672 -0.0083694 0)
(-0.0364413 -0.00859592 0)
(-0.0347742 -0.00878677 0)
(-0.0330727 -0.00894047 0)
(-0.0313436 -0.00905563 0)
(-0.0295942 -0.00913098 0)
(-0.027832 -0.00916539 0)
(-0.0260643 -0.00915788 0)
(-0.024299 -0.00910763 0)
(-0.0225439 -0.00901401 0)
(-0.0208067 -0.00887661 0)
(-0.0190956 -0.00869525 0)
(-0.0174181 -0.00847001 0)
(-0.0157823 -0.00820127 0)
(-0.0141957 -0.00788974 0)
(-0.0126658 -0.00753651 0)
(-0.0111998 -0.00714311 0)
(-0.00980447 -0.00671156 0)
(-0.00848638 -0.00624445 0)
(-0.00725143 -0.00574503 0)
(-0.00610495 -0.00521733 0)
(-0.00505163 -0.00466624 0)
(-0.00409534 -0.00409774 0)
(-0.0032391 -0.003519 0)
(-0.00248492 -0.00293866 0)
(-0.00183378 -0.00236705 0)
(-0.00128553 -0.00181649 0)
(-0.00083885 -0.00130164 0)
(-0.000491045 -0.000839926 0)
(-0.000237822 -0.000451853 0)
(-7.65477e-05 -0.000161496 0)
(-9.43909e-06 1.22718e-06 0)
(-1.38053e-05 6.22877e-05 0)
(-0.000104356 0.000355582 0)
(-0.000314735 0.000776866 0)
(-0.00063656 0.00129437 0)
(-0.00106863 0.00188278 0)
(-0.00161284 0.00252047 0)
(-0.00226967 0.00318893 0)
(-0.00303838 0.00387257 0)
(-0.00391737 0.00455828 0)
(-0.00490412 0.00523512 0)
(-0.00599521 0.00589401 0)
(-0.00718645 0.00652746 0)
(-0.00847288 0.00712934 0)
(-0.00984893 0.00769472 0)
(-0.0113084 0.00821964 0)
(-0.0128448 0.00870101 0)
(-0.0144509 0.00913645 0)
(-0.0161195 0.00952423 0)
(-0.0178429 0.00986313 0)
(-0.0196134 0.0101524 0)
(-0.0214231 0.0103917 0)
(-0.023264 0.0105809 0)
(-0.025128 0.0107204 0)
(-0.0270072 0.0108105 0)
(-0.0288937 0.0108522 0)
(-0.0307797 0.0108461 0)
(-0.0326574 0.0107935 0)
(-0.0345194 0.0106954 0)
(-0.0363582 0.0105533 0)
(-0.0381667 0.0103684 0)
(-0.0399379 0.0101422 0)
(-0.0416652 0.00987644 0)
(-0.043342 0.00957262 0)
(-0.0449623 0.00923245 0)
(-0.0465199 0.00885766 0)
(-0.0480094 0.00845005 0)
(-0.0494253 0.00801142 0)
(-0.0507627 0.00754364 0)
(-0.0520167 0.00704859 0)
(-0.053183 0.0065282 0)
(-0.0542575 0.00598442 0)
(-0.0552365 0.00541922 0)
(-0.0561164 0.00483461 0)
(-0.0568943 0.00423263 0)
(-0.0575673 0.00361534 0)
(-0.0581331 0.00298482 0)
(-0.0585897 0.00234319 0)
(-0.0589353 0.00169258 0)
(-0.0591687 0.00103517 0)
(-0.059289 0.000373149 0)
(-0.0592954 -0.00029127 0)
(-0.059188 -0.000955842 0)
(-0.0589668 -0.0016183 0)
(-0.0586324 -0.00227636 0)
(-0.0581857 -0.00292771 0)
(-0.0576282 -0.00357004 0)
(-0.0569615 -0.00420099 0)
(-0.0561877 -0.00481822 0)
(-0.0553094 -0.00541937 0)
(-0.0543296 -0.00600209 0)
(-0.0532514 -0.00656402 0)
(-0.0520785 -0.00710281 0)
(-0.0508151 -0.00761614 0)
(-0.0494656 -0.00810169 0)
(-0.0480349 -0.00855719 0)
(-0.046528 -0.00898041 0)
(-0.0449506 -0.00936917 0)
(-0.0433086 -0.00972134 0)
(-0.0416082 -0.0100349 0)
(-0.039856 -0.0103078 0)
(-0.0380588 -0.0105383 0)
(-0.0362238 -0.0107245 0)
(-0.0343583 -0.0108649 0)