/*--------------------------------*- C++ -*----------------------------------*\
  =========                 |
  \\      /  F ield         | OpenFOAM: The Open Source CFD Toolbox
   \\    /   O peration     | Website:  https://openfoam.org
    \\  /    A nd           | Version:  11
     \\/     M anipulation  |
\*---------------------------------------------------------------------------*/
FoamFile
{
    format      ascii;
    class       volScalarField;
    location    "8";
    object      p;
}
// * * * * * * * * * * * * * * * * * * * * * * * * * * * * * * * * * * * * * //

dimensions      [0 2 -2 0 0 0 0];

internalField   nonuniform List<scalar> 
10100
(
-4.32946e-09
9.05073e-05
-0.000129036
-0.000701328
-0.00157722
-0.00270191
-0.0040204
-0.00547989
-0.00703277
-0.00863662
-0.0102544
-0.0118538
-0.0134062
-0.0148869
-0.0162745
-0.0175504
-0.0186992
-0.0197076
-0.0205643
-0.02126
-0.021787
-0.0221393
-0.0223125
-0.0223032
-0.0221096
-0.0217307
-0.0211664
-0.0204177
-0.0194864
-0.0183751
-0.0170871
-0.0156265
-0.0139983
-0.0122078
-0.0102608
-0.00816384
-0.00592407
-0.00354893
-0.00104638
0.00157527
0.00430742
0.00714125
0.0100676
0.0130769
0.016159
0.0193036
0.0225005
0.025739
0.0290086
0.0322985
0.0355977
0.0388954
0.0421804
0.0454417
0.0486681
0.0518485
0.054972
0.0580277
0.0610049
0.0638928
0.0666811
0.0693594
0.071918
0.0743475
0.0766389
0.0787835
0.0807733
0.0826007
0.0842585
0.0857405
0.0870413
0.0881565
0.0890824
0.0898159
0.090355
0.090699
0.0908479
0.0908036
0.0905688
0.090148
0.0895468
0.0887727
0.0878347
0.0867438
0.0855131
0.0841575
0.0826942
0.0811432
0.0795277
0.077874
0.0762118
0.0745749
0.0730013
0.0715339
0.0702203
0.069112
0.0682616
0.0677198
0.0675285
0.0676363
-9.17995e-05
1.79964e-06
-0.000208779
-0.000717799
-0.00147519
-0.00244241
-0.00357912
-0.0048436
-0.00619621
-0.00760057
-0.00902357
-0.0104357
-0.0118107
-0.0131254
-0.0143596
-0.0154955
-0.0165178
-0.0174138
-0.0181722
-0.0187837
-0.0192406
-0.0195368
-0.0196674
-0.0196291
-0.0194194
-0.0190371
-0.0184819
-0.0177543
-0.0168558
-0.0157883
-0.0145547
-0.0131587
-0.0116047
-0.00989769
-0.00804322
-0.00604737
-0.0039167
-0.00165811
0.000721031
0.00321289
0.00580938
0.00850211
0.0112823
0.014141
0.0170685
0.0200552
0.0230915
0.0261672
0.0292721
0.0323961
0.0355288
0.0386598
0.0417787
0.0448748
0.0479376
0.0509566
0.0539214
0.056822
0.0596479
0.0623891
0.0650359
0.0675786
0.070008
0.0723152
0.0744921
0.0765307
0.0784233
0.0801629
0.0817429
0.0831575
0.0844021
0.0854727
0.0863661
0.0870797
0.0876119
0.0879621
0.0881312
0.0881209
0.0879344
0.0875762
0.0870523
0.0863701
0.0855385
0.0845686
0.0834729
0.0822658
0.0809639
0.0795863
0.0781547
0.0766937
0.0752305
0.0737956
0.0724226
0.0711484
0.0700122
0.0690546
0.068314
0.0678259
0.0676358
0.0677439
0.000125201
0.000215844
7.29629e-06
-0.000468826
-0.00115853
-0.0020299
-0.00305007
-0.0041844
-0.00539903
-0.00666229
-0.00794481
-0.00921967
-0.0104627
-0.0116524
-0.0127698
-0.0137982
-0.0147229
-0.0155315
-0.0162129
-0.0167582
-0.0171598
-0.0174115
-0.0175084
-0.0174469
-0.0172245
-0.0168397
-0.0162919
-0.0155813
-0.0147092
-0.0136772
-0.0124878
-0.0111444
-0.00965095
-0.00801205
-0.00623302
-0.0043196
-0.00227794
-0.000114565
0.00216362
0.00454929
0.00703478
0.00961212
0.0122728
0.0150082
0.0178093
0.0206669
0.0235716
0.026514
0.0294843
0.0324727
0.0354694
0.0384643
0.0414475
0.0444087
0.0473381
0.0502255
0.0530612
0.0558353
0.0585381
0.0611601
0.063692
0.0661246
0.0684491
0.0706574
0.0727416
0.0746943
0.0765084
0.078177
0.0796941
0.0810544
0.0822536
0.0832883
0.0841555
0.0848529
0.0853793
0.0857344
0.0859191
0.0859356
0.085787
0.085478
0.0850144
0.0844036
0.0836547
0.0827781
0.081786
0.0806923
0.0795126
0.078265
0.0769698
0.0756499
0.0743301
0.0730379
0.0718033
0.0706583
0.0696363
0.0687712
0.0680941
0.0676348
0.0674454
0.0675537
0.000697342
0.000730377
0.000491847
1.58691e-05
-0.00064758
-0.00146967
-0.00242183
-0.00347392
-0.00459657
-0.00576192
-0.0069439
-0.00811824
-0.0092628
-0.0103577
-0.0113853
-0.01233
-0.013178
-0.0139173
-0.0145375
-0.0150297
-0.0153867
-0.0156025
-0.0156721
-0.015592
-0.0153595
-0.014973
-0.0144317
-0.0137357
-0.0128859
-0.0118838
-0.0107319
-0.00943315
-0.00799112
-0.00641019
-0.00469533
-0.00285197
-0.000885916
0.00119653
0.00338878
0.00568397
0.00807485
0.0105537
0.0131125
0.0157429
0.0184362
0.0211839
0.0239767
0.0268055
0.0296611
0.0325341
0.0354151
0.0382944
0.0411622
0.044009
0.0468251
0.0496009
0.0523271
0.0549942
0.0575929
0.060114
0.0625487
0.0648884
0.0671245
0.0692495
0.0712558
0.0731364
0.0748843
0.0764932
0.0779575
0.0792722
0.0804334
0.0814379
0.0822829
0.0829665
0.0834875
0.0838461
0.0840433
0.084081
0.0839626
0.0836927
0.083277
0.082723
0.0820393
0.081236
0.0803246
0.0793184
0.0782322
0.0770828
0.0758892
0.0746724
0.073455
0.0722619
0.0711198
0.0700569
0.0691024
0.0682857
0.0676339
0.0671746
0.0669573
0.0670146
0.00157852
0.00149766
0.00119285
0.00068888
2.31781e-05
-0.000778395
-0.00169075
-0.00268803
-0.0037447
-0.00483631
-0.00593986
-0.00703374
-0.00809796
-0.00911434
-0.0100666
-0.0109403
-0.0117225
-0.012402
-0.0129689
-0.013415
-0.0137331
-0.0139173
-0.0139631
-0.0138668
-0.0136257
-0.0132383
-0.0127035
-0.0120214
-0.0111927
-0.0102187
-0.00910156
-0.00784418
-0.00644996
-0.00492301
-0.00326793
-0.00148979
0.000405846
0.00241301
0.00452537
0.00673641
0.00903921
0.0114264
0.0138902
0.0164227
0.0190158
0.021661
0.0243496
0.0270729
0.0298218
0.0325875
0.035361
0.0381328
0.0408935
0.043634
0.0463451
0.0490175
0.0516422
0.0542101
0.0567124
0.0591403
0.0614853
0.063739
0.0658937
0.0679418
0.0698764
0.0716905
0.0733774
0.0749314
0.076347
0.0776198
0.078746
0.0797225
0.0805468
0.0812172
0.0817329
0.0820939
0.0823015
0.0823575
0.0822652
0.0820291
0.081655
0.08115
0.0805224
0.0797818
0.0789391
0.0780066
0.0769984
0.07593
0.0748189
0.0736842
0.0725466
0.0714282
0.0703528
0.0693452
0.0684308
0.0676349
0.0669817
0.0664958
0.0662162
0.0661678
0.002717
0.00248172
0.00208038
0.00152307
0.000829866
2.34782e-05
-0.000874018
-0.00184073
-0.00285471
-0.00389471
-0.00494039
-0.00597264
-0.00697364
-0.00792695
-0.00881768
-0.0096326
-0.0103598
-0.0109889
-0.0115108
-0.0119176
-0.0122024
-0.0123599
-0.0123855
-0.0122756
-0.0120276
-0.01164
-0.0111119
-0.010443
-0.00963396
-0.0086861
-0.0076013
-0.0063822
-0.00503213
-0.00355497
-0.00195504
-0.000237123
0.00159345
0.00353103
0.00556968
0.00770308
0.00992455
0.012227
0.0146032
0.0170454
0.019546
0.0220966
0.0246891
0.0273149
0.0299656
0.0326325
0.0353068
0.0379795
0.0406417
0.0432845
0.045899
0.0484763
0.0510077
0.0534847
0.0558986
0.0582411
0.0605039
0.0626791
0.0647591
0.0667371
0.0686061
0.0703594
0.0719907
0.0734945
0.0748659
0.0761003
0.0771944
0.0781451
0.0789503
0.0796083
0.0801184
0.0804808
0.0806966
0.0807677
0.0806974
0.08049
0.0801511
0.0796875
0.0791069
0.0784186
0.0776326
0.0767606
0.0758154
0.0748115
0.073765
0.072693
0.0716141
0.0705482
0.0695163
0.06854
0.0676413
0.0668418
0.0661628
0.0656262
0.0652552
0.0650612
0.00406083
0.00364482
0.00312419
0.00249218
0.00174972
0.00091617
1.12138e-05
-0.000946763
-0.00193935
-0.00294806
-0.0039551
-0.00494363
-0.00589782
-0.00680299
-0.00764582
-0.00841417
-0.00909721
-0.00968539
-0.0101703
-0.0105447
-0.0108021
-0.0109375
-0.0109465
-0.0108258
-0.0105728
-0.010186
-0.00966452
-0.00900815
-0.00821751
-0.00729375
-0.00623864
-0.00505467
-0.00374502
-0.0023133
-0.000763659
0.000899316
0.00267055
0.00454467
0.00651604
0.00857859
0.0107259
0.0129511
0.0152473
0.0176073
0.0200234
0.0224878
0.0249926
0.0275297
0.030091
0.0326679
0.035252
0.0378346
0.0404072
0.0429613
0.0454881
0.0479792
0.0504261
0.0528207
0.0551546
0.0574198
0.0596083
0.0617126
0.0637255
0.0656401
0.0674499
0.0691484
0.0707297
0.0721884
0.0735198
0.0747198
0.0757848
0.0767121
0.0774997
0.0781459
0.0786502
0.0790129
0.0792348
0.079318
0.0792655
0.0790815
0.0787715
0.0783416
0.0777991
0.0771527
0.0764117
0.075587
0.0746905
0.0737353
0.072736
0.0717082
0.0706684
0.0696344
0.0686246
0.0676578
0.0667527
0.0659278
0.0652019
0.064594
0.0641093
0.0637434
0.00556113
0.00494826
0.00429197
0.00356864
0.00275914
0.00188009
0.000948895
-1.91483e-05
-0.00100853
-0.00200355
-0.00298879
-0.0039494
-0.00487146
-0.00574209
-0.00654932
-0.00728225
-0.00793113
-0.00848723
-0.00894287
-0.00929136
-0.00952692
-0.00964468
-0.0096406
-0.00951157
-0.00925533
-0.00887031
-0.00835567
-0.00771131
-0.00693777
-0.0060362
-0.00500829
-0.00385644
-0.00258365
-0.00119333
0.000310575
0.00192361
0.00364095
0.00545748
0.00736777
0.00936592
0.0114458
0.0136009
0.0158246
0.0181098
0.0204494
0.0228356
0.025261
0.0277177
0.0301978
0.0326932
0.0351957
0.0376969
0.0401885
0.0426624
0.04511
0.0475233
0.0498941
0.0522145
0.0544765
0.0566721
0.058794
0.0608347
0.0627872
0.0646451
0.0664019
0.0680514
0.0695878
0.0710062
0.0723019
0.0734708
0.0745098
0.075416
0.0761874
0.0768225
0.0773209
0.0776827
0.0779089
0.0780012
0.0779627
0.0777973
0.0775101
0.0771068
0.0765941
0.07598
0.0752733
0.074484
0.0736229
0.0727021
0.0717347
0.0707346
0.0697166
0.0686964
0.0676901
0.0667141
0.065784
0.0649153
0.0641249
0.0634294
0.0628147
0.0622607
0.00717413
0.00635589
0.00555288
0.00472553
0.0038351
0.00289567
0.00192276
0.000928961
-7.28196e-05
-0.00106934
-0.00204727
-0.0029938
-0.00389682
-0.00474499
-0.00552773
-0.00623542
-0.00685925
-0.00739134
-0.00782479
-0.00815353
-0.00837232
-0.00847665
-0.00846282
-0.00832796
-0.00807003
-0.00768763
-0.00718005
-0.00654723
-0.00578968
-0.00490854
-0.00390552
-0.00278291
-0.00154355
-0.000190745
0.00127169
0.00283952
0.00450817
0.00627268
0.00812773
0.0100677
0.0120867
0.0141785
0.0163367
0.0185546
0.020825
0.0231408
0.0254946
0.0278788
0.0302859
0.0327079
0.0351369
0.0375649
0.0399838
0.0423857
0.0447623
0.0471059
0.0494085
0.0516626
0.0538603
0.0559939
0.0580562
0.0600402
0.0619391
0.0637465
0.0654561
0.0670621
0.0685588
0.0699414
0.0712053
0.0723467
0.0733624
0.0742495
0.0750062
0.0756311
0.0761234
0.0764834
0.0767121
0.076811
0.0767829
0.0766317
0.0763617
0.0759784
0.0754879
0.0748974
0.0742152
0.0734505
0.0726132
0.071714
0.0707646
0.0697776
0.0687662
0.0677442
0.0667256
0.0657243
0.0647535
0.063826
0.0629572
0.0621613
0.0614057
0.0606547
0.00886216
0.00783494
0.00687849
0.00593787
0.00495563
0.00394392
0.00291669
0.00188405
0.000856619
-0.000154353
-0.00113764
-0.0020823
-0.00297782
-0.00381433
-0.00458263
-0.00527419
-0.00588121
-0.00639669
-0.00681445
-0.00712907
-0.0073358
-0.00743058
-0.00741007
-0.0072717
-0.0070136
-0.00663464
-0.00613425
-0.00551246
-0.00476983
-0.0039075
-0.00292714
-0.00183099
-0.000621815
0.000697195
0.00212237
0.00364962
0.00527451
0.00699229
0.00879782
0.0106856
0.01265
0.0146852
0.0167848
0.0189423
0.0211509
0.0234036
0.0256934
0.0280129
0.0303547
0.0327111
0.0350746
0.0374374
0.0397916
0.0421293
0.0444428
0.0467245
0.0489667
0.0511621
0.0533028
0.0553816
0.0573914
0.0593254
0.061177
0.06294
0.0646082
0.0661759
0.0676377
0.0689888
0.070225
0.0713422
0.0723372
0.0732074
0.0739509
0.0745662
0.0750526
0.0754101
0.0756396
0.0757428
0.075722
0.0755807
0.075323
0.0749536
0.0744781
0.0739034
0.0732371
0.0724874
0.0716631
0.0707739
0.0698305
0.0688438
0.0678258
0.0667884
0.0657438
0.0647036
0.0636791
0.0626807
0.0617224
0.060817
0.0599134
0.0589613
0.0105923
0.00935621
0.00824268
0.00718249
0.00610021
0.00500676
0.00391501
0.00283279
0.00176871
0.000732146
-0.000267506
-0.00122093
-0.00211914
-0.00295361
-0.0037164
-0.00440002
-0.00499766
-0.00550321
-0.0059112
-0.0062168
-0.00641577
-0.00650452
-0.00648013
-0.00634033
-0.00608348
-0.00570869
-0.00521562
-0.00460437
-0.00387554
-0.00303036
-0.00207054
-0.000998194
0.000184004
0.00147284
0.00286474
0.00435587
0.00594189
0.0076181
0.00937951
0.011221
0.013137
0.0151219
0.0171695
0.0192734
0.0214272
0.0236241
0.0258572
0.0281194
0.0304034
0.032702
0.0350078
0.037313
0.0396101
0.0418915
0.0441495
0.0463769
0.0485663
0.0507102
0.0528012
0.0548321
0.0567962
0.0586867
0.0604972
0.0622216
0.0638539
0.0653885
0.0668201
0.0681442
0.0693563
0.0704525
0.0714296
0.072285
0.0730168
0.0736234
0.0741039
0.0744584
0.0746876
0.0747929
0.0747765
0.0746415
0.0743912
0.0740302
0.0735637
0.0729978
0.0723395
0.071596
0.0707752
0.069886
0.0689376
0.0679403
0.0669041
0.0658397
0.0647573
0.063667
0.062578
0.0614989
0.0604428
0.0594211
0.0583654
0.0572115
0.0123369
0.0108937
0.00962167
0.00843787
0.00724967
0.00606721
0.00490266
0.00376206
0.00265217
0.00158061
0.000555233
-0.00041614
-0.00132592
-0.00216684
-0.00293201
-0.00361501
-0.00420997
-0.00471159
-0.0051151
-0.00541626
-0.00561136
-0.0056973
-0.00567151
-0.00553208
-0.00527777
-0.00490784
-0.00442208
-0.00382078
-0.00310472
-0.00227508
-0.00133354
-0.000282335
0.000875861
0.00213802
0.00350069
0.00496003
0.00651177
0.00815138
0.00987411
0.011675
0.0135486
0.0154893
0.0174913
0.0195483
0.0216542
0.0238022
0.0259857
0.0281978
0.0304315
0.0326798
0.0349352
0.0371905
0.039438
0.0416704
0.0438805
0.0460611
0.0482048
0.0503043
0.0523525
0.0543424
0.0562673
0.0581207
0.0598962
0.0615877
0.0631895
0.0646961
0.0661023
0.0674034
0.068595
0.0696734
0.0706353
0.0714783
0.0722
0.0727988
0.0732738
0.0736248
0.0738526
0.0739583
0.0739438
0.0738115
0.0735646
0.0732072
0.0727441
0.0721808
0.0715233
0.0707783
0.0699527
0.0690544
0.0680919
0.0670741
0.0660099
0.0649084
0.0637783
0.0626285
0.0614664
0.0602989
0.0591386
0.0579959
0.0567861
0.0554318
0.014072
0.0124248
0.0109942
0.00968431
0.00838608
0.00710909
0.00586531
0.00465916
0.00349576
0.00238131
0.00132225
0.000325036
-0.00060398
-0.00145866
-0.00223315
-0.00292199
-0.00352019
-0.00402319
-0.00442693
-0.00472774
-0.00492243
-0.00500836
-0.00498345
-0.00484607
-0.00459525
-0.00423064
-0.0037522
-0.00316027
-0.00245572
-0.00163993
-0.000714617
0.000318035
0.00145538
0.00269436
0.00403158
0.00546327
0.00698531
0.00859329
0.0102826
0.0120483
0.0138852
0.0157879
0.0177505
0.0197672
0.0218317
0.0239377
0.0260785
0.0282476
0.0304382
0.0326433
0.0348558
0.0370683
0.0392735
0.0414644
0.0436339
0.0457747
0.0478798
0.0499419
0.0519541
0.0539097
0.0558019
0.0576244
0.0593707
0.061035
0.0626117
0.0640952
0.0654805
0.0667626
0.0679375
0.0690014
0.069951
0.0707836
0.0714968
0.0720889
0.0725588
0.0729064
0.0731321
0.0732366
0.0732216
0.0730891
0.0728421
0.0724842
0.0720196
0.0714532
0.0707904
0.0700369
0.0691991
0.068284
0.0672993
0.0662526
0.0651518
0.0640046
0.0628187
0.0616016
0.0603593
0.0590974
0.0578281
0.0565615
0.055197
0.0536449
0.0157771
0.0139298
0.0123415
0.010904
0.00949294
0.00811746
0.00678936
0.00551178
0.00428852
0.00312455
0.00202506
0.000995277
4.04567e-05
-0.000834278
-0.00162409
-0.00232439
-0.00293103
-0.00344012
-0.00384813
-0.00415213
-0.00434952
-0.00443797
-0.00441574
-0.00428178
-0.00403547
-0.00367651
-0.00320504
-0.0026217
-0.00192754
-0.00112392
-0.000212601
0.000804141
0.00192361
0.00314279
0.00445834
0.00586654
0.00736336
0.00894451
0.0106055
0.0123414
0.0141473
0.0160178
0.0179472
0.0199299
0.0219595
0.02403
0.026135
0.0282681
0.0304226
0.0325916
0.0347681
0.036945
0.0391152
0.0412718
0.0434077
0.0455157
0.047589
0.0496206
0.0516036
0.0535313
0.0553971
0.0571946
0.0589177
0.0605604
0.0621173
0.0635826
0.0649513
0.0662187
0.0673806
0.0684333
0.0693733
0.0701979
0.0709043
0.0714909
0.0719565
0.0723008
0.0725237
0.0726258
0.0726084
0.0724734
0.0722233
0.0718612
0.0713909
0.0708165
0.0701428
0.0693749
0.0685185
0.06758
0.0665659
0.0654831
0.0643384
0.0631383
0.0618898
0.060599
0.059271
0.05791
0.0565282
0.0551356
0.053617
0.0518705
0.0174341
0.015391
0.0136465
0.0120809
0.0105551
0.00907814
0.00766184
0.00630826
0.00502004
0.00380101
0.00265533
0.00158725
0.000601034
-0.000299174
-0.00110955
-0.00182625
-0.0024457
-0.00296484
-0.00338086
-0.00369121
-0.00389374
-0.00398676
-0.003969
-0.00383966
-0.00359835
-0.0032451
-0.00278032
-0.00220478
-0.00151962
-0.000726341
0.000173162
0.00117657
0.00228117
0.00348394
0.00478154
0.00617033
0.00764637
0.00920543
0.0108431
0.0125546
0.0143349
0.016179
0.0180813
0.0200359
0.0220371
0.0240787
0.0261546
0.0282584
0.0303836
0.0325234
0.0346709
0.0368192
0.0389615
0.0410907
0.0431998
0.045282
0.0473304
0.0493382
0.0512985
0.0532047
0.0550502
0.0568288
0.0585344
0.0601611
0.0617032
0.0631551
0.0645118
0.0657686
0.0669214
0.0679662
0.0688996
0.0697183
0.07042
0.0710025
0.0714647
0.0718059
0.0720258
0.0721247
0.0721035
0.071964
0.0717083
0.071339
0.0708591
0.0702724
0.069583
0.0687956
0.0679152
0.0669474
0.065898
0.0647729
0.063578
0.0623192
0.0610023
0.0596327
0.0582144
0.0567507
0.055254
0.0537345
0.0520627
0.0501255
0.0190269
0.0167924
0.0148938
0.0132001
0.0115584
0.00997787
0.00847045
0.00703727
0.00567989
0.00440126
0.00320474
0.00209363
0.00107116
0.000140667
-0.000694588
-0.00143174
-0.00206795
-0.00260065
-0.00302761
-0.00334691
-0.00355689
-0.00365629
-0.00364426
-0.00352035
-0.00328446
-0.00293686
-0.00247821
-0.00190947
-0.00123189
-0.000447108
0.000442846
0.00143555
0.00252826
0.00371798
0.00500138
0.00637485
0.00783447
0.00937609
0.0109953
0.0126876
0.014448
0.0162713
0.0181522
0.020085
0.0220639
0.024083
0.0261363
0.0282174
0.03032
0.0324373
0.0345628
0.0366895
0.0388106
0.0409192
0.0430084
0.0450716
0.0471018
0.0490924
0.0510364
0.0529273
0.0547587
0.0565244
0.0582182
0.0598342
0.0613667
0.0628101
0.0641594
0.0654099
0.0665574
0.0675977
0.0685272
0.0693427
0.0700417
0.0706218
0.0710817
0.0714203
0.0716373
0.0717325
0.0717067
0.0715612
0.0712978
0.0709184
0.0704258
0.0698232
0.0691141
0.0683029
0.0673938
0.0663918
0.0653018
0.0641291
0.0628789
0.0615563
0.0601665
0.0587139
0.0572016
0.0556325
0.0540192
0.0523723
0.0505488
0.0484245
0.0205414
0.0181197
0.0160692
0.0142481
0.0124899
0.0108043
0.00920348
0.00768772
0.00625793
0.00491619
0.00366486
0.00250661
0.00144402
0.00047944
-0.000384624
-0.00114576
-0.00180185
-0.00235099
-0.00279153
-0.00312196
-0.00334117
-0.00344838
-0.00344312
-0.0033252
-0.00309482
-0.0027526
-0.0022994
-0.00173631
-0.00106473
-0.000286496
0.000596187
0.00158083
0.00266471
0.00384481
0.00511776
0.00647994
0.00792747
0.00945629
0.0110621
0.0127402
0.0144859
0.0162941
0.0181594
0.0200763
0.0220392
0.0240421
0.0260791
0.0281441
0.0302306
0.0323323
0.0344424
0.0365541
0.0386608
0.0407556
0.0428317
0.0448825
0.0469012
0.0488809
0.0508151
0.052697
0.0545204
0.056279
0.0579666
0.0595773
0.0611053
0.0625451
0.0638917
0.0651402
0.0662862
0.0673254
0.0682542
0.0690693
0.0697678
0.0703474
0.0708062
0.0711432
0.0713575
0.071449
0.071418
0.0712655
0.0709926
0.070601
0.0700931
0.0694715
0.0687396
0.0679008
0.0669591
0.0659185
0.0647836
0.0635589
0.062249
0.0608586
0.0593918
0.0578527
0.0562437
0.054567
0.052836
0.0510617
0.0490879
0.04678
0.0219655
0.0193602
0.0171601
0.0152124
0.0133376
0.0115459
0.00984997
0.00824948
0.00674447
0.00533652
0.00402738
0.00281877
0.00171256
0.000710661
-0.000185163
-0.000973197
-0.00165192
-0.00221994
-0.00267608
-0.00301941
-0.00324934
-0.00336546
-0.00336758
-0.0032559
-0.00303098
-0.00269365
-0.00224496
-0.00168617
-0.00101893
-0.000245279
0.000632503
0.00161189
0.00269008
0.00386398
0.0051302
0.00648513
0.00792494
0.00944557
0.0110427
0.0127118
0.0144481
0.0162466
0.0181021
0.0200091
0.0219619
0.0239549
0.0259819
0.0280371
0.0301142
0.0322067
0.034308
0.0364115
0.0385104
0.0405981
0.0426678
0.0447128
0.0467264
0.0487018
0.0506324
0.0525115
0.0543329
0.0560902
0.0577773
0.0593881
0.0609169
0.0623582
0.0637067
0.0649574
0.0661059
0.0671478
0.0680791
0.0688966
0.0695972
0.0701781
0.0706376
0.070974
0.0711865
0.0712746
0.0712382
0.0710777
0.0707941
0.0703887
0.0698634
0.0692206
0.0684631
0.0675938
0.0666159
0.0655333
0.0643497
0.0630693
0.0616962
0.0602343
0.0586874
0.0570588
0.0553508
0.053565
0.0517155
0.0498139
0.0476914
0.0452028
0.0232879
0.0205026
0.0181547
0.0160813
0.0140901
0.0121918
0.0103994
0.00871237
0.00713019
0.00565365
0.00428393
0.00302226
0.00186988
0.000828026
-0.000102137
-0.000919476
-0.00162295
-0.00221173
-0.00268517
-0.00304286
-0.00328458
-0.00341025
-0.00342011
-0.0033147
-0.00309489
-0.0027617
-0.00231635
-0.0017604
-0.00109576
-0.00032457
0.000550829
0.00152783
0.00260349
0.00377465
0.00503791
0.00638969
0.00782612
0.00934312
0.0109364
0.0126014
0.0143336
0.016128
0.0179793
0.0198822
0.021831
0.02382
0.0258434
0.0278952
0.0299692
0.032059
0.0341581
0.0362599
0.0383577
0.0404448
0.0425147
0.0445604
0.0465754
0.0485529
0.0504862
0.0523688
0.0541942
0.055956
0.0576482
0.0592647
0.0607996
0.0622473
0.0636024
0.0648599
0.066015
0.0670633
0.0680007
0.0688237
0.0695289
0.0701136
0.0705755
0.070913
0.0711248
0.07121
0.0711681
0.0709994
0.0707043
0.070284
0.06974
0.0690741
0.0682887
0.0673862
0.0663695
0.0652418
0.0640065
0.0626675
0.0612281
0.0596918
0.0580619
0.0563416
0.0545327
0.0526365
0.050668
0.0486392
0.0463692
0.0437027
0.0244984
0.021536
0.0190423
0.0168441
0.0147366
0.0127312
0.0108417
0.00906683
0.00740572
0.00585871
0.00442644
0.00310958
0.00190886
0.000824912
-0.000141597
-0.000990087
-0.00172002
-0.00233107
-0.00282312
-0.00319616
-0.00345032
-0.00358592
-0.00360359
-0.00350421
-0.00328885
-0.00295877
-0.00251548
-0.00196081
-0.00129683
-0.000525806
0.000349837
0.00132736
0.00240371
0.00357566
0.0048398
0.00619251
0.00762985
0.00914775
0.0107419
0.012408
0.0141414
0.015937
0.0177898
0.0196943
0.0216449
0.0236361
0.025662
0.0277166
0.0297939
0.0318875
0.0339909
0.0360975
0.0382007
0.0402939
0.0423703
0.0444233
0.0464461
0.0484321
0.0503745
0.0522667
0.0541021
0.0558744
0.0575775
0.0592052
0.0607516
0.0622108
0.0635774
0.0648461
0.0660121
0.0670709
0.068018
0.0688497
0.0695626
0.0701535
0.0706202
0.0709605
0.0711729
0.0712561
0.0712093
0.0710324
0.0707256
0.0702898
0.069726
0.0690356
0.0682205
0.0672829
0.0662251
0.06505
0.0637607
0.0623604
0.0608521
0.059239
0.0575239
0.05571
0.0537985
0.051791
0.0497029
0.0475471
0.0451305
0.0422881
0.0255876
0.0224508
0.0198127
0.0174904
0.0152669
0.0131543
0.011167
0.00930338
0.0075621
0.00594319
0.00444679
0.00307311
0.00182235
0.000694686
-0.000309734
-0.00119079
-0.00194848
-0.00258296
-0.0030945
-0.00348348
-0.0037504
-0.003896
-0.00392125
-0.0038273
-0.00361548
-0.00328732
-0.00284465
-0.00228953
-0.00162413
-0.000850816
2.78006e-05
0.00100884
0.00208919
0.00326554
0.00453441
0.0058921
0.00733468
0.00885804
0.010458
0.0121302
0.0138699
0.0156722
0.0175319
0.0194438
0.0214022
0.0234015
0.025436
0.0274997
0.0295866
0.0316903
0.0338044
0.0359223
0.0380374
0.0401431
0.0422326
0.0442993
0.0463365
0.0483374
0.0502951
0.052203
0.0540546
0.0558434
0.0575633
0.0592079
0.0607711
0.0622471
0.0636301
0.0649148
0.0660963
0.0671696
0.0681303
0.0689743
0.069698
0.0702981
0.0707719
0.0711172
0.0713318
0.0714142
0.0713633
0.0711788
0.0708607
0.0704091
0.0698249
0.069109
0.068263
0.0672887
0.0661882
0.064964
0.0636187
0.062155
0.0605757
0.0588836
0.0570816
0.0551723
0.0531571
0.0510373
0.048829
0.0465462
0.0439837
0.040967
0.0265465
0.0232374
0.0204563
0.0180106
0.0156715
0.0134516
0.011366
0.00941295
0.0075906
0.00589867
0.00433695
0.00290522
0.00160319
0.000430589
-0.000612883
-0.00152757
-0.00231395
-0.00297258
-0.00350411
-0.00390925
-0.00418896
-0.00434433
-0.00437663
-0.00428725
-0.00407781
-0.00375022
-0.00330657
-0.00274906
-0.00207996
-0.0013018
-0.000417376
0.000570288
0.001658
0.00284239
0.00411987
0.00548667
0.00693885
0.00847231
0.0100829
0.0117661
0.0135174
0.0153317
0.017204
0.0191289
0.0211009
0.0231144
0.0251635
0.0272425
0.0293452
0.0314655
0.0335967
0.0357324
0.0378658
0.0399904
0.0420996
0.0441865
0.0462445
0.0482666
0.0502459
0.0521759
0.0540499
0.0558613
0.0576039
0.0592711
0.0608567
0.0623547
0.0637593
0.0650651
0.0662666
0.0673588
0.0683371
0.0691972
0.0699352
0.0705476
0.0710313
0.0713838
0.0716026
0.0716859
0.0716324
0.0714414
0.0711123
0.0706452
0.0700403
0.0692984
0.0684207
0.0674087
0.0662643
0.0649896
0.0635866
0.0620579
0.0604059
0.0586332
0.0567426
0.0547367
0.0526167
0.0503836
0.0480547
0.0456445
0.0429365
0.0397466
0.0273664
0.0238868
0.0209639
0.0183955
0.015941
0.0136138
0.0114297
0.00938667
0.00748261
0.0057169
0.00408901
0.00259829
0.0012441
2.57358e-05
-0.00105757
-0.00200661
-0.00282224
-0.00350535
-0.00405697
-0.00447823
-0.00477046
-0.00493507
-0.00497355
-0.00488762
-0.00467929
-0.00435077
-0.00390432
-0.00334226
-0.00266701
-0.00188131
-0.00098815
9.3324e-06
0.00110787
0.00230399
0.00359403
0.00497413
0.00644034
0.00798856
0.00961456
0.0113139
0.0130819
0.0149137
0.0168041
0.0187477
0.0207391
0.0227726
0.0248425
0.026943
0.0290679
0.031211
0.0333657
0.0355255
0.0376837
0.0398338
0.0419691
0.0440827
0.0461679
0.0482176
0.0502251
0.0521835
0.0540862
0.0559264
0.0576976
0.0593932
0.0610069
0.0625326
0.0639642
0.0652959
0.0665223
0.0676381
0.0686383
0.0695185
0.0702745
0.0709025
0.0713992
0.0717616
0.071987
0.0720733
0.0720189
0.0718226
0.0714837
0.0710015
0.0703762
0.0696081
0.0686984
0.0676483
0.0664592
0.0651328
0.063671
0.0620759
0.0603498
0.0584952
0.0565149
0.0544112
0.0521852
0.0498379
0.0473875
0.0448497
0.0419963
0.0386336
0.0280393
0.0243904
0.0213266
0.018636
0.0160664
0.0136319
0.0113491
0.00921582
0.00722963
0.00538962
0.00369497
0.00214472
0.00073781
-0.000526887
-0.00165051
-0.00263425
-0.00347928
-0.00418687
-0.00475843
-0.0051955
-0.00549967
-0.0056726
-0.00571615
-0.00563242
-0.00542377
-0.00509259
-0.00464126
-0.00407226
-0.00338829
-0.00259228
-0.00168735
-0.000676734
0.00043619
0.00164784
0.00295444
0.0043521
0.00583682
0.00740448
0.00905079
0.0107713
0.0125613
0.0144159
0.0163299
0.018298
0.0203146
0.0223741
0.0244709
0.026599
0.0287523
0.0309245
0.0331092
0.0352996
0.0374892
0.0396713
0.0418392
0.043986
0.0461048
0.0481888
0.0502308
0.0522241
0.0541618
0.056037
0.057843
0.0595731
0.0612208
0.0627797
0.0642437
0.0656068
0.0668632
0.0680072
0.069034
0.0699385
0.0707165
0.0713639
0.0718769
0.0722522
0.072487
0.0725787
0.0725255
0.0723257
0.0719781
0.0714818
0.0708367
0.0700429
0.0691014
0.0680129
0.0667786
0.0653998
0.0638782
0.0622157
0.0604145
0.0584771
0.0564059
0.0542033
0.0518703
0.0494078
0.0468352
0.0441691
0.0411699
0.0376343
0.0285573
0.02474
0.0215359
0.0187233
0.0160389
0.0134972
0.0111156
0.00889181
0.0068232
0.00490861
0.00314689
0.00153678
7.68339e-05
-0.00123445
-0.00239855
-0.00341696
-0.00429123
-0.00502303
-0.00561413
-0.00606635
-0.00638153
-0.00656166
-0.00660902
-0.00652609
-0.00631542
-0.00597954
-0.00552101
-0.00494259
-0.00424722
-0.00343799
-0.0025181
-0.00149091
-0.000359931
0.000871117
0.00219838
0.00361792
0.0051257
0.00671752
0.00838905
0.0101358
0.011953
0.0138358
0.015779
0.0177772
0.0198249
0.0219165
0.0240462
0.0262081
0.0283961
0.0306039
0.0328249
0.0350524
0.0372799
0.0395006
0.0417077
0.0438943
0.0460535
0.0481782
0.0502615
0.0522962
0.0542753
0.0561918
0.0580388
0.0598095
0.0614972
0.0630954
0.0645975
0.0659973
0.0672889
0.0684664
0.0695245
0.070458
0.0712622
0.0719328
0.0724657
0.0728575
0.0731047
0.0732048
0.0731551
0.0729538
0.0725992
0.0720902
0.0714264
0.0706078
0.0696349
0.0685082
0.0672285
0.0657969
0.0642149
0.0624843
0.0606073
0.058586
0.0564229
0.0541204
0.0516792
0.0491006
0.046405
0.0436099
0.0404642
0.036755
0.0289128
0.0249276
0.0215833
0.0186491
0.0158498
0.0132009
0.0107205
0.00840611
0.00625496
0.00426567
0.00243675
0.000766628
-0.000746439
-0.00210425
-0.00330865
-0.00436145
-0.00526458
-0.00602006
-0.00662994
-0.0070963
-0.00742131
-0.00760739
-0.00765716
-0.00757334
-0.00735863
-0.00701576
-0.00654759
-0.00595714
-0.00524754
-0.00442198
-0.00348379
-0.00243646
-0.00128369
-2.92914e-05
0.00132282
0.00276867
0.00430413
0.00592491
0.00762661
0.0094047
0.0112545
0.013171
0.015149
0.017183
0.0192677
0.0213972
0.023566
0.0257679
0.0279969
0.0302466
0.0325104
0.0347817
0.0370537
0.0393196
0.0415726
0.0438057
0.0460119
0.0481842
0.0503153
0.052398
0.054425
0.0563893
0.0582838
0.0601015
0.0618354
0.0634788
0.0650249
0.0664672
0.0677996
0.0690158
0.0701103
0.0710776
0.0719126
0.0726107
0.0731677
0.0735796
0.0738428
0.0739541
0.0739107
0.0737103
0.0733508
0.0728311
0.0721502
0.071308
0.0703044
0.0691399
0.067815
0.0663306
0.064688
0.0628889
0.0609353
0.0588293
0.0565734
0.0541698
0.0516195
0.0489237
0.0461039
0.0431787
0.0398854
0.0360014
0.0290982
0.0249449
0.0214607
0.0184047
0.0154906
0.0127344
0.0101552
0.00775021
0.00551649
0.00345243
0.00155636
-0.000173682
-0.00173969
-0.00314374
-0.00438802
-0.00547471
-0.00640607
-0.00718438
-0.00781195
-0.00829122
-0.00862477
-0.00881534
-0.00886582
-0.00877907
-0.00855805
-0.00820576
-0.00772538
-0.00712014
-0.00639326
-0.00554807
-0.00458807
-0.00351695
-0.00233854
-0.0010567
0.00032459
0.00180126
0.00336906
0.00502364
0.00676052
0.00857515
0.0104628
0.0124185
0.0144369
0.0165126
0.0186401
0.0208137
0.0230275
0.0252758
0.0275521
0.0298502
0.0321635
0.0344851
0.0368082
0.0391261
0.0414318
0.0437182
0.0459783
0.0482049
0.0503905
0.0525279
0.0546096
0.0566284
0.0585769
0.0604481
0.0622346
0.0639294
0.0655256
0.0670164
0.0683953
0.0696559
0.0707922
0.0717984
0.0726691
0.0733994
0.0739847
0.0744208
0.0747037
0.0748297
0.0747957
0.0745989
0.0742372
0.0737089
0.0730129
0.0721486
0.0711156
0.0699141
0.0685445
0.0670074
0.0653042
0.0634364
0.0614058
0.0592144
0.0568647
0.054359
0.0516984
0.0488843
0.0459391
0.0428826
0.0394402
0.0353795
0.0291056
0.024784
0.0211595
0.0179817
0.0149526
0.0120891
0.00941102
0.00691549
0.00459925
0.00246053
0.000497435
-0.00129223
-0.00291077
-0.00436059
-0.00564415
-0.00676398
-0.00772259
-0.00852258
-0.00916658
-0.00965739
-0.00999797
-0.0101913
-0.0102404
-0.0101485
-0.00991869
-0.00955444
-0.0090591
-0.00843603
-0.00768859
-0.00682031
-0.0058349
-0.00473621
-0.00352814
-0.00221461
-0.000799696
0.000712372
0.00231724
0.0040105
0.00578765
0.0076441
0.00957506
0.0115755
0.01364
0.0157631
0.0179393
0.020163
0.0224282
0.024729
0.0270591
0.0294121
0.0317813
0.0341599
0.036541
0.0389177
0.0412829
0.0436296
0.0459505
0.0482382
0.0504853
0.0526842
0.0548275
0.0569075
0.0589169
0.0608482
0.0626938
0.0644465
0.0660992
0.0676447
0.0690763
0.0703871
0.0715709
0.0726214
0.0735331
0.0743006
0.0749191
0.0753838
0.0756904
0.0758348
0.0758137
0.0756239
0.0752629
0.0747286
0.0740197
0.0731351
0.0720742
0.0708369
0.0694235
0.0678345
0.0660709
0.0641343
0.0620263
0.0597489
0.0573046
0.0546959
0.0519238
0.0489899
0.045918
0.0427285
0.0391351
0.0348955
0.0289274