/*--------------------------------*- C++ -*----------------------------------*\
  =========                 |
  \\      /  F ield         | OpenFOAM: The Open Source CFD Toolbox
   \\    /   O peration     | Website:  https://openfoam.org
    \\  /    A nd           | Version:  11
     \\/     M anipulation  |
\*---------------------------------------------------------------------------*/
FoamFile
{
    format      ascii;
    class       surfaceScalarField;
    location    "8";
    object      phi;
}
// * * * * * * * * * * * * * * * * * * * * * * * * * * * * * * * * * * * * * //

dimensions      [0 3 -1 0 0 0 0];

internalField   nonuniform List<scalar> 
19980
(
6.99543e-07
-6.99544e-07
2.39545e-06
-1.69581e-06
4.25173e-06
-1.85627e-06
5.69736e-06
-1.44566e-06
6.40773e-06
-7.10583e-07
6.20448e-06
2.03326e-07
4.99796e-06
1.20645e-06
2.7559e-06
2.24218e-06
-5.19033e-07
3.27475e-06
-4.80002e-06
4.28101e-06
-1.00456e-05
5.24574e-06
-1.62041e-05
6.15861e-06
-2.32172e-05
7.01303e-06
-3.10214e-05
7.80427e-06
-3.9551e-05
8.52944e-06
-4.87378e-05
9.18689e-06
-5.85137e-05
9.77594e-06
-6.88101e-05
1.02965e-05
-7.95591e-05
1.07491e-05
-9.06935e-05
1.11345e-05
-0.000102147
1.14539e-05
-0.000113856
1.17088e-05
-0.000125757
1.19006e-05
-0.000137788
1.2031e-05
-0.00014989
1.21017e-05
-0.000162004
1.21147e-05
-0.000174076
1.20718e-05
-0.000186051
1.19749e-05
-0.000197877
1.18261e-05
-0.000209505
1.16275e-05
-0.000220886
1.1381e-05
-0.000231975
1.10888e-05
-0.000242728
1.0753e-05
-0.000253103
1.03756e-05
-0.000263062
9.9586e-06
-0.000272566
9.50404e-06
-0.00028158
9.01425e-06
-0.000290072
8.49146e-06
-0.000298009
7.9378e-06
-0.000305365
7.35547e-06
-0.000312112
6.74677e-06
-0.000318226
6.11393e-06
-0.000323685
5.45909e-06
-0.000328469
4.78444e-06
-0.000332562
4.09239e-06
-0.000335947
3.38536e-06
-0.000338613
2.66564e-06
-0.000340548
1.93559e-06
-0.000341746
1.19763e-06
-0.0003422
4.54072e-07
-0.000341907
-2.92761e-07
-0.000340867
-1.04043e-06
-0.00033908
-1.78648e-06
-0.000336552
-2.52832e-06
-0.000333289
-3.26321e-06
-0.0003293
-3.98856e-06
-0.000324598
-4.70195e-06
-0.000319197
-5.4008e-06
-0.000313115
-6.08223e-06
-0.000306372
-6.7434e-06
-0.00029899
-7.38163e-06
-0.000290996
-7.99408e-06
-0.000282418
-8.5778e-06
-0.000273288
-9.13011e-06
-0.00026364
-9.64834e-06
-0.00025351
-1.01296e-05
-0.000242939
-1.0571e-05
-0.000231969
-1.097e-05
-0.000220645
-1.1324e-05
-0.000209015
-1.16302e-05
-0.000197129
-1.18861e-05
-0.000185039
-1.20897e-05
-0.000172801
-1.22388e-05
-0.00016047
-1.2331e-05
-0.000148106
-1.23642e-05
-0.000135769
-1.23364e-05
-0.000123523
-1.22458e-05
-0.000111433
-1.20906e-05
-9.95635e-05
-1.18694e-05
-8.79824e-05
-1.15811e-05
-7.67577e-05
-1.12247e-05
-6.59582e-05
-1.07996e-05
-5.5653e-05
-1.03052e-05
-4.59111e-05
-9.74182e-06
-3.68011e-05
-9.11005e-06
-2.83902e-05
-8.41087e-06
-2.07442e-05
-7.64596e-06
-1.3926e-05
-6.81813e-06
-7.99437e-06
-5.93165e-06
-3.00206e-06
-4.99238e-06
1.00641e-06
-4.00849e-06
3.99799e-06
-2.99158e-06
5.95638e-06
-1.95842e-06
6.89013e-06
-9.3379e-07
6.84528e-06
4.48422e-08
5.92563e-06
9.19685e-07
4.32485e-06
1.60084e-06
2.38109e-06
1.9438e-06
6.70034e-07
1.711e-06
6.70004e-07
1.70814e-06
-2.40751e-06
4.68037e-06
-4.66844e-06
7.51335e-06
-4.6891e-06
9.20297e-06
-3.13504e-06
9.05297e-06
-5.60441e-07
6.61808e-06
2.63807e-06
1.63921e-06
6.1854e-06
-6.00967e-06
9.89115e-06
-1.63599e-05
1.3625e-05
-2.93757e-05
1.72966e-05
-4.49732e-05
2.08431e-05
-6.3035e-05
2.42204e-05
-8.34194e-05
2.73976e-05
-0.000105968
3.03533e-05
-0.000130512
3.30729e-05
-0.000156872
3.55471e-05
-0.000184867
3.77705e-05
-0.000214311
3.97406e-05
-0.000245019
4.14574e-05
-0.000276807
4.29226e-05
-0.000309493
4.41393e-05
-0.000342895
4.51115e-05
-0.000376839
4.58442e-05
-0.000411151
4.63431e-05
-0.000445663
4.6614e-05
-0.000480212
4.66638e-05
-0.00051464
4.64992e-05
-0.000548792
4.61274e-05
-0.000582522
4.55559e-05
-0.000615687
4.47925e-05
-0.00064815
4.38447e-05
-0.000679782
4.27205e-05
-0.000710457
4.1428e-05
-0.000740056
3.99748e-05
-0.000768467
3.8369e-05
-0.000795582
3.66187e-05
-0.0008213
3.47324e-05
-0.000845527
3.27184e-05
-0.000868174
3.05852e-05
-0.00088916
2.83413e-05
-0.000908408
2.59952e-05
-0.00092585
2.35556e-05
-0.000941422
2.10309e-05
-0.000955067
1.843e-05
-0.000966737
1.57618e-05
-0.000976387
1.30356e-05
-0.000983982
1.02602e-05
-0.000989491
7.44466e-06
-0.000992891
4.5984e-06
-0.000994168
1.7307e-06
-0.000993312
-1.14922e-06
-0.00099032
-4.03187e-06
-0.000985199
-6.90745e-06
-0.000977961
-9.76607e-06
-0.000968627
-1.25977e-05
-0.000957223
-1.53921e-05
-0.000943786
-1.81393e-05
-0.000928358
-2.08288e-05
-0.00091099
-2.34504e-05
-0.00089174
-2.59932e-05
-0.000870675
-2.84467e-05
-0.000847869
-3.08e-05
-0.000823404
-3.30426e-05
-0.000797371
-3.51637e-05
-0.000769866
-3.71525e-05
-0.000740997
-3.89987e-05
-0.000710877
-4.06918e-05
-0.000679625
-4.22215e-05
-0.000647371
-4.35779e-05
-0.00061425
-4.47512e-05
-0.000580404
-4.57322e-05
-0.000545982
-4.6512e-05
-0.000511138
-4.7082e-05
-0.000476035
-4.74342e-05
-0.000440839
-4.75608e-05
-0.00040572
-4.74546e-05
-0.000370857
-4.7109e-05
-0.000336429
-4.65183e-05
-0.000302621
-4.56777e-05
-0.000269619
-4.45834e-05
-0.000237611
-4.32324e-05
-0.000206787
-4.16233e-05
-0.000177337
-3.9756e-05
-0.000149446
-3.76323e-05
-0.0001233
-3.52559e-05
-9.9078e-05
-3.26332e-05
-7.69506e-05
-2.97734e-05
-5.70785e-05
-2.66902e-05
-3.96075e-05
-2.34026e-05
-2.46631e-05
-1.99367e-05
-1.23435e-05
-1.63281e-05
-2.70977e-06
-1.26253e-05
4.22776e-06
-8.89596e-06
8.52835e-06
-5.2344e-06
1.03478e-05
-1.77462e-06
9.97551e-06
1.29185e-06
7.88498e-06
3.69127e-06
4.79302e-06
5.0357e-06
1.70932e-06
4.79469e-06
2.37929e-06
1.89428e-06
-4.30178e-06
4.76996e-06
-7.54393e-06
6.8988e-06
-6.81821e-06
7.07059e-06
-3.30702e-06
4.40956e-06
2.10052e-06
-1.68226e-06
8.72987e-06
-1.15786e-05
1.60816e-05
-2.54802e-05
2.37928e-05
-4.34554e-05
3.16004e-05
-6.54744e-05
3.93156e-05
-9.1432e-05
4.68007e-05
-0.000121168
5.39568e-05
-0.000154483
6.07119e-05
-0.000191144
6.70151e-05
-0.000230901
7.28303e-05
-0.000273487
7.81329e-05
-0.000318625
8.29078e-05
-0.00036603
8.71465e-05
-0.000415418
9.08456e-05
-0.000466502
9.40066e-05
-0.000518997
9.66339e-05
-0.00057262
9.87345e-05
-0.000627093
0.000100318
-0.000682145
0.000101395
-0.000737508
0.000101977
-0.000792924
0.000102079
-0.00084814
0.000101715
-0.000902912
0.000100899
-0.000957004
9.96481e-05
-0.00101019
9.79776e-05
-0.00106225
9.59044e-05
-0.00111297
9.34455e-05
-0.00116216
9.0618e-05
-0.00120963
8.74392e-05
-0.00125519
8.39267e-05
-0.00129867
8.00981e-05
-0.0013399
7.59718e-05
-0.00137875
7.15658e-05
-0.00141507
6.68987e-05
-0.00144871
6.1989e-05
-0.00147957
5.68555e-05
-0.00150753
5.1517e-05
-0.0015325
4.59922e-05
-0.00155437
4.03005e-05
-0.00157307
3.44616e-05
-0.00158853
2.84951e-05
-0.00160069
2.24209e-05
-0.0016095
1.6259e-05
-0.00161493
1.00298e-05
-0.00161696
3.75379e-06
-0.00161556
-2.54834e-06
-0.00161073
-8.85549e-06
-0.00160249
-1.51463e-05
-0.00159086
-2.1399e-05
-0.00157587
-2.75917e-05
-0.00155756
-3.3702e-05
-0.00153599
-3.97078e-05
-0.00151123
-4.55863e-05
-0.00148337
-5.13144e-05
-0.00145249
-5.68692e-05
-0.00141871
-6.22275e-05
-0.00138214
-6.73661e-05
-0.00134293
-7.22615e-05
-0.0013012
-7.68906e-05
-0.00125712
-8.12306e-05
-0.00121086
-8.52585e-05
-0.0011626
-8.89516e-05
-0.00111253
-9.22883e-05
-0.00106087
-9.52468e-05
-0.00100781
-9.78063e-05
-0.000953596
-9.99466e-05
-0.000898459
-0.000101649
-0.000842647
-0.000102894
-0.000786416
-0.000103666
-0.00073003
-0.000103947
-0.000673761
-0.000103724
-0.000617888
-0.000102982
-0.000562696
-0.00010171
-0.000508475
-9.9899e-05
-0.000455517
-9.75415e-05
-0.000404117
-9.46329e-05
-0.000354568
-9.11714e-05
-0.000307166
-8.71589e-05
-0.000262197
-8.26012e-05
-0.000219943
-7.75093e-05
-0.000180677
-7.18997e-05
-0.000144654
-6.57963e-05
-0.000112111
-5.92324e-05
-8.32609e-05
-5.22532e-05
-5.82783e-05
-4.49194e-05
-3.72947e-05
-3.73117e-05
-2.03819e-05
-2.95381e-05
-7.53364e-06
-2.17441e-05
1.35801e-06
-1.41261e-05
6.53424e-06
-6.95084e-06
8.40827e-06
-5.821e-07
7.61302e-06
4.48656e-06
5.05158e-06
7.5971e-06
1.94654e-06
7.89967e-06
4.3258e-06
1.51173e-06
-5.81354e-06
3.29365e-06
-9.32572e-06
3.52164e-06
-7.04623e-06
9.04978e-07
-6.89937e-07
-5.5037e-06
8.50918e-06
-1.63705e-05
1.95967e-05
-3.21281e-05
3.18391e-05
-5.30204e-05
4.4685e-05
-7.91408e-05
5.7721e-05
-0.000110463
7.06381e-05
-0.000146869
8.3207e-05
-0.000188169
9.52564e-05
-0.000234117
0.00010666
-0.000284427
0.000117325
-0.000338781
0.000127184
-0.000396839
0.000136191
-0.000458245
0.000144314
-0.000522634
0.000151535
-0.000589632
0.000157843
-0.000658864
0.000163239
-0.000729955
0.000167725
-0.000802533
0.000171312
-0.00087623
0.000174014
-0.000950683
0.000175848
-0.00102554
0.000176832
-0.00110045
0.000176989
-0.00117507
0.000176343
-0.00124909
0.000174918
-0.00132219
0.000172741
-0.00139405
0.000169839
-0.00146438
0.000166241
-0.00153291
0.000161975
-0.00159937
0.000157071
-0.00166348
0.000151558
-0.00172503
0.000145467
-0.00178376
0.000138829
-0.00183946
0.000131675
-0.00189193
0.000124035
-0.00194097
0.000115943
-0.00198642
0.00010743
-0.00202809
9.85287e-05
-0.00206584
8.92717e-05
-0.00209954
7.96919e-05
-0.00212907
6.98229e-05
-0.0021543
5.96984e-05
-0.00217516
4.93527e-05
-0.00219156
3.88204e-05
-0.00220344
2.81364e-05
-0.00221074
1.73361e-05
-0.00221344
6.45534e-06
-0.00221152
-4.46985e-06
-0.00220498
-1.54028e-05
-0.00219382
-2.6306e-05
-0.00217807
-3.71418e-05
-0.00215779
-4.78723e-05
-0.00213304
-5.84587e-05
-0.00210388
-6.88622e-05
-0.00207042
-7.90433e-05
-0.00203278
-8.89627e-05
-0.00199107
-9.85803e-05
-0.00194544
-0.000107856
-0.00189605
-0.00011675
-0.00184309
-0.000125222
-0.00178675
-0.000133232
-0.00172724
-0.000140741
-0.00166479
-0.00014771
-0.00159964
-0.000154099
-0.00153206
-0.000159872
-0.00146231
-0.000164992
-0.0013907
-0.000169422
-0.00131751
-0.000173129
-0.00124308
-0.000176081
-0.00116773
-0.000178244
-0.00109181
-0.000179592
-0.00101566
-0.000180096
-0.000939646
-0.000179733
-0.000864148
-0.00017848
-0.000789539
-0.000176319
-0.000716202
-0.000173236
-0.000644524
-0.000169219
-0.000574894
-0.000164263
-0.000507698
-0.000158367
-0.000443319
-0.000151538
-0.000382133
-0.000143788
-0.000324503
-0.000135139
-0.000270779
-0.000125624
-0.000221287
-0.000115289
-0.000176325
-0.000104194
-0.000136155
-9.2423e-05
-0.000100992
-8.00825e-05
-7.09901e-05
-6.73139e-05
-4.62265e-05
-5.43018e-05
-2.66826e-05
-4.12882e-05
-1.22178e-05
-2.8591e-05
-2.53985e-06
-1.66288e-05
2.83099e-06
-5.95285e-06
4.6035e-06
2.71402e-06
3.76103e-06
8.43947e-06
1.61977e-06
1.00409e-05
5.94555e-06
8.04087e-07
-6.61777e-06
8.00851e-07
-9.3224e-06
-1.74205e-06
-4.50343e-06
-8.08864e-06
5.6566e-06
-1.91804e-05
1.9601e-05
-3.5691e-05
3.61072e-05
-5.80675e-05
5.42157e-05
-8.65668e-05
7.31842e-05
-0.000121288
9.24423e-05
-0.000162202
0.000111553
-0.000209177
0.000130181
-0.000261995
0.000148075
-0.000320376
0.000165041
-0.000383987
0.000180936
-0.000452457
0.000195654
-0.000525385
0.000209119
-0.000602347
0.000221277
-0.000682908
0.000232096
-0.00076662
0.000241555
-0.000853029
0.000249649
-0.000941684
0.00025638
-0.00103213
0.000261759
-0.00112392
0.000265805
-0.00121661
0.000268539
-0.00130977
0.000269991
-0.00140297
0.00027019
-0.0014958
0.000269171
-0.00158785
0.000266971
-0.00167874
0.000263629
-0.00176809
0.000259185
-0.00185553
0.000253682
-0.00194072
0.000247162
-0.00202331
0.000239669
-0.00210301
0.00023125
-0.00217949
0.00022195
-0.00225247
0.000211815
-0.00232169
0.000200893
-0.00238689
0.000189231
-0.00244782
0.000176878
-0.00250428
0.000163884
-0.00255604
0.000150297
-0.00260294
0.000136167
-0.00264479
0.000121545
-0.00268145
0.000106482
-0.00271278
9.10298e-05
-0.00273867
7.52403e-05
-0.00275902
5.91664e-05
-0.00277374
4.28619e-05
-0.00278279
2.63807e-05
-0.00278611
9.7776e-06
-0.00278369
-6.89186e-06
-0.00277552
-2.35715e-05
-0.00276162
-4.02044e-05
-0.00274203
-5.6733e-05
-0.0027168
-7.30989e-05
-0.00268602
-8.92434e-05
-0.00264977
-0.000105107
-0.00260819
-0.00012063
-0.0025614
-0.000135752
-0.00250957
-0.000150412
-0.00245287
-0.000164549
-0.00239152
-0.000178104
-0.00232573
-0.000191014
-0.00225574
-0.00020322
-0.00218182
-0.000214662
-0.00210424
-0.000225281
-0.00202332
-0.000235019
-0.00193938
-0.000243819
-0.00185274
-0.000251625
-0.00176378
-0.000258384
-0.00167287
-0.000264045
-0.00158039
-0.000268558
-0.00148676
-0.000271877
-0.00139239
-0.00027396
-0.00129772
-0.000274766
-0.0012032
-0.000274259
-0.00110927
-0.000272409
-0.0010164
-0.000269189
-0.000925053
-0.000264579
-0.000835706
-0.000258566
-0.000748826
-0.000251143
-0.000664881
-0.000242313
-0.000584331
-0.000232087
-0.000507628
-0.000220491
-0.000435206
-0.000207561
-0.000367479
-0.000193351
-0.000304833
-0.000177935
-0.000247617
-0.00016141
-0.000196134
-0.000143906
-0.000150631
-0.000125585
-0.000111283
-0.000106662
-7.81757e-05
-8.74092e-05
-5.12876e-05
-6.81764e-05
-3.04653e-05
-4.94133e-05
-1.53972e-05
-3.16969e-05
-5.58219e-06
-1.57679e-05
-2.95088e-07
-2.57318e-06
1.45294e-06
6.69133e-06
9.67394e-07
1.05264e-05
6.91294e-06
-8.31585e-08
-6.53451e-06
-2.31958e-06
-7.08604e-06
-8.2361e-06
1.41302e-06
-1.89894e-05
1.641e-05
-3.54564e-05
3.6068e-05
-5.82718e-05
5.89227e-05
-8.78599e-05
8.38037e-05
-0.000124463
0.000109787
-0.000168168
0.000136147
-0.00021893
0.000162315
-0.000276598
0.000187849
-0.000340928
0.000212405
-0.000411606
0.000235719
-0.00048826
0.00025759
-0.000570471
0.000277865
-0.000657786
0.000296434
-0.000749725
0.000313216
-0.000845789
0.00032816
-0.000945466
0.000341232
-0.00104824
0.000352419
-0.00115358
0.00036172
-0.00126096
0.000369146
-0.00136988
0.000374718
-0.0014798
0.000378465
-0.00159023
0.000380423
-0.00170068
0.000380633
-0.00181065
0.000379141
-0.00191967
0.000375996
-0.0020273
0.000371252
-0.00213307
0.000364963
-0.00223658
0.000357188
-0.00233741
0.000347987
-0.00243516
0.00033742
-0.00252946
0.000325551
-0.00261995
0.000312444
-0.0027063
0.000298164
-0.00278819
0.000282778
-0.00286531
0.000266351
-0.00293738
0.000248953
-0.00300415
0.000230652
-0.00306537
0.000211517
-0.00312082
0.000191619
-0.0031703
0.000171029
-0.00321364
0.000149819
-0.00325067
0.000128061
-0.00328126
0.00010583
-0.00330529
8.31999e-05
-0.00332268
6.02459e-05
-0.00333334
3.70446e-05
-0.00333724
1.36734e-05
-0.00333434
-9.78969e-06
-0.00332465
-3.32653e-05
-0.00330818
-5.66732e-05
-0.00328498
-7.99324e-05
-0.00325512
-0.000102961
-0.00321868
-0.000125676
-0.0031758
-0.000147993
-0.0031266
-0.00016983
-0.00307125
-0.0001911
-0.00300994
-0.00021172
-0.00294289
-0.000231604
-0.00287032
-0.000250667
-0.00279251
-0.000268823
-0.00270974
-0.00028599
-0.00262232
-0.000302083
-0.00253059
-0.00031702
-0.00243489
-0.00033072
-0.0023356
-0.000343104
-0.00223313
-0.000354095
-0.00212789
-0.000363619
-0.00202033
-0.000371605
-0.00191091
-0.000377985
-0.00180009
-0.000382695
-0.00168837
-0.000385677
-0.00157626
-0.000386876
-0.00146428
-0.000386244
-0.00135295
-0.00038374
-0.00124281
-0.000379329
-0.0011344
-0.000372987
-0.00102827
-0.000364696
-0.00092496
-0.000354452
-0.000825012
-0.000342262
-0.000728953
-0.000328146
-0.000637301
-0.000312143
-0.000550551
-0.00029431
-0.000469174
-0.000274728
-0.000393607
-0.000253502
-0.000324243
-0.000230774
-0.000261424
-0.000206725
-0.000205425
-0.000181584
-0.000156444
-0.000155644
-0.000114582
-0.000129271
-7.98274e-05
-0.000102931
-5.20335e-05
-7.72071e-05
-3.08969e-05
-5.28335e-05
-1.59317e-05
-3.07331e-05
-6.44211e-06
-1.20628e-05
-1.49228e-06
1.74145e-06
1.31909e-07
8.90209e-06
7.04485e-06
-1.063e-06
-5.4716e-06
-5.80351e-06
-2.34536e-06
-1.54894e-05
1.10988e-05
-3.11171e-05
3.20376e-05
-5.34546e-05
5.84055e-05
-8.30619e-05
8.85299e-05
-0.00012031
0.000121052
-0.000165405
0.000154881
-0.0002184
0.000189143
-0.000279226
0.000223141
-0.000347702
0.000256325
-0.000423556
0.000288259
-0.000506438
0.000318602
-0.00059594
0.000347091
-0.000691599
0.000373524
-0.000792915
0.00039775
-0.000899359
0.00041966
-0.00101038
0.000439176
-0.0011254
0.000456252
-0.00124384
0.000470863
-0.00136512
0.000483003
-0.00148866
0.000492682
-0.00161386
0.000499923
-0.00174016
0.000504761
-0.00186698
0.000507239
-0.00199375
0.000507409
-0.00211994
0.000505329
-0.00224501
0.000501063
-0.00236843
0.000494678
-0.00248972
0.000486247
-0.00260837
0.000475845
-0.00272394
0.000463551
-0.00283596
0.000449444
-0.00294402
0.000433608
-0.0030477
0.000416127
-0.00314662
0.000397087
-0.00324042
0.000376576
-0.00332875
0.000354682
-0.0034113
0.000331497
-0.00348776
0.000307111
-0.00355786
0.000281616
-0.00362134
0.000255107
-0.00367799
0.000227677
-0.0037276
0.000199424
-0.00376998
0.000170443
-0.00380498
0.000140832
-0.00383247
0.000110692
-0.00385235
8.0123e-05
-0.00386453
4.92262e-05
-0.00386896
1.81049e-05
-0.00386562
-1.31365e-05
-0.00385449
-4.43926e-05
-0.00383561
-7.55565e-05
-0.00380902
-0.00010652
-0.00377481
-0.000137175
-0.00373307
-0.00016741
-0.00368395
-0.000197115
-0.0036276
-0.000226177
-0.00356422
-0.000254486
-0.00349401
-0.000281927
-0.00341723
-0.000308389
-0.00333413
-0.000333758
-0.00324504
-0.000357922
-0.00315026
-0.00038077
-0.00305015
-0.000402192
-0.00294509
-0.000422079
-0.00283548
-0.000440324
-0.00272176
-0.000456824
-0.00260438
-0.000471477
-0.00248381
-0.000484187
-0.00236056
-0.000494859
-0.00223514
-0.000503405
-0.00210809
-0.000509744
-0.00197997
-0.000513797
-0.00185135
-0.000515496
-0.00172282
-0.000514779
-0.00159496
-0.000511593
-0.00146839
-0.000505898
-0.00134372
-0.00049766
-0.00122155
-0.000486864
-0.0011025
-0.000473505
-0.000987165
-0.000457597
-0.000876138
-0.000439173
-0.000769995
-0.000418287
-0.000669285
-0.00039502
-0.000574531
-0.000369482
-0.000486215
-0.000341818
-0.000404772
-0.000312217
-0.00033058
-0.000280918
-0.000263944
-0.00024822
-0.00020509
-0.000214498
-0.000154142
-0.000180219
-0.000111112
-0.000145961
-7.58785e-05
-0.000112441
-4.81699e-05
-8.05421e-05
-2.75448e-05
-5.13582e-05
-1.33727e-05
-2.62349e-05
-4.81422e-06
-6.817e-06
-8.00506e-07
4.88829e-06
6.24434e-06
-2.08277e-06
-3.38872e-06
-9.47707e-06
5.04892e-06
-2.31741e-05
2.47959e-05
-4.3981e-05
5.28447e-05
-7.25274e-05
8.69516e-05
-0.000109271
0.000125274
-0.000154508
0.000166289
-0.000208383
0.000208756
-0.000270906
0.000251666
-0.000341966
0.000294201
-0.000421346
0.000335705
-0.000508738
0.000375651
-0.000603758
0.000413622
-0.000705956
0.000449289
-0.000814832
0.000482399
-0.00092984
0.000512758
-0.0010504
0.000540223
-0.00117592
0.000564692
-0.00130576
0.000586099
-0.00143931
0.000604407
-0.00157591
0.000619604
-0.00171492
0.000631697
-0.00185571
0.00064071
-0.00199764
0.000646684
-0.00214007
0.00064967
-0.00228239
0.00064973
-0.00242399
0.000646934
-0.00256429
0.000641362
-0.00270271
0.000633096
-0.00283869
0.000622228
-0.00297169
0.000608851
-0.00310121
0.000593063
-0.00322673
0.000574967
-0.00334779
0.000554666
-0.00346393
0.000532268
-0.00357473
0.000507882
-0.00367977
0.000481619
-0.00377868
0.000453593
-0.0038711
0.000423918
-0.0039567
0.00039271
-0.00403517
0.000360087
-0.00410623
0.00032617
-0.00416964
0.000291079
-0.00422515
0.000254936
-0.00427257
0.000217865
-0.00431173
0.000179992
-0.00434248
0.000141444
-0.00436471
0.00010235
-0.00437832
6.2839e-05
-0.00438326
2.30434e-05
-0.00437949
-1.69034e-05
-0.00436702
-5.68666e-05
-0.00434587
-9.67096e-05
-0.00431609
-0.000136295
-0.00427778
-0.000175483
-0.00423106
-0.000214133
-0.00417607
-0.000252104
-0.004113
-0.000289253
-0.00404204
-0.000325438
-0.00396346
-0.000360514
-0.00387751
-0.000394339
-0.0037845
-0.000426769
-0.00368476
-0.000457661
-0.00357865
-0.000486875
-0.00346657
-0.00051427
-0.00334894
-0.00053971
-0.00322621
-0.000563058
-0.00309885
-0.000584184
-0.00296737
-0.00060296
-0.00283229
-0.000619263
-0.00269417
-0.000632976
-0.00255359
-0.000643989
-0.00241114
-0.000652196
-0.00226743
-0.000657504
-0.0021231
-0.000659826
-0.00197879
-0.000659087
-0.00183516
-0.000655222
-0.00169288
-0.000648182
-0.00155261
-0.000637929
-0.00141503
-0.000624447
-0.0012808
-0.000607734
-0.00115058
-0.000587812
-0.00102503
-0.000564727
-0.000904761
-0.000538553
-0.000790384
-0.000509397
-0.000682464
-0.000477402
-0.000581527
-0.000442755
-0.000488049
-0.000405695
-0.000402444
-0.000366523
-0.000325053
-0.000325611
-0.000256133
-0.000283418
-0.000195843
-0.00024051
-0.000144228
-0.000197576
-0.000101211
-0.000155459
-6.65695e-05
-0.000115183
-3.99319e-05
-7.79957e-05
-2.07594e-05
-4.54075e-05
-8.33864e-06
-1.92378e-05
-1.77695e-06
-1.67343e-06
4.46738e-06
-3.11089e-06
-2.77928e-07
-1.32267e-05
1.51646e-05
-3.10668e-05
4.2636e-05
-5.72348e-05
7.90127e-05
-9.22048e-05
0.000121922
-0.000136314
0.000169383
-0.000189764
0.000219739
-0.000252626
0.000271618
-0.000324848
0.000323888
-0.000406268
0.000375621
-0.000496623
0.000426061
-0.000595566
0.000474593
-0.00070267
0.000520726
-0.000817446
0.000564066
-0.000939352
0.000604305
-0.0010678
0.000641206
-0.00120217
0.000674592
-0.00134181
0.000704332
-0.00148605
0.000730342
-0.00163422
0.000752571
-0.00178561
0.000770996
-0.00193954
0.000785623
-0.0020953
0.000796477
-0.00225222
0.000803603
-0.00240961
0.000807059
-0.0025668
0.000806918
-0.00272313
0.000803264
-0.00287796
0.00079619
-0.00303066
0.000785799
-0.00318063
0.000772198
-0.00332728
0.000755502
-0.00347005
0.000735831
-0.00360839
0.00071331
-0.00374179
0.000688065
-0.00386975
0.000660228
-0.0039918
0.000629934
-0.0041075
0.00059732
-0.00421643
0.000562525
-0.00431821
0.000525691
-0.00441246
0.000486961
-0.00449885
0.000446483
-0.00457708
0.000404402
-0.00464688
0.00036087
-0.00470798
0.000316037
-0.00476017
0.000270058
-0.00480326
0.000223087
-0.0048371
0.000175283
-0.00486156
0.000126804
-0.00487653
7.7811e-05
-0.00488195
2.84684e-05
-0.0048778
-2.1059e-05
-0.00486406
-7.06044e-05
-0.00484077
-0.000119999
-0.00480799
-0.000169071
-0.00476583
-0.00021765
-0.0047144
-0.000265561
-0.00465387
-0.000312629
-0.00458445
-0.000358679
-0.00450635
-0.000403534
-0.00441985
-0.000447017
-0.00432524
-0.000488951
-0.00422285
-0.000529159
-0.00411304
-0.000567466
-0.00399622
-0.000603699
-0.0038728
-0.000637684
-0.00374326
-0.000669254
-0.00360808
-0.000698242
-0.00346777
-0.000724487
-0.0033229
-0.000747834
-0.00317403
-0.000768131
-0.00302177
-0.000785237
-0.00286674
-0.000799015
-0.0027096
-0.000809341
-0.002551
-0.000816099
-0.00239165
-0.000819184
-0.00223223
-0.000818507
-0.00207346
-0.000813993
-0.00191606
-0.000805581
-0.00176075
-0.000793233
-0.00160827
-0.000776927
-0.00145934
-0.00075667
-0.00131466
-0.000732491
-0.00117493
-0.000704452
-0.00104084
-0.000672647
-0.000913022
-0.000637211
-0.0007921
-0.000598324
-0.00067864
-0.000556215
-0.000573157
-0.000511178
-0.000476105
-0.000463574
-0.000387865
-0.000413851
-0.000308733
-0.000362551
-0.000238908
-0.000310334
-0.000178486
-0.000257998
-0.000127441
-0.000206503
-8.56233e-05
-0.000157001
-5.27442e-05
-0.000110875
-2.83765e-05
-6.97753e-05
-1.19513e-05
-3.56631e-05
-2.7655e-06
-1.08592e-05
1.70186e-06
-4.1291e-06
3.85121e-06
-1.69807e-05
2.80162e-05
-3.90168e-05
6.46719e-05
-7.06372e-05
0.000110633
-0.000112151
0.000163436
-0.000163764
0.000220996
-0.000225569
0.000281545
-0.000297551
0.0003436
-0.000379587
0.000405923
-0.000471451
0.000467486
-0.00057283
0.00052744
-0.000683325
0.000585089
-0.000802467
0.000639867
-0.000929723
0.000691321
-0.00106451
0.000739089
-0.00120619
0.00078289
-0.00135411
0.000822509
-0.00150756
0.00085779
-0.00166585
0.000888627
-0.00182823
0.000914953
-0.00199397
0.000936739
-0.00216233
0.000953983
-0.00233257
0.000966714
-0.00250395
0.000974978
-0.00267573
0.000978842
-0.0028472
0.000978391
-0.00301766
0.000973721
-0.00318641
0.000964943
-0.00335279
0.000952174
-0.00351613
0.000935545
-0.00367582
0.000915189
-0.00383124
0.000891251
-0.00398181
0.000863878
-0.00412697
0.000833223
-0.00426619
0.000799444
-0.00439895
0.000762702
-0.00452479
0.00072316
-0.00464326
0.000680989
-0.00475392
0.000636357
-0.0048564
0.000589438
-0.00495033
0.000540408
-0.00503537
0.000489446
-0.00511123
0.000436733
-0.00517765
0.000382451
-0.00523437
0.000326785
-0.00528121
0.000269924
-0.00531799
0.000212059
-0.00534456
0.00015338
-0.00536084
9.4084e-05
-0.00536673
3.43674e-05
-0.00536222
-2.55701e-05
-0.0053473
-8.55268e-05
-0.005322
-0.000145299
-0.00528639
-0.00020468
-0.00524058
-0.000263463
-0.0051847
-0.000321437
-0.00511894
-0.000378393
-0.0050435
-0.000434117
-0.00495864
-0.000488398
-0.00486463
-0.000541022
-0.00476181
-0.000591776
-0.00465052
-0.000640448
-0.00453116
-0.000686827
-0.00440415
-0.000730704
-0.00426996
-0.000771873
-0.00412909
-0.000810131
-0.00398205
-0.000845279
-0.00382941
-0.000877125
-0.00367176
-0.000905481
-0.00350973
-0.000930169
-0.00334394
-0.000951018
-0.00317509
-0.000967868
-0.00300387
-0.000980568
-0.00283098
-0.000988982
-0.00265718
-0.000992989
-0.0024832
-0.000992482
-0.00230982
-0.000987373
-0.00213781
-0.000977595
-0.00196794
-0.000963104
-0.00180099
-0.00094388
-0.00163772
-0.000919931
-0.00147892
-0.000891299
-0.00132531
-0.000858061
-0.00117762
-0.000820334
-0.00103655
-0.000778281
-0.000902756
-0.00073212
-0.000776846
-0.000682125
-0.000659381
-0.000628643
-0.000550856
-0.000572099
-0.000451697
-0.00051301
-0.000362246
-0.000452002
-0.000282753
-0.000389827
-0.00021337
-0.000327381
-0.00015414
-0.000265733
-0.000104992
-0.000206149
-6.57377e-05
-0.000150129
-3.60717e-05
-9.94413e-05
-1.55786e-05
-5.61562e-05
-3.74724e-06
-2.26905e-05
-2.04539e-06
-5.12688e-06
8.9781e-06
-2.06942e-05
4.35836e-05
-4.69264e-05
9.09041e-05
-8.40243e-05
0.000147731
-0.000132131
0.000211542
-0.000191314
0.000280178
-0.000261551
0.000351782
-0.000342729
0.000424778
-0.000434644
0.000497838
-0.000537002
0.000569844
-0.000649427
0.000639864
-0.000771466
0.000707128
-0.000902601
0.000771002
-0.00104225
0.000830972
-0.00118979
0.000886625
-0.00134454
0.000937638
-0.00150579
0.000983761
-0.00167281
0.00102481
-0.00184484
0.00106066
-0.00202111
0.00109122
-0.00220083
0.00111646
-0.00238322
0.00113638
-0.0025675
0.00115099
-0.00275287
0.00116035
-0.00293857
0.00116454
-0.00312384
0.00116365
-0.00330791
0.0011578
-0.00349007
0.0011471
-0.00366959
0.0011317
-0.00384578
0.00111174
-0.00401798
0.00108738
-0.00418553
0.0010588
-0.0043478
0.00102616
-0.00450422
0.000989639
-0.0046542
0.000949427
-0.00479721
0.000905713
-0.00493274
0.00085869
-0.00506031
0.000808556
-0.00517947
0.000755513
-0.0052898
0.000699766
-0.00539091
0.000641522
-0.00548245
0.000580992
-0.00556411
0.000518391
-0.0056356
0.000453935
-0.00569665
0.000387843
-0.00574707
0.000320338
-0.00578665
0.000251646
-0.00581527
0.000181993
-0.0058328
0.000111612
-0.00583916
4.07353e-05
-0.00583433
-3.04009e-05
-0.0058183
-0.000101558
-0.00579111
-0.000172493
-0.00575282
-0.000242965
-0.00570356
-0.000312725
-0.00564347
-0.000381528
-0.00557274
-0.000449124
-0.00549159
-0.000515262
-0.0054003
-0.000579691
-0.00529916
-0.000642159
-0.00518852
-0.000702415
-0.00506876
-0.00076021
-0.0049403
-0.000815293
-0.00480358
-0.00086742
-0.00465911
-0.000916346
-0.0045074
-0.000961834
-0.00434903
-0.00100365
-0.00418459
-0.00104157
-0.0040147
-0.00107537
-0.00384003
-0.00110484
-0.00366126
-0.00112979
-0.00347911
-0.00115002
-0.00329433
-0.00116536
-0.00310766
-0.00117565
-0.0029199
-0.00118075
-0.00273184
-0.00118054
-0.0025443
-0.00117492
-0.00235808
-0.00116381
-0.00217403
-0.00114716
-0.00199295
-0.00112495
-0.00181568
-0.0010972
-0.00164302
-0.00106396
-0.00147575
-0.00102532
-0.00131466
-0.000981426
-0.00116048
-0.000932464
-0.00101391
-0.000878691
-0.000875604
-0.000820428
-0.000746175
-0.000758073
-0.000626161
-0.000692113
-0.000516036
-0.000623135
-0.000416194
-0.000551844
-0.000326946
-0.000479075
-0.000248508
-0.000405819
-0.000180999
-0.000333242
-0.000124439
-0.00026271
-7.87458e-05
-0.000195822
-4.37445e-05
-0.000134443
-1.91746e-05
-8.07262e-05
-4.71133e-06
-3.71537e-05
-6.75671e-06
-6.09894e-06
1.50769e-05
-2.43408e-05
6.18255e-05
-5.47334e-05
0.000121297
-9.72888e-05
0.000190286
-0.000151987
0.00026624
-0.000218753
0.000346944
-0.000297445
0.000430475
-0.000387849
0.000515182
-0.00048967
0.000599659
-0.000602539
0.000682712
-0.000726011
0.000763337
-0.000859576
0.000840692
-0.00100266
0.000914084
-0.00115463
0.000982942
-0.00131481
0.00104681
-0.00148248
0.00110531
-0.0016569
0.00115817
-0.00183727
0.00120518
-0.0020228
0.00124619
-0.00221268
0.0012811
-0.00240607
0.00130986
-0.00260216
0.00133246
-0.00280011
0.00134894
-0.0029991
0.00135934
-0.00319831
0.00136375
-0.00339694
0.00136228
-0.0035942
0.00135506
-0.00378932
0.00134221
-0.00398153
0.00132391
-0.00417012
0.00130032
-0.00435436
0.00127163
-0.00453359
0.00123802
-0.00470713
0.0011997
-0.00487436
0.00115687
-0.00503469
0.00110975
-0.00518753
0.00105856
-0.00533236
0.00100352
-0.00546866
0.000944856
-0.00559596
0.000882812
-0.00571381
0.000817621
-0.00582182
0.000749525
-0.0059196
0.00067877
-0.00600681
0.000605605
-0.00608316
0.000530282
-0.00614837
0.000453057
-0.00620222
0.000374188
-0.00624451
0.000293938
-0.00627509
0.000212573
-0.00629384
0.000130361
-0.00630068
4.75736e-05
-0.00629557
-3.55136e-05
-0.0062785
-0.000118623
-0.00624952
-0.000201473
-0.00620871
-0.000283781
-0.00615617
-0.00036526
-0.00609208
-0.000445623
-0.00601662
-0.00052458
-0.00593004
-0.00060184
-0.00583262
-0.00067711
-0.00572468
-0.000750099
-0.00560659
-0.000820515
-0.00547873
-0.000888067
-0.00534155
-0.000952467
-0.00519554
-0.00101343
-0.00504122
-0.00107067
-0.00487913
-0.00112392
-0.00470988
-0.0011729
-0.00453409
-0.00121736
-0.00435242
-0.00125703
-0.00416558
-0.00129168
-0.00397428
-0.00132108
-0.00377929
-0.00134501
-0.00358138
-0.00136326
-0.00338136
-0.00137567
-0.00318006
-0.00138206
-0.0029783
-0.00138229
-0.00277696
-0.00137626
-0.00257689
-0.00136388
-0.00237896
-0.00134509
-0.00218405
-0.00131987
-0.00199302
-0.00128824
-0.00180671
-0.00125027
-0.00162597
-0.00120606
-0.00145162
-0.00115578
-0.00128443
-0.00109965
-0.00112516
-0.00103796
-0.000974515
-0.000971078
-0.000833137
-0.00089945
-0.000701625
-0.000823624
-0.000580506
-0.000744255
-0.000470232
-0.000662117
-0.000371179
-0.000578129
-0.000283635
-0.000493363
-0.000207804
-0.000409072
-0.000143802
-0.000326712
-9.16596e-05
-0.000247964
-5.13319e-05
-0.00017477