/*--------------------------------*- C++ -*----------------------------------*\
  =========                 |
  \\      /  F ield         | OpenFOAM: The Open Source CFD Toolbox
   \\    /   O peration     | Website:  https://openfoam.org
    \\  /    A nd           | Version:  11
     \\/     M anipulation  |
\*---------------------------------------------------------------------------*/
FoamFile
{
    format      ascii;
    class       volVectorField;
    location    "8";
    object      U;
}
// * * * * * * * * * * * * * * * * * * * * * * * * * * * * * * * * * * * * * //

dimensions      [0 1 -1 0 0 0 0];

internalField   nonuniform List<vector> 
10100
(
(3.00903e-06 -2.98488e-06 0)
(1.48138e-05 -7.61448e-06 0)
(3.35235e-05 -8.73072e-06 0)
(5.10197e-05 -7.47135e-06 0)
(6.23789e-05 -4.97256e-06 0)
(6.52256e-05 -1.86974e-06 0)
(5.83357e-05 1.47307e-06 0)
(4.11474e-05 4.86274e-06 0)
(1.35465e-05 8.18344e-06 0)
(-2.42966e-05 1.13704e-05 0)
(-7.20285e-05 1.43907e-05 0)
(-0.000129168 1.72212e-05 0)
(-0.000195163 1.98472e-05 0)
(-0.000269396 2.22637e-05 0)
(-0.000351217 2.4461e-05 0)
(-0.000439958 2.64408e-05 0)
(-0.000534931 2.8209e-05 0)
(-0.000635454 2.97631e-05 0)
(-0.000740843 3.11087e-05 0)
(-0.000850416 3.22532e-05 0)
(-0.000963514 3.31976e-05 0)
(-0.00107948 3.39483e-05 0)
(-0.00119768 3.45136e-05 0)
(-0.00131748 3.48973e-05 0)
(-0.00143829 3.51047e-05 0)
(-0.00155951 3.51431e-05 0)
(-0.00168057 3.50179e-05 0)
(-0.00180093 3.4733e-05 0)
(-0.00192006 3.42965e-05 0)
(-0.00203745 3.37169e-05 0)
(-0.0021526 3.30001e-05 0)
(-0.00226506 3.21524e-05 0)
(-0.00237438 3.11799e-05 0)
(-0.00248012 3.00865e-05 0)
(-0.00258188 2.88763e-05 0)
(-0.00267928 2.75554e-05 0)
(-0.00277196 2.6132e-05 0)
(-0.00285956 2.46149e-05 0)
(-0.00294178 2.30098e-05 0)
(-0.00301832 2.13222e-05 0)
(-0.00308889 1.95591e-05 0)
(-0.00315325 1.77257e-05 0)
(-0.00321117 1.58279e-05 0)
(-0.00326243 1.38725e-05 0)
(-0.00330685 1.18664e-05 0)
(-0.00334428 9.81789e-06 0)
(-0.00337456 7.73489e-06 0)
(-0.00339759 5.62234e-06 0)
(-0.00341327 3.48676e-06 0)
(-0.00342154 1.33551e-06 0)
(-0.00342235 -8.26253e-07 0)
(-0.00341568 -2.9921e-06 0)
(-0.00340154 -5.15353e-06 0)
(-0.00337995 -7.30308e-06 0)
(-0.00335098 -9.43344e-06 0)
(-0.00331469 -1.15365e-05 0)
(-0.00327121 -1.36061e-05 0)
(-0.00322065 -1.56361e-05 0)
(-0.00316319 -1.76175e-05 0)
(-0.00309901 -1.95405e-05 0)
(-0.00302833 -2.13977e-05 0)
(-0.00295138 -2.31821e-05 0)
(-0.00286845 -2.48846e-05 0)
(-0.00277983 -2.64964e-05 0)
(-0.00268585 -2.80092e-05 0)
(-0.00258687 -2.94141e-05 0)
(-0.00248326 -3.0703e-05 0)
(-0.00237545 -3.18696e-05 0)
(-0.00226387 -3.29063e-05 0)
(-0.00214898 -3.38037e-05 0)
(-0.00203128 -3.45537e-05 0)
(-0.00191127 -3.51506e-05 0)
(-0.00178949 -3.55883e-05 0)
(-0.0016665 -3.58598e-05 0)
(-0.00154288 -3.59585e-05 0)
(-0.00141923 -3.58786e-05 0)
(-0.00129617 -3.56132e-05 0)
(-0.00117433 -3.5155e-05 0)
(-0.00105437 -3.44991e-05 0)
(-0.000936957 -3.36425e-05 0)
(-0.000822765 -3.25814e-05 0)
(-0.000712481 -3.1311e-05 0)
(-0.000606794 -2.98282e-05 0)
(-0.000506395 -2.81323e-05 0)
(-0.000411976 -2.62232e-05 0)
(-0.000324218 -2.41006e-05 0)
(-0.000243787 -2.1765e-05 0)
(-0.000171328 -1.92208e-05 0)
(-0.000107455 -1.64767e-05 0)
(-5.273e-05 -1.35456e-05 0)
(-7.64756e-06 -1.0445e-05 0)
(2.73949e-05 -7.20257e-06 0)
(5.21364e-05 -3.86231e-06 0)
(6.65153e-05 -4.97398e-07 0)
(7.07721e-05 2.76942e-06 0)
(6.56071e-05 5.72951e-06 0)
(5.24002e-05 8.02254e-06 0)
(3.36755e-05 9.00712e-06 0)
(1.44629e-05 7.59487e-06 0)
(2.80068e-06 2.80194e-06 0)
(7.73319e-06 -1.48356e-05 0)
(3.11449e-05 -3.09528e-05 0)
(6.23926e-05 -3.28735e-05 0)
(8.72487e-05 -2.49117e-05 0)
(9.63288e-05 -1.08925e-05 0)
(8.42258e-05 6.62277e-06 0)
(4.76143e-05 2.5971e-05 0)
(-1.53259e-05 4.60517e-05 0)
(-0.000105322 6.61595e-05 0)
(-0.000222291 8.58179e-05 0)
(-0.000365592 0.000104715 0)
(-0.0005342 0.000122633 0)
(-0.000726789 0.000139434 0)
(-0.000941852 0.000155012 0)
(-0.00117774 0.000169308 0)
(-0.00143269 0.000182281 0)
(-0.00170491 0.000193915 0)
(-0.00199256 0.000204205 0)
(-0.00229377 0.000213158 0)
(-0.00260671 0.000220788 0)
(-0.00292952 0.000227116 0)
(-0.0032604 0.000232168 0)
(-0.00359756 0.000235974 0)
(-0.00393925 0.000238563 0)
(-0.00428378 0.000239973 0)
(-0.00462949 0.000240238 0)
(-0.00497475 0.000239394 0)
(-0.00531802 0.000237479 0)
(-0.00565779 0.000234534 0)
(-0.00599261 0.000230599 0)
(-0.00632108 0.000225716 0)
(-0.00664187 0.000219925 0)
(-0.00695371 0.000213269 0)
(-0.00725537 0.000205788 0)
(-0.00754569 0.00019752 0)
(-0.00782357 0.000188508 0)
(-0.00808798 0.000178796 0)
(-0.00833793 0.000168427 0)
(-0.00857251 0.000157447 0)
(-0.00879087 0.000145897 0)
(-0.00899222 0.000133824 0)
(-0.00917584 0.000121271 0)
(-0.00934105 0.00010828 0)
(-0.00948727 9.48968e-05 0)
(-0.00961396 8.11685e-05 0)
(-0.00972066 6.71414e-05 0)
(-0.00980696 5.2862e-05 0)
(-0.00987254 3.83783e-05 0)
(-0.00991714 2.37363e-05 0)
(-0.00994056 8.98283e-06 0)
(-0.00994267 -5.83406e-06 0)
(-0.00992343 -2.06669e-05 0)
(-0.00988284 -3.54672e-05 0)
(-0.00982101 -5.01823e-05 0)
(-0.00973809 -6.47592e-05 0)
(-0.00963432 -7.91473e-05 0)
(-0.00951002 -9.32959e-05 0)
(-0.00936558 -0.000107152 0)
(-0.00920146 -0.000120662 0)
(-0.00901821 -0.000133769 0)
(-0.00881646 -0.00014642 0)
(-0.00859692 -0.000158557 0)
(-0.00836035 -0.000170126 0)
(-0.00810763 -0.000181071 0)
(-0.00783968 -0.000191337 0)
(-0.00755755 -0.000200868 0)
(-0.00726231 -0.000209609 0)
(-0.00695514 -0.00021751 0)
(-0.00663729 -0.000224517 0)
(-0.00631007 -0.000230578 0)
(-0.00597488 -0.000235645 0)
(-0.00563316 -0.000239673 0)
(-0.00528644 -0.000242618 0)
(-0.00493631 -0.000244436 0)
(-0.00458439 -0.000245086 0)
(-0.00423239 -0.000244529 0)
(-0.00388204 -0.000242728 0)
(-0.00353514 -0.000239651 0)
(-0.0031935 -0.000235271 0)
(-0.00285899 -0.000229565 0)
(-0.00253348 -0.000222517 0)
(-0.00221886 -0.000214112 0)
(-0.00191703 -0.000204347 0)
(-0.00162986 -0.000193225 0)
(-0.00135924 -0.00018076 0)
(-0.00110697 -0.000166976 0)
(-0.000874825 -0.000151912 0)
(-0.000664459 -0.00013563 0)
(-0.000477418 -0.000118216 0)
(-0.000315074 -9.97955e-05 0)
(-0.000178568 -8.05388e-05 0)
(-6.8723e-05 -6.06871e-05 0)
(1.40681e-05 -4.05845e-05 0)
(6.99954e-05 -2.07311e-05 0)
(0.000100064 -1.86643e-06 0)
(0.000106411 1.49017e-05 0)
(9.26568e-05 2.79052e-05 0)
(6.44706e-05 3.46241e-05 0)
(3.13905e-05 3.13978e-05 0)
(7.5803e-06 1.44491e-05 0)
(8.98638e-06 -3.37766e-05 0)
(3.35226e-05 -6.23862e-05 0)
(6.14832e-05 -6.05652e-05 0)
(7.58183e-05 -3.74162e-05 0)
(6.51943e-05 -6.1277e-08 0)
(2.25859e-05 4.62058e-05 0)
(-5.6664e-05 9.75949e-05 0)
(-0.000175331 0.000151417 0)
(-0.000334669 0.000205783 0)
(-0.000534807 0.000259366 0)
(-0.000775017 0.00031122 0)
(-0.00105392 0.000360683 0)
(-0.00136971 0.000407278 0)
(-0.00172018 0.000450678 0)
(-0.00210291 0.000490653 0)
(-0.0025153 0.000527053 0)
(-0.0029546 0.000559788 0)
(-0.00341802 0.000588818 0)
(-0.0039027 0.000614129 0)
(-0.00440576 0.000635741 0)
(-0.00492436 0.000653698 0)
(-0.00545564 0.00066805 0)
(-0.0059968 0.000678869 0)
(-0.00654509 0.000686237 0)
(-0.00709782 0.000690238 0)
(-0.00765235 0.000690969 0)
(-0.00820612 0.000688533 0)
(-0.00875666 0.000683031 0)
(-0.00930155 0.000674575 0)
(-0.00983849 0.000663276 0)
(-0.0103652 0.000649246 0)
(-0.0108797 0.000632604 0)
(-0.0113797 0.000613466 0)
(-0.0118635 0.00059195 0)
(-0.012329 0.000568174 0)
(-0.0127746 0.000542259 0)
(-0.0131986 0.000514329 0)
(-0.0135994 0.000484506 0)
(-0.0139755 0.000452916 0)
(-0.0143257 0.000419685 0)
(-0.0146485 0.000384941 0)
(-0.0149429 0.000348809 0)
(-0.0152077 0.000311419 0)
(-0.0154421 0.000272899 0)
(-0.0156451 0.000233382 0)
(-0.0158161 0.000193003 0)
(-0.0159543 0.000151895 0)
(-0.0160593 0.000110192 0)
(-0.0161306 6.80343e-05 0)
(-0.0161679 2.55589e-05 0)
(-0.0161711 -1.70969e-05 0)
(-0.0161399 -5.97895e-05 0)
(-0.0160746 -0.000102375 0)
(-0.0159752 -0.000144708 0)
(-0.0158419 -0.000186638 0)
(-0.0156753 -0.000228015 0)
(-0.0154757 -0.000268688 0)
(-0.0152439 -0.000308506 0)
(-0.0149806 -0.000347311 0)
(-0.0146866 -0.000384947 0)
(-0.0143631 -0.000421258 0)
(-0.014011 -0.000456083 0)
(-0.0136318 -0.000489265 0)
(-0.0132267 -0.000520646 0)
(-0.0127972 -0.00055007 0)
(-0.0123451 -0.00057738 0)
(-0.011872 -0.000602422 0)
(-0.0113799 -0.000625048 0)
(-0.0108707 -0.000645108 0)
(-0.0103465 -0.00066246 0)
(-0.00980962 -0.000676967 0)
(-0.00926226 -0.000688497 0)
(-0.0087069 -0.000696927 0)
(-0.00814603 -0.000702135 0)
(-0.00758228 -0.000704008 0)
(-0.00701832 -0.000702443 0)
(-0.00645692 -0.000697344 0)
(-0.00590089 -0.00068863 0)
(-0.0053531 -0.000676232 0)
(-0.00481648 -0.000660095 0)
(-0.00429396 -0.000640183 0)
(-0.00378849 -0.000616475 0)
(-0.00330301 -0.000588976 0)
(-0.00284045 -0.000557717 0)
(-0.00240365 -0.00052276 0)
(-0.00199541 -0.000484208 0)
(-0.00161835 -0.000442206 0)
(-0.00127498 -0.000396969 0)
(-0.000967536 -0.000348787 0)
(-0.000697993 -0.000298061 0)
(-0.000467915 -0.000245327 0)
(-0.000278353 -0.00019132 0)
(-0.000129684 -0.00013704 0)
(-2.14072e-05 -8.38741e-05 0)
(4.81447e-05 -3.37498e-05 0)
(8.21511e-05 1.0635e-05 0)
(8.5642e-05 4.55181e-05 0)
(6.59685e-05 6.57412e-05 0)
(3.47137e-05 6.44948e-05 0)
(9.0025e-06 3.36478e-05 0)
(7.87033e-06 -5.17977e-05 0)
(2.60671e-05 -8.78957e-05 0)
(3.93808e-05 -7.51488e-05 0)
(3.04278e-05 -2.81316e-05 0)
(-1.26885e-05 4.25027e-05 0)
(-9.77426e-05 0.0001286 0)
(-0.000230044 0.000223992 0)
(-0.000412884 0.000324136 0)
(-0.000647871 0.000425674 0)
(-0.00093527 0.000526156 0)
(-0.0012743 0.000623781 0)
(-0.00166337 0.000717231 0)
(-0.00210026 0.000805546 0)
(-0.0025823 0.000888037 0)
(-0.00310643 0.000964207 0)
(-0.00366935 0.00103372 0)
(-0.00426757 0.00109636 0)
(-0.00489746 0.00115199 0)
(-0.00555532 0.00120057 0)
(-0.0062374 0.0012421 0)
(-0.00693995 0.00127662 0)
(-0.00765922 0.00130423 0)
(-0.00839149 0.00132504 0)
(-0.00913313 0.00133919 0)
(-0.00988054 0.00134683 0)
(-0.0106302 0.00134814 0)
(-0.0113787 0.0013433 0)
(-0.0121227 0.00133251 0)
(-0.0128591 0.00131597 0)
(-0.0135846 0.00129391 0)
(-0.0142963 0.00126652 0)
(-0.0149913 0.00123405 0)
(-0.0156669 0.0011967 0)
(-0.0163204 0.00115472 0)
(-0.0169493 0.00110833 0)
(-0.0175512 0.00105777 0)
(-0.0181239 0.00100328 0)
(-0.0186652 0.000945087 0)
(-0.0191733 0.000883447 0)
(-0.0196461 0.000818602 0)
(-0.0200821 0.0007508 0)
(-0.0204796 0.000680287 0)
(-0.0208372 0.000607315 0)
(-0.0211536 0.000532141 0)
(-0.0214276 0.00045502 0)
(-0.0216583 0.000376213 0)
(-0.0218448 0.000295983 0)
(-0.0219863 0.000214596 0)
(-0.0220823 0.000132319 0)
(-0.0221324 4.94268e-05 0)
(-0.0221363 -3.38072e-05 0)
(-0.022094 -0.000117106 0)
(-0.0220054 -0.000200184 0)
(-0.0218708 -0.000282754 0)
(-0.0216905 -0.000364527 0)
(-0.0214652 -0.00044521 0)
(-0.0211954 -0.000524505 0)
(-0.0208821 -0.000602112 0)
(-0.0205263 -0.000677731 0)
(-0.0201291 -0.000751057 0)
(-0.0196921 -0.000821782 0)
(-0.0192166 -0.000889601 0)
(-0.0187044 -0.000954208 0)
(-0.0181574 -0.0010153 0)
(-0.0175776 -0.00107256 0)
(-0.0169672 -0.00112571 0)
(-0.0163285 -0.00117444 0)
(-0.0156642 -0.00121847 0)
(-0.0149769 -0.0012575 0)
(-0.0142693 -0.00129128 0)
(-0.0135446 -0.00131952 0)
(-0.0128057 -0.00134199 0)
(-0.0120559 -0.00135844 0)
(-0.0112987 -0.00136864 0)
(-0.0105374 -0.00137239 0)
(-0.00977571 -0.00136949 0)
(-0.00901724 -0.00135976 0)
(-0.00826576 -0.00134307 0)
(-0.00752507 -0.0013193 0)
(-0.00679904 -0.00128834 0)
(-0.00609154 -0.00125016 0)
(-0.00540645 -0.00120473 0)
(-0.00474764 -0.00115208 0)
(-0.00411889 -0.0010923 0)
(-0.00352393 -0.00102556 0)
(-0.00296632 -0.000952066 0)
(-0.00244947 -0.000872165 0)
(-0.0019765 -0.000786307 0)
(-0.00155026 -0.000695103 0)
(-0.00117314 -0.000599366 0)
(-0.000847021 -0.000500173 0)
(-0.000573115 -0.000398951 0)
(-0.000351767 -0.000297602 0)
(-0.000182249 -0.000198659 0)
(-6.24735e-05 -0.000105519 0)
(1.13356e-05 -2.27365e-05 0)
(4.49418e-05 4.36116e-05 0)
(4.65065e-05 8.55667e-05 0)
(2.83081e-05 9.29406e-05 0)
(8.07512e-06 5.24568e-05 0)
(5.49369e-06 -6.39561e-05 0)
(1.25598e-05 -9.81694e-05 0)
(3.14875e-06 -6.54017e-05 0)
(-3.84573e-05 1.46716e-05 0)
(-0.000123639 0.000127979 0)
(-0.000260283 0.000263588 0)
(-0.00045386 0.000413006 0)
(-0.000707809 0.000569739 0)
(-0.00102383 0.000728887 0)
(-0.00140222 0.000886723 0)
(-0.0018421 0.00104045 0)
(-0.00234168 0.00118798 0)
(-0.00289844 0.00132772 0)
(-0.00350928 0.00145851 0)
(-0.00417064 0.00157953 0)
(-0.00487866 0.00169015 0)
(-0.00562918 0.00178997 0)
(-0.00641789 0.00187875 0)
(-0.00724037 0.00195634 0)
(-0.00809211 0.00202272 0)
(-0.00896856 0.00207792 0)
(-0.00986518 0.00212206 0)
(-0.0107775 0.00215529 0)
(-0.011701 0.00217781 0)
(-0.0126313 0.00218986 0)
(-0.0135641 0.0021917 0)
(-0.0144953 0.00218361 0)
(-0.0154207 0.0021659 0)
(-0.0163364 0.0021389 0)
(-0.0172385 0.00210293 0)
(-0.0181233 0.00205835 0)
(-0.0189873 0.00200551 0)
(-0.019827 0.00194477 0)
(-0.0206392 0.0018765 0)
(-0.0214208 0.00180107 0)
(-0.0221689 0.00171887 0)
(-0.0228805 0.00163027 0)
(-0.0235532 0.00153567 0)
(-0.0241844 0.00143546 0)
(-0.0247719 0.00133004 0)
(-0.0253135 0.00121982 0)
(-0.0258073 0.00110518 0)
(-0.0262514 0.000986555 0)
(-0.0266443 0.000864345 0)
(-0.0269846 0.000738974 0)
(-0.027271 0.000610864 0)
(-0.0275023 0.000480444 0)
(-0.0276779 0.000348148 0)
(-0.0277969 0.000214415 0)
(-0.0278588 7.96864e-05 0)
(-0.0278633 -5.55867e-05 0)
(-0.0278103 -0.000190949 0)
(-0.0276999 -0.00032594 0)
(-0.0275324 -0.00046009 0)
(-0.0273081 -0.000592929 0)
(-0.0270278 -0.000723978 0)
(-0.0266924 -0.000852756 0)
(-0.0263029 -0.000978775 0)
(-0.0258607 -0.00110154 0)
(-0.0253671 -0.00122057 0)
(-0.024824 -0.00133537 0)
(-0.0242333 -0.00144543 0)
(-0.023597 -0.00155026 0)
(-0.0229174 -0.00164938 0)
(-0.0221972 -0.00174229 0)
(-0.021439 -0.00182852 0)
(-0.0206458 -0.00190758 0)
(-0.0198206 -0.00197902 0)
(-0.0189669 -0.00204237 0)
(-0.018088 -0.00209721 0)
(-0.0171876 -0.00214311 0)
(-0.0162697 -0.00217966 0)
(-0.0153381 -0.00220649 0)
(-0.014397 -0.00222324 0)
(-0.0134508 -0.00222958 0)
(-0.0125037 -0.00222521 0)
(-0.0115603 -0.00220987 0)
(-0.0106251 -0.00218335 0)
(-0.00970288 -0.00214545 0)
(-0.00879826 -0.00209607 0)
(-0.00791595 -0.00203514 0)
(-0.00706067 -0.00196266 0)
(-0.00623706 -0.00187871 0)
(-0.0054497 -0.00178349 0)
(-0.00470301 -0.00167726 0)
(-0.00400128 -0.00156046 0)
(-0.0033485 -0.00143366 0)
(-0.00274838 -0.00129764 0)
(-0.0022042 -0.00115343 0)
(-0.00171875 -0.00100238 0)
(-0.00129416 -0.000846221 0)
(-0.000931797 -0.000687227 0)
(-0.000632027 -0.000528336 0)
(-0.000394041 -0.000373371 0)
(-0.000215582 -0.000227305 0)
(-9.26629e-05 -9.66056e-05 0)
(-1.92898e-05 1.03511e-05 0)
(1.29013e-05 8.2876e-05 0)
(1.58472e-05 0.000107463 0)
(5.89133e-06 6.59746e-05 0)
(2.50992e-06 -6.78803e-05 0)
(-4.46372e-06 -8.78071e-05 0)
(-4.20532e-05 -2.4289e-05 0)
(-0.000122919 9.87888e-05 0)
(-0.000257153 0.000264325 0)
(-0.000452252 0.000458804 0)
(-0.000713458 0.000671523 0)
(-0.00104401 0.000894129 0)
(-0.00144551 0.00112012 0)
(-0.0019181 0.00134447 0)
(-0.00246074 0.00156329 0)
(-0.00307143 0.00177363 0)
(-0.00374733 0.0019732 0)
(-0.00448498 0.0021603 0)
(-0.00528039 0.00233364 0)
(-0.00612918 0.00249231 0)
(-0.00702667 0.00263566 0)
(-0.00796795 0.00276325 0)
(-0.00894794 0.00287485 0)
(-0.00996147 0.00297034 0)
(-0.0110033 0.00304976 0)
(-0.0120683 0.00311321 0)
(-0.013151 0.00316089 0)
(-0.0142465 0.00319307 0)
(-0.0153495 0.00321005 0)
(-0.0164552 0.0032122 0)
(-0.0175584 0.00319991 0)
(-0.0186545 0.00317362 0)
(-0.0197389 0.00313378 0)
(-0.020807 0.00308086 0)
(-0.0218545 0.00301537 0)
(-0.0228771 0.00293781 0)
(-0.0238709 0.00284871 0)
(-0.0248321 0.00274859 0)
(-0.025757 0.00263801 0)
(-0.026642 0.00251751 0)
(-0.0274839 0.00238766 0)
(-0.0282797 0.00224902 0)
(-0.0290263 0.00210218 0)
(-0.0297212 0.0019477 0)
(-0.0303617 0.00178618 0)
(-0.0309456 0.00161821 0)
(-0.0314707 0.0014444 0)
(-0.0319352 0.00126534 0)
(-0.0323375 0.00108166 0)
(-0.0326759 0.000893977 0)
(-0.0329492 0.000702914 0)
(-0.0331565 0.000509112 0)
(-0.0332969 0.000313216 0)
(-0.0333698 0.000115878 0)
(-0.0333748 -8.22447e-05 0)
(-0.0333119 -0.000280482 0)
(-0.033181 -0.000478156 0)
(-0.0329825 -0.000674581 0)
(-0.032717 -0.000869068 0)
(-0.0323852 -0.00106091 0)
(-0.0319883 -0.00124941 0)
(-0.0315275 -0.00143386 0)
(-0.0310043 -0.00161353 0)
(-0.0304206 -0.00178771 0)
(-0.0297782 -0.00195567 0)
(-0.0290795 -0.0021167 0)
(-0.0283269 -0.00227008 0)
(-0.0275233 -0.00241509 0)
(-0.0266715 -0.00255102 0)
(-0.0257749 -0.00267718 0)
(-0.0248368 -0.00279287 0)
(-0.0238609 -0.00289743 0)
(-0.0228511 -0.0029902 0)
(-0.0218115 -0.00307055 0)
(-0.0207464 -0.00313786 0)
(-0.0196603 -0.00319158 0)
(-0.0185578 -0.00323113 0)
(-0.0174439 -0.00325603 0)
(-0.0163235 -0.00326581 0)
(-0.0152017 -0.00326005 0)
(-0.0140838 -0.00323838 0)
(-0.0129751 -0.00320051 0)
(-0.011881 -0.00314621 0)
(-0.010807 -0.00307533 0)
(-0.00975846 -0.0029878 0)
(-0.00874084 -0.00288368 0)
(-0.0077595 -0.00276311 0)
(-0.00681969 -0.00262641 0)
(-0.00592647 -0.00247403 0)
(-0.00508471 -0.00230664 0)
(-0.00429896 -0.00212512 0)
(-0.00357338 -0.00193066 0)
(-0.0029117 -0.00172478 0)
(-0.00231702 -0.00150945 0)
(-0.00179174 -0.00128716 0)
(-0.00133741 -0.00106111 0)
(-0.000954508 -0.000835372 0)
(-0.000642313 -0.000615101 0)
(-0.000398629 -0.00040687 0)
(-0.000219577 -0.000219022 0)
(-9.93313e-05 -6.21227e-05 0)
(-2.98012e-05 5.05983e-05 0)
(-1.87048e-07 0.000102626 0)
(3.08657e-06 7.17976e-05 0)
(-7.38736e-07 -6.23214e-05 0)
(-2.3382e-05 -5.34307e-05 0)
(-9.26028e-05 5.29531e-05 0)
(-0.000217196 0.000229755 0)
(-0.000405389 0.000457329 0)
(-0.000663949 0.000719895 0)
(-0.000997518 0.00100475 0)
(-0.00140892 0.00130178 0)
(-0.0018994 0.00160294 0)
(-0.00246883 0.00190193 0)
(-0.00311591 0.00219374 0)
(-0.00383833 0.00247451 0)
(-0.00463296 0.0027412 0)
(-0.00549597 0.00299149 0)
(-0.00642297 0.00322364 0)
(-0.00740914 0.00343633 0)
(-0.00844929 0.00362862 0)
(-0.00953799 0.00379989 0)
(-0.0106696 0.00394974 0)
(-0.0118384 0.00407797 0)
(-0.0130385 0.00418457 0)
(-0.014264 0.00426963 0)
(-0.0155092 0.00433339 0)
(-0.0167681 0.00437616 0)
(-0.0180351 0.00439834 0)
(-0.0193044 0.0044004 0)
(-0.0205706 0.00438284 0)
(-0.0218282 0.00434624 0)
(-0.0230719 0.00429119 0)
(-0.0242967 0.00421833 0)
(-0.0254976 0.00412832 0)
(-0.0266698 0.00402186 0)
(-0.0278089 0.00389963 0)
(-0.0289103 0.00376237 0)
(-0.02997 0.00361082 0)
(-0.030984 0.00344572 0)
(-0.0319484 0.00326784 0)
(-0.0328599 0.00307795 0)
(-0.0337151 0.00287684 0)
(-0.0345108 0.00266529 0)
(-0.0352442 0.00244412 0)
(-0.0359128 0.00221413 0)
(-0.036514 0.00197615 0)
(-0.0370458 0.00173101 0)
(-0.0375061 0.00147955 0)
(-0.0378934 0.00122261 0)
(-0.0382061 0.000961075 0)
(-0.0384432 0.000695803 0)
(-0.0386037 0.000427678 0)
(-0.0386869 0.000157597 0)
(-0.0386923 -0.000113537 0)
(-0.0386199 -0.000384808 0)
(-0.0384698 -0.000655288 0)
(-0.0382423 -0.00092404 0)
(-0.037938 -0.00119012 0)
(-0.037558 -0.00145256 0)
(-0.0371033 -0.00171041 0)
(-0.0365756 -0.00196269 0)
(-0.0359764 -0.00220843 0)
(-0.0353079 -0.00244664 0)
(-0.0345723 -0.00267635 0)
(-0.0337722 -0.00289657 0)
(-0.0329104 -0.00310632 0)
(-0.0319902 -0.00330464 0)
(-0.0310148 -0.00349056 0)
(-0.029988 -0.00366314 0)
(-0.0289137 -0.00382145 0)
(-0.027796 -0.00396456 0)
(-0.0266393 -0.00409162 0)
(-0.0254483 -0.00420175 0)
(-0.0242279 -0.00429414 0)
(-0.0229832 -0.00436803 0)
(-0.0217195 -0.00442267 0)
(-0.0204423 -0.0044574 0)
(-0.0191571 -0.00447161 0)
(-0.0178699 -0.00446473 0)
(-0.0165865 -0.00443632 0)
(-0.0153128 -0.00438598 0)
(-0.0140551 -0.00431343 0)
(-0.0128194 -0.00421851 0)
(-0.0116118 -0.00410116 0)
(-0.0104383 -0.00396148 0)
(-0.00930507 -0.00379975 0)
(-0.00821781 -0.00361641 0)
(-0.00718221 -0.00341214 0)
(-0.00620364 -0.00318789 0)
(-0.00528715 -0.00294491 0)
(-0.00443734 -0.00268483 0)
(-0.0036583 -0.00240974 0)
(-0.0029535 -0.00212229 0)
(-0.00232561 -0.0018258 0)
(-0.00177642 -0.00152443 0)
(-0.00130666 -0.00122341 0)
(-0.000915816 -0.000929235 0)
(-0.000601983 -0.000650034 0)
(-0.000361651 -0.000395917 0)
(-0.000189483 -0.000179459 0)
(-7.80335e-05 -1.61455e-05 0)
(-1.8198e-05 7.49622e-05 0)
(8.91067e-09 6.86362e-05 0)
(-4.05094e-06 -4.66733e-05 0)
(-4.31924e-05 6.97518e-06 0)
(-0.000146053 0.000169407 0)
(-0.00031719 0.000411333 0)
(-0.000562639 0.000711068 0)
(-0.000888126 0.00105095 0)
(-0.00129749 0.0014165 0)
(-0.00179286 0.00179601 0)
(-0.00237499 0.00218004 0)
(-0.00304332 0.002561 0)
(-0.00379618 0.00293282 0)
(-0.00463091 0.00329071 0)
(-0.00554401 0.00363087 0)
(-0.0065313 0.00395034 0)
(-0.00758797 0.00424684 0)
(-0.00870879 0.00451866 0)
(-0.00988812 0.00476454 0)
(-0.01112 0.00498359 0)
(-0.0123984 0.00517526 0)
(-0.013717 0.00533924 0)
(-0.0150693 0.00547544 0)
(-0.016449 0.00558394 0)
(-0.0178496 0.005665 0)
(-0.0192647 0.00571898 0)
(-0.020688 0.00574637 0)
(-0.0221133 0.00574772 0)
(-0.0235344 0.00572368 0)
(-0.0249454 0.00567496 0)
(-0.0263404 0.00560232 0)
(-0.0277138 0.00550656 0)
(-0.02906 0.00538853 0)
(-0.0303739 0.0052491 0)
(-0.0316502 0.00508919 0)
(-0.0328843 0.00490973 0)
(-0.0340714 0.00471166 0)
(-0.0352071 0.00449597 0)
(-0.0362873 0.00426363 0)
(-0.037308 0.00401566 0)
(-0.0382655 0.00375307 0)
(-0.0391564 0.00347689 0)
(-0.0399775 0.00318817 0)
(-0.0407258 0.00288798 0)
(-0.0413988 0.00257738 0)
(-0.0419939 0.00225745 0)
(-0.042509 0.00192929 0)
(-0.0429423 0.00159403 0)
(-0.0432922 0.00125277 0)
(-0.0435573 0.000906657 0)
(-0.0437367 0.000556849 0)
(-0.0438296 0.000204509 0)
(-0.0438355 -0.000149181 0)
(-0.0437543 -0.000503027 0)
(-0.043586 -0.000855819 0)
(-0.0433312 -0.00120634 0)
(-0.0429905 -0.00155334 0)
(-0.042565 -0.0018956 0)
(-0.0420561 -0.00223184 0)
(-0.0414653 -0.00256081 0)
(-0.0407946 -0.00288124 0)
(-0.0400462 -0.00319184 0)
(-0.0392228 -0.00349136 0)
(-0.0383272 -0.00377852 0)
(-0.0373626 -0.00405205 0)
(-0.0363324 -0.00431069 0)
(-0.0352405 -0.0045532 0)
(-0.0340909 -0.00477836 0)
(-0.0328879 -0.00498496 0)
(-0.0316362 -0.00517184 0)
(-0.0303407 -0.00533785 0)
(-0.0290066 -0.0054819 0)
(-0.0276392 -0.00560294 0)
(-0.0262442 -0.00569999 0)
(-0.0248275 -0.00577211 0)
(-0.0233952 -0.00581845 0)
(-0.0219534 -0.00583822 0)
(-0.0205086 -0.00583076 0)
(-0.0190672 -0.00579547 0)
(-0.017636 -0.00573189 0)
(-0.0162216 -0.00563969 0)
(-0.0148306 -0.00551869 0)
(-0.0134699 -0.00536887 0)
(-0.0121461 -0.00519039 0)
(-0.0108656 -0.00498366 0)
(-0.00963501 -0.00474929 0)
(-0.00846033 -0.00448823 0)
(-0.00734748 -0.00420173 0)
(-0.00630195 -0.00389146 0)
(-0.00532876 -0.00355953 0)
(-0.0044324 -0.00320865 0)
(-0.00361667 -0.00284217 0)
(-0.00288459 -0.00246426 0)
(-0.00223828 -0.00208008 0)
(-0.00167878 -0.00169598 0)
(-0.00120598 -0.00131977 0)
(-0.00081842 -0.00096104 0)
(-0.000513181 -0.000631517 0)
(-0.000285664 -0.000345555 0)
(-0.000129349 -0.000120558 0)
(-3.71716e-05 2.23759e-05 0)
(-3.14922e-06 5.58364e-05 0)
(-7.32792e-06 -2.07247e-05 0)
(-6.32588e-05 9.44123e-05 0)
(-0.00020078 0.000326867 0)
(-0.000420073 0.000645872 0)
(-0.0007248 0.00102824 0)
(-0.00111949 0.00145476 0)
(-0.00160695 0.00190948 0)
(-0.00218849 0.00237928 0)
(-0.00286419 0.00285341 0)
(-0.00363293 0.00332314 0)
(-0.00449258 0.00378136 0)
(-0.00544004 0.00422237 0)
(-0.00647142 0.00464162 0)
(-0.00758211 0.00503549 0)
(-0.00876693 0.00540117 0)
(-0.0100202 0.00573651 0)
(-0.0113359 0.00603991 0)
(-0.0127076 0.00631023 0)
(-0.0141287 0.00654669 0)
(-0.0155924 0.00674888 0)
(-0.0170919 0.00691661 0)
(-0.0186203 0.00704995 0)
(-0.0201705 0.00714916 0)
(-0.0217356 0.00721466 0)
(-0.0233088 0.00724699 0)
(-0.0248834 0.00724683 0)
(-0.0264526 0.00721496 0)
(-0.0280099 0.00715223 0)
(-0.0295491 0.00705956 0)
(-0.031064 0.00693796 0)
(-0.0325485 0.00678845 0)
(-0.033997 0.00661212 0)
(-0.0354039 0.00641011 0)
(-0.0367639 0.00618356 0)
(-0.0380719 0.00593367 0)
(-0.0393231 0.00566165 0)
(-0.0405129 0.00536873 0)
(-0.0416371 0.00505618 0)
(-0.0426915 0.00472526 0)
(-0.0436725 0.00437729 0)
(-0.0445766 0.00401356 0)
(-0.0454004 0.00363541 0)
(-0.0461412 0.00324419 0)
(-0.0467962 0.00284126 0)
(-0.0473632 0.002428 0)
(-0.0478401 0.00200582 0)
(-0.0482251 0.00157612 0)
(-0.0485169 0.00114034 0)
(-0.0487142 0.000699937 0)
(-0.0488163 0.000256369 0)
(-0.0488227 -0.000188874 0)
(-0.0487332 -0.000634288 0)
(-0.0485479 -0.00107835 0)
(-0.0482674 -0.00151953 0)
(-0.0478924 -0.00195628 0)
(-0.0474241 -0.00238703 0)
(-0.0468638 -0.0028102 0)
(-0.0462135 -0.00322421 0)
(-0.0454753 -0.00362748 0)
(-0.0446516 -0.00401839 0)
(-0.0437453 -0.00439536 0)
(-0.0427594 -0.0047568 0)
(-0.0416975 -0.00510113 0)
(-0.0405633 -0.00542676 0)
(-0.039361 -0.00573215 0)
(-0.038095 -0.00601578 0)
(-0.0367701 -0.00627614 0)
(-0.0353914 -0.00651178 0)
(-0.0339641 -0.00672129 0)
(-0.0324939 -0.00690329 0)
(-0.0309867 -0.00705651 0)
(-0.0294487 -0.00717971 0)
(-0.0278862 -0.00727175 0)
(-0.0263058 -0.00733158 0)
(-0.0247143 -0.00735824 0)
(-0.0231186 -0.00735092 0)
(-0.0215259 -0.00730892 0)
(-0.0199432 -0.00723168 0)
(-0.0183779 -0.00711884 0)
(-0.0168372 -0.00697019 0)
(-0.0153283 -0.00678576 0)
(-0.0138585 -0.0065658 0)
(-0.0124347 -0.00631086 0)
(-0.011064 -0.00602176 0)
(-0.00975287 -0.0056997 0)
(-0.00850771 -0.00534631 0)
(-0.00733444 -0.00496366 0)
(-0.00623851 -0.00455441 0)
(-0.00522479 -0.00412186 0)
(-0.00429748 -0.00367012 0)
(-0.00345999 -0.00320421 0)
(-0.00271483 -0.00273025 0)
(-0.0020635 -0.0022557 0)
(-0.00150638 -0.00178959 0)
(-0.00104261 -0.00134285 0)
(-0.000670048 -0.000928656 0)
(-0.000385017 -0.000562893 0)
(-0.000182104 -0.000264536 0)
(-5.64752e-05 -5.62328e-05 0)
(-6.28392e-06 3.31509e-05 0)
(-1.05164e-05 1.54926e-05 0)
(-8.32124e-05 0.000209245 0)
(-0.000255716 0.000526178 0)
(-0.000523902 0.000934671 0)
(-0.000888994 0.00141045 0)
(-0.0013542 0.00193312 0)
(-0.0019212 0.0024855 0)
(-0.00259032 0.00305324 0)
(-0.00336085 0.00362448 0)
(-0.00423103 0.0041894 0)
(-0.00519814 0.00473995 0)
(-0.0062586 0.00526957 0)
(-0.00740804 0.00577296 0)
(-0.00864142 0.00624587 0)
(-0.00995314 0.00668496 0)
(-0.0113371 0.00708763 0)
(-0.0127868 0.00745193 0)
(-0.0142954 0.00777642 0)
(-0.0158559 0.00806015 0)
(-0.0174611 0.00830252 0)
(-0.0191036 0.00850329 0)
(-0.0207759 0.00866249 0)
(-0.0224708 0.00878036 0)
(-0.0241807 0.00885736 0)
(-0.0258983 0.00889415 0)
(-0.0276163 0.00889148 0)
(-0.0293277 0.00885028 0)
(-0.0310255 0.00877154 0)
(-0.0327028 0.00865638 0)
(-0.034353 0.00850597 0)
(-0.0359697 0.00832156 0)
(-0.0375467 0.00810447 0)
(-0.0390781 0.00785605 0)
(-0.0405581 0.0075777 0)
(-0.0419813 0.00727086 0)
(-0.0433424 0.00693701 0)
(-0.0446366 0.00657764 0)
(-0.0458592 0.0061943 0)
(-0.0470059 0.00578853 0)
(-0.0480725 0.00536193 0)
(-0.0490554 0.00491608 0)
(-0.049951 0.00445262 0)
(-0.0507563 0.0039732 0)
(-0.0514683 0.00347948 0)
(-0.0520845 0.00297315 0)
(-0.0526028 0.00245593 0)
(-0.0530213 0.00192954 0)
(-0.0533383 0.00139573 0)
(-0.0535528 0.000856292 0)
(-0.0536638 0.00031301 0)
(-0.0536708 -0.000232293 0)
(-0.0535736 -0.000777783 0)
(-0.0533723 -0.0013216 0)
(-0.0530676 -0.00186187 0)
(-0.0526602 -0.00239669 0)
(-0.0521513 -0.00292416 0)
(-0.0515426 -0.00344235 0)
(-0.0508361 -0.00394934 0)
(-0.0500339 -0.00444317 0)
(-0.0491388 -0.00492191 0)
(-0.0481538 -0.00538361 0)
(-0.0470823 -0.00582633 0)
(-0.045928 -0.00624815 0)
(-0.0446951 -0.00664716 0)
(-0.0433879 -0.00702148 0)
(-0.0420113 -0.00736924 0)
(-0.0405704 -0.00768864 0)
(-0.0390706 -0.0079779 0)
(-0.0375176 -0.00823533 0)
(-0.0359176 -0.00845927 0)
(-0.0342769 -0.00864817 0)
(-0.032602 -0.00880054 0)
(-0.0308998 -0.00891502 0)
(-0.0291775 -0.00899034 0)
(-0.0274422 -0.00902539 0)
(-0.0257014 -0.00901917 0)
(-0.0239627 -0.00897089 0)
(-0.0222338 -0.0088799 0)
(-0.0205224 -0.00874577 0)
(-0.0188364 -0.00856832 0)
(-0.0171834 -0.00834761 0)
(-0.0155712 -0.008084 0)
(-0.0140073 -0.00777817 0)
(-0.012499 -0.00743119 0)
(-0.0110535 -0.00704453 0)
(-0.00967762 -0.00662018 0)
(-0.00837762 -0.00616068 0)
(-0.00715943 -0.0056692 0)
(-0.00602833 -0.00514969 0)
(-0.00498895 -0.00460698 0)
(-0.00404515 -0.00404691 0)
(-0.00319992 -0.00347656 0)
(-0.00245529 -0.00290442 0)
(-0.00181225 -0.00234065 0)
(-0.00127068 -0.00179739 0)
(-0.000829335 -0.00128908 0)
(-0.000485577 -0.000832889 0)
(-0.000235219 -0.000449035 0)
(-7.57221e-05 -0.000161297 0)
(-9.34157e-06 5.76621e-07 0)
(-1.3592e-05 6.18092e-05 0)
(-0.000102824 0.000351403 0)
(-0.000310194 0.000767558 0)
(-0.00062739 0.00127826 0)
(-0.00105323 0.0018585 0)
(-0.00158956 0.002487 0)
(-0.00223682 0.00314559 0)
(-0.00299431 0.00381892 0)
(-0.0038604 0.00449412 0)
(-0.0048326 0.00516044 0)
(-0.00590756 0.00580894 0)
(-0.00708109 0.00643228 0)
(-0.00834834 0.00702445 0)
(-0.00970378 0.0075806 0)
(-0.0111413 0.00809686 0)
(-0.0126545 0.00857018 0)
(-0.0142363 0.00899826 0)
(-0.0158795 0.00937939 0)
(-0.0175767 0.0097124 0)
(-0.0193201 0.00999654 0)
(-0.0211021 0.0102315 0)
(-0.0229146 0.0104172 0)
(-0.0247499 0.0105539 0)
(-0.0266001 0.0106422 0)
(-0.0284574 0.0106827 0)
(-0.0303141 0.0106763 0)
(-0.0321626 0.0106241 0)
(-0.0339956 0.0105273 0)
(-0.0358057 0.0103871 0)
(-0.037586 0.0102049 0)
(-0.0393296 0.0099822 0)
(-0.0410299 0.00972053 0)
(-0.0426806 0.00942149 0)
(-0.0442755 0.00908674 0)
(-0.0458089 0.008718 0)
(-0.0472751 0.008317 0)
(-0.0486691 0.00788555 0)
(-0.0499857 0.00742546 0)
(-0.0512204 0.00693858 0)
(-0.0523689 0.00642682 0)
(-0.053427 0.00589208 0)
(-0.0543911 0.0053363 0)
(-0.0552579 0.00476145 0)
(-0.0560243 0.00416953 0)
(-0.0566876 0.00356255 0)
(-0.0572454 0.00294256 0)
(-0.0576958 0.00231164 0)
(-0.0580372 0.00167188 0)
(-0.0582681 0.0010254 0)
(-0.0583877 0.000374349 0)
(-0.0583955 -0.000279094 0)
(-0.0582911 -0.000932735 0)
(-0.0580748 -0.00158435 0)
(-0.0577472 -0.00223171 0)
(-0.0573092 -0.00287254 0)
(-0.056762 -0.00350455 0)
(-0.0561073 -0.00412547 0)
(-0.0553473 -0.00473297 0)
(-0.0544844 -0.00532475 0)
(-0.0535215 -0.00589849 0)
(-0.0524617 -0.00645187 0)
(-0.0513087 -0.00698259 0)
(-0.0500665 -0.00748835 0)
(-0.0487394 -0.00796688 0)
(-0.0473322 -0.00841594 0)
(-0.0458499 -0.00883333 0)
(-0.0442981 -0.0092169 0)
(-0.0426825 -0.00956454 0)
(-0.0410092 -0.00987425 0)
(-0.0392848 -0.0101441 0)
(-0.0375158 -0.0103721 0)
(-0.0357094 -0.0105568 0)