/*--------------------------------*- C++ -*----------------------------------*\
  =========                 |
  \\      /  F ield         | OpenFOAM: The Open Source CFD Toolbox
   \\    /   O peration     | Website:  https://openfoam.org
    \\  /    A nd           | Version:  11
     \\/     M anipulation  |
\*---------------------------------------------------------------------------*/
FoamFile
{
    format      ascii;
    class       volScalarField;
    location    "7.3";
    object      p;
}
// * * * * * * * * * * * * * * * * * * * * * * * * * * * * * * * * * * * * * //

dimensions      [0 2 -2 0 0 0 0];

internalField   nonuniform List<scalar> 
10100
(
-2.44894e-07
9.30743e-05
-0.000120117
-0.000681441
-0.00154265
-0.00264932
-0.00394726
-0.00538444
-0.00691393
-0.00849386
-0.0100873
-0.0116621
-0.0131901
-0.014647
-0.0160118
-0.0172664
-0.0183951
-0.0193846
-0.0202241
-0.0209044
-0.0214184
-0.0217599
-0.0219238
-0.0219067
-0.0217064
-0.0213222
-0.0207542
-0.0200035
-0.019072
-0.0179622
-0.0166778
-0.0152227
-0.0136018
-0.0118205
-0.00988486
-0.00780132
-0.00557673
-0.0032184
-0.000734082
0.00186821
0.00458012
0.00739286
0.0102973
0.0132841
0.0163436
0.0194656
0.0226397
0.0258554
0.0291022
0.0323692
0.0356458
0.038921
0.0421836
0.0454228
0.0486275
0.0517867
0.0548894
0.0579246
0.0608818
0.0637506
0.0665209
0.0691826
0.0717261
0.0741418
0.0764205
0.0785537
0.0805336
0.0823527
0.0840044
0.0854825
0.0867815
0.0878963
0.0888232
0.0895592
0.0901027
0.0904526
0.0906095
0.0905748
0.0903516
0.0899441
0.0893583
0.0886016
0.0876829
0.086613
0.0854044
0.0840721
0.0826334
0.0811078
0.0795178
0.0778888
0.0762502
0.0746352
0.0730818
0.071632
0.0703327
0.0692352
0.0683918
0.0678529
0.0676609
0.0677656
-9.01797e-05
7.88864e-06
-0.000195234
-0.00069369
-0.00143782
-0.00238949
-0.00350846
-0.00475355
-0.00608561
-0.00746854
-0.00886974
-0.0102599
-0.011613
-0.0129063
-0.0141197
-0.0152359
-0.0162398
-0.0171186
-0.0178613
-0.0184588
-0.0189036
-0.0191896
-0.0193116
-0.0192659
-0.01905
-0.0186626
-0.0181036
-0.0173736
-0.016474
-0.0154073
-0.0141765
-0.0127853
-0.011238
-0.00953944
-0.00769524
-0.0057113
-0.00359409
-0.00135051
0.00101217
0.00348647
0.00606456
0.00873811
0.0114985
0.014337
0.0172441
0.0202105
0.0232261
0.0262811
0.0293653
0.0324687
0.0355808
0.0386913
0.0417898
0.0448659
0.0479091
0.0509089
0.0538548
0.0567365
0.059544
0.0622678
0.0648983
0.067426
0.0698418
0.0721366
0.0743019
0.0763298
0.0782133
0.0799454
0.08152
0.0829314
0.0841747
0.0852452
0.0861397
0.0868557
0.087392
0.087748
0.0879243
0.0879228
0.0877469
0.0874012
0.0868916
0.0862255
0.0854118
0.084461
0.0833854
0.0821996
0.08092
0.0795655
0.0781569
0.076718
0.0752758
0.0738605
0.0725054
0.0712467
0.0701232
0.0691752
0.0684409
0.0679558
0.0677656
0.0678708
0.000128152
0.000223223
2.21703e-05
-0.000443806
-0.00112136
-0.00197877
-0.0029833
-0.00410036
-0.00529663
-0.00654057
-0.00780313
-0.00905786
-0.010281
-0.0114512
-0.0125496
-0.0135596
-0.0144671
-0.0152597
-0.0159267
-0.0164592
-0.0168496
-0.0170916
-0.0171802
-0.0171116
-0.0168832
-0.0164934
-0.0159418
-0.0152286
-0.0143551
-0.0133232
-0.0121359
-0.0107965
-0.00930891
-0.00767777
-0.00590813
-0.00400552
-0.00197605
0.000173774
0.00243708
0.00480674
0.00727539
0.00983513
0.0124778
0.0151948
0.0179774
0.0208164
0.0237024
0.0266258
0.0295772
0.0325468
0.0355246
0.0385006
0.0414651
0.0444081
0.0473195
0.0501893
0.0530075
0.0557642
0.0584501
0.061056
0.0635729
0.0659918
0.0683039
0.0705008
0.0725743
0.0745171
0.0763226
0.0779845
0.0794969
0.0808547
0.082053
0.0830879
0.0839562
0.0846561
0.0851865
0.0855469
0.0857384
0.085763
0.0856244
0.0853271
0.0848771
0.0842816
0.0835493
0.0826904
0.081717
0.0806429
0.0794839
0.0782575
0.0769834
0.0756837
0.0743831
0.0731088
0.0718905
0.0707595
0.0697491
0.0688926
0.0682214
0.0677651
0.0675757
0.0676809
0.000698975
0.00073602
0.000504661
3.86824e-05
-0.000613408
-0.00142268
-0.00236047
-0.00339686
-0.00450279
-0.0056506
-0.00681425
-0.00797
-0.00909616
-0.0101731
-0.0111831
-0.0121106
-0.0129423
-0.0136666
-0.0142734
-0.0147537
-0.0151003
-0.0153068
-0.0153683
-0.0152811
-0.0150426
-0.0146511
-0.014106
-0.0134073
-0.0125559
-0.0115538
-0.0104033
-0.00910776
-0.0076708
-0.00609677
-0.00439043
-0.00255699
-0.000602211
0.00146777
0.00364649
0.00592713
0.00830261
0.0107655
0.0133078
0.0159215
0.018598
0.0213284
0.0241039
0.0269154
0.0297538
0.0326095
0.035473
0.0383348
0.0411855
0.0440155
0.0468151
0.0495746
0.0522845
0.0549354
0.0575184
0.0600248
0.0624459
0.0647729
0.0669976
0.0691119
0.0711081
0.0729795
0.0747196
0.0763226
0.0777828
0.0790955
0.0802562
0.0812611
0.0821074
0.0827935
0.0833184
0.0836821
0.0838855
0.0839309
0.0838221
0.0835635
0.083161
0.0826214
0.0819533
0.0811666
0.0802728
0.079285
0.078218
0.0770883
0.0759142
0.0747161
0.0735166
0.0723401
0.0712132
0.0701635
0.0692197
0.0684111
0.0677649
0.0673087
0.0670918
0.0671462
0.00157514
0.00149846
0.00120074
0.000706366
5.16455e-05
-0.000737931
-0.00163688
-0.0026195
-0.00366063
-0.0047361
-0.00582287
-0.00689951
-0.00794655
-0.00894609
-0.00988192
-0.0107397
-0.0115067
-0.0121721
-0.0127263
-0.0131611
-0.0134692
-0.0136446
-0.0136826
-0.0135794
-0.0133323
-0.0129399
-0.0124011
-0.011716
-0.0108854
-0.00991102
-0.008795
-0.00754031
-0.00615049
-0.00462956
-0.00298204
-0.00121295
0.000672322
0.00266799
0.00476796
0.00696578
0.00925458
0.0116272
0.0140762
0.0165936
0.0191713
0.0218007
0.0244735
0.0271809
0.029914
0.0326639
0.0354212
0.038177
0.0409221
0.0436473
0.0463431
0.0490003
0.0516099
0.054163
0.0566509
0.0590654
0.0613978
0.06364
0.0657841
0.0678223
0.0697475
0.071553
0.073233
0.0747818
0.076194
0.0774652
0.0785912
0.0795684
0.0803943
0.0810673
0.0815868
0.0819526
0.082166
0.0822294
0.0821464
0.0819214
0.0815599
0.0810686
0.0804557
0.0797307
0.0789045
0.0779893
0.0769991
0.0759491
0.0748562
0.073739
0.0726181
0.0715154
0.0704543
0.0694591
0.0685548
0.0677668
0.0671191
0.0666368
0.0663582
0.0663078
0.0027049
0.00247424
0.00208026
0.00153237
0.000849978
5.51644e-05
-0.000829716
-0.00178248
-0.00278176
-0.0038065
-0.00483648
-0.00585267
-0.00683749
-0.00777491
-0.00865025
-0.00945031
-0.0101634
-0.0107794
-0.0112892
-0.011685
-0.0119601
-0.0121089
-0.0121268
-0.0120102
-0.0117564
-0.0113638
-0.0108315
-0.0101594
-0.00934825
-0.00839951
-0.00731534
-0.00609849
-0.00475225
-0.00328041
-0.00168725
2.24542e-05
0.00184357
0.00377069
0.00579798
0.00791931
0.0101282
0.0124176
0.0147804
0.0172089
0.0196952
0.0222314
0.0248095
0.0274209
0.0300571
0.0327094
0.035369
0.0380272
0.0406751
0.0433038
0.0459043
0.0484676
0.0509852
0.0534486
0.0558494
0.0581796
0.0604309
0.0625956
0.064666
0.0666348
0.0684951
0.0702406
0.0718658
0.0733651
0.0747336
0.0759668
0.077061
0.0780128
0.0788197
0.0794805
0.0799943
0.0803614
0.0805829
0.0806613
0.0806001
0.0804034
0.0800765
0.0796259
0.0790592
0.0783856
0.0776153
0.0767597
0.0758315
0.0748449
0.0738154
0.07276
0.0716969
0.0706459
0.0696276
0.0686631
0.0677742
0.0669824
0.0663093
0.0657769
0.065408
0.0652133
0.00403653
0.0036261
0.00311318
0.00249075
0.00175905
0.000937058
4.43751e-05
-0.000900412
-0.00187877
-0.00287273
-0.00386473
-0.00483801
-0.00577693
-0.00666709
-0.00749524
-0.00824948
-0.00891923
-0.00949502
-0.00996845
-0.0103323
-0.0105802
-0.0107071
-0.0107085
-0.0105811
-0.0103223
-0.00993055
-0.00940485
-0.00874512
-0.00795203
-0.00702697
-0.00597201
-0.00478978
-0.00348336
-0.00205637
-0.000512898
0.00114259
0.00290519
0.0047698
0.00673085
0.00878244
0.0109184
0.0131319
0.0154161
0.0177635
0.0201666
0.0226179
0.0251096
0.0276336
0.0301815
0.0327451
0.0353159
0.0378854
0.040445
0.0429861
0.0455
0.0479782
0.0504126
0.0527948
0.0551169
0.0573709
0.0595491
0.0616438
0.0636479
0.0655542
0.067356
0.0690475
0.0706233
0.0720781
0.0734071
0.0746062
0.0756717
0.0766003
0.0773899
0.0780391
0.0785474
0.0789147
0.0791424
0.0792327
0.0791891
0.0790155
0.0787168
0.0782992
0.0777699
0.0771376
0.0764116
0.0756026
0.0747223
0.0737835
0.0728004
0.0717883
0.0707637
0.0697441
0.0687474
0.0677921
0.0668966
0.0660795
0.06536
0.0647572
0.0642758
0.0639111
0.00552162
0.00491576
0.00426794
0.00355441
0.00275582
0.00188844
0.00096946
1.43391e-05
-0.000961295
-0.00194192
-0.00291243
-0.00385836
-0.00476597
-0.00562233
-0.00641553
-0.00713494
-0.00777098
-0.0083151
-0.00875967
-0.00909799
-0.00932428
-0.00943366
-0.00942211
-0.00928647
-0.00902439
-0.00863429
-0.00811536
-0.00746745
-0.00669122
-0.00578805
-0.00475989
-0.00360927
-0.00233912
-0.000952948
0.000545323
0.0021515
0.003861
0.00566887
0.0075698
0.00955812
0.0116279
0.0137725
0.0159852
0.018259
0.0205867
0.022961
0.0253744
0.0278191
0.0302872
0.0327705
0.035261
0.0377502
0.0402301
0.0426921
0.0451279
0.0475296
0.049889
0.0521982
0.0544494
0.056635
0.0587476
0.0607797
0.0627243
0.0645746
0.0663242
0.0679674
0.069499
0.070914
0.0722078
0.0733762
0.0744158
0.0753236
0.0760974
0.0767358
0.0772383
0.077605
0.0778369
0.0779364
0.0779065
0.0777511
0.0774746
0.0770829
0.0765829
0.0759825
0.0752904
0.0745162
0.0736706
0.0727654
0.0718135
0.0708286
0.0698255
0.0688194
0.067826
0.0668611
0.0659406
0.0650802
0.064297
0.0636076
0.0629978
0.062447
0.00711698
0.00630739
0.005514
0.00469705
0.00381775
0.00289014
0.00192962
0.000948732
-3.95235e-05
-0.00102187
-0.00198543
-0.00291779
-0.00380691
-0.00464139
-0.00541068
-0.00610523
-0.00671649
-0.00723685
-0.00765945
-0.00797822
-0.00818786
-0.00828393
-0.00826273
-0.00812134
-0.00785758
-0.00747004
-0.00695801
-0.00632141
-0.00556089
-0.00467788
-0.00367426
-0.0025524
-0.00131522
3.3939e-05
0.00149135
0.00305299
0.00471448
0.00647111
0.00831781
0.0102491
0.0122591
0.0143415
0.0164897
0.0186971
0.0209567
0.0232616
0.0256045
0.0279779
0.030374
0.0327851
0.0352033
0.0376205
0.0400287
0.0424198
0.0447858
0.0471189
0.0494113
0.0516552
0.0538432
0.0559679
0.0580221
0.0599985
0.0618903
0.0636908
0.065394
0.0669943
0.0684868
0.0698665
0.0711288
0.0722699
0.0732865
0.0741755
0.074935
0.0755634
0.0760602
0.0764253
0.0766597
0.0767657
0.0767462
0.0766044
0.0763447
0.0759724
0.0754941
0.0749171
0.0742492
0.0734991
0.0726765
0.0717922
0.070858
0.0698862
0.0688897
0.0678816
0.0668756
0.0658854
0.0649245
0.064006
0.0631453
0.0623568
0.0616076
0.0608619
0.00878524
0.00776864
0.00682313
0.0058938
0.00492321
0.00392359
0.00290903
0.0018895
0.000875667
-0.000121347
-0.00109059
-0.0020214
-0.00290339
-0.00372663
-0.00448185
-0.00516056
-0.00575527
-0.00625922
-0.0066663
-0.00697104
-0.00716868
-0.00725525
-0.00722743
-0.00708252
-0.0068186
-0.00643446
-0.00592947
-0.00530368
-0.00455781
-0.00369325
-0.00271193
-0.00161617
-0.000408719
0.000907149
0.00232783
0.00384949
0.00546799
0.00717878
0.00897686
0.010857
0.0128135
0.0148401
0.0169306
0.0190785
0.0212773
0.0235202
0.0258
0.0281096
0.0304416
0.0327883
0.0351421
0.0374952
0.0398396
0.0421677
0.0444718
0.0467441
0.0489771
0.0511632
0.0532953
0.0553664
0.0573691
0.0592964
0.0611416
0.0628984
0.0645609
0.0661237
0.0675818
0.0689305
0.0701653
0.0712824
0.0722786
0.0731511
0.0738976
0.0745167
0.0750077
0.0753705
0.0756061
0.0757163
0.0757038
0.0755716
0.0753236
0.0749649
0.0745015
0.0739401
0.0732876
0.0725519
0.0717417
0.0708672
0.0699389
0.0689676
0.0679644
0.0669409
0.0659088
0.06488
0.063866
0.0628774
0.0619284
0.0610315
0.0601359
0.0591913
0.0104946
0.00927076
0.00816955
0.00712166
0.00605187
0.00497106
0.00389228
0.00282347
0.0017731
0.000750364
-0.000235427
-0.00117521
-0.0020601
-0.00288151
-0.00363136
-0.00430233
-0.0048879
-0.00538209
-0.0057795
-0.00607527
-0.00626523
-0.00634582
-0.0063141
-0.00616769
-0.00590497
-0.00552495
-0.00502709
-0.00441157
-0.00367928
-0.00283161
-0.00187039
-0.000797984
0.000382811
0.00166891
0.00305697
0.00454321
0.0061235
0.00779353
0.00954855
0.0113833
0.0132923
0.0152694
0.0173088
0.0194041
0.021549
0.0237369
0.025961
0.0282142
0.0304895
0.0327794
0.0350765
0.037373
0.0396614
0.0419343
0.0441839
0.046403
0.0485839
0.0507196
0.052803
0.0548273
0.0567852
0.0586698
0.0604747
0.0621936
0.0638209
0.0653513
0.0667798
0.0681017
0.0693126
0.070409
0.0713877
0.0722457
0.0729807
0.0735912
0.0740766
0.0744367
0.0746721
0.0747845
0.0747761
0.0746497
0.074409
0.0740586
0.0736041
0.0730512
0.0724061
0.071676
0.0708691
0.0699945
0.0690615
0.0680795
0.0670582
0.0660076
0.064938
0.0638597
0.0627821
0.0617139
0.0606681
0.0596561
0.0586099
0.0574658
0.0122177
0.0107887
0.00953021
0.00835951
0.00718468
0.00601559
0.00486456
0.00373764
0.00264148
0.00158371
0.000572094
-0.000385742
-0.00128227
-0.00211012
-0.00286239
-0.00353284
-0.00411585
-0.00460622
-0.00499919
-0.00529056
-0.0054767
-0.00555445
-0.00552128
-0.00537526
-0.00511493
-0.0047395
-0.00424879
-0.00364307
-0.0029232
-0.0020907
-0.00114753
-9.59714e-05
0.00106134
0.00232133
0.00368064
0.00513568
0.00668253
0.00831693
0.0100342
0.0118291
0.0136964
0.0156302
0.0176249
0.0196742
0.021772
0.0239118
0.0260872
0.0282913
0.0305172
0.0327577
0.0350053
0.0372528
0.0394928
0.0417178
0.0439204
0.0460933
0.0482295
0.0503219
0.0523636
0.0543478
0.0562673
0.0581154
0.0598858
0.0615727
0.0631703
0.0646732
0.0660767
0.067376
0.0685669
0.0696459
0.0706097
0.0714552
0.0721802
0.0727831
0.0732633
0.0736203
0.0738546
0.0739673
0.0739604
0.0738366
0.0735994
0.0732527
0.0728013
0.0722505
0.0716058
0.0708738
0.070062
0.0691785
0.0682315
0.0672291
0.0661797
0.0650921
0.0639755
0.0628385
0.0616888
0.0605333
0.0593843
0.0582525
0.0570539
0.0557118
0.0139308
0.0123001
0.0108843
0.00958821
0.00830416
0.00704139
0.00581168
0.00461949
0.00346996
0.00236933
0.00132399
0.000340267
-0.000575486
-0.00141706
-0.00217866
-0.002855
-0.00344128
-0.00393307
-0.00432627
-0.00461726
-0.00480296
-0.00488072
-0.00484829
-0.00470414
-0.00444726
-0.00407698
-0.00359322
-0.00299653
-0.00228802
-0.00146915
-0.000541816
0.00049161
0.00162845
0.00286572
0.00420019
0.00562836
0.00714635
0.00874993
0.0104345
0.0121951
0.0140265
0.0159231
0.0178792
0.0198889
0.0219462
0.0240448
0.0261784
0.0283404
0.030524
0.0327221
0.0349276
0.0371333
0.0393321
0.0415165
0.0436792
0.0458132
0.0479116
0.0499676
0.0519743
0.0539249
0.0558123
0.0576301
0.0593721
0.0610325
0.0626055
0.0640859
0.0654688
0.0667497
0.0679244
0.0689893
0.0699408
0.070776
0.0714926
0.0720891
0.0725646
0.0729185
0.0731507
0.0732621
0.0732547
0.0731309
0.0728936
0.0725463
0.0720931
0.0715388
0.0708884
0.0701479
0.069324
0.0684239
0.0674546
0.0664232
0.0653373
0.0642046
0.0630329
0.0618296
0.0606008
0.0593519
0.0580951
0.0568406
0.0554892
0.0539517
0.0156135
0.0137849
0.012213
0.0107903
0.00939408
0.00803352
0.00672005
0.00545686
0.00424778
0.00309774
0.00201198
0.000995758
5.42568e-05
-0.000807393
-0.00158436
-0.00227221
-0.0028669
-0.00336466
-0.00376222
-0.00405649
-0.00424468
-0.00432473
-0.00429503
-0.00415423
-0.00390146
-0.00353648
-0.00305954
-0.00247127
-0.00177279
-0.000965727
-5.20997e-05
0.00096572
0.00208512
0.00330319
0.00461668
0.00602212
0.00751567
0.00909321
0.0107502
0.0124818
0.0142829
0.0161481
0.0180719
0.0200483
0.0220715
0.0241355
0.0262341
0.0283608
0.0305089
0.0326717
0.0348422
0.0370134
0.0391779
0.0413286
0.0434584
0.0455605
0.0476282
0.0496545
0.0516327
0.0535559
0.0554174
0.057211
0.0589304
0.0605697
0.0621233
0.063586
0.064953
0.0662198
0.0673819
0.0684357
0.0693777
0.0702049
0.070915
0.0715064
0.0719779
0.0723285
0.072558
0.0726671
0.0726575
0.0725313
0.0722909
0.0719392
0.07148
0.0709174
0.070256
0.0695013
0.068659
0.0677354
0.0667366
0.0656692
0.0645395
0.0633546
0.0621211
0.0608451
0.0595316
0.0581848
0.0568168
0.0554379
0.053934
0.0522045
0.0172476
0.0152255
0.0134992
0.0119496
0.0104395
0.00897802
0.00757683
0.00623804
0.00496428
0.00375945
0.00262777
0.00157344
0.00060058
-0.00028666
-0.00108416
-0.00178823
-0.00239579
-0.00290375
-0.00330917
-0.00360958
-0.00380296
-0.00388757
-0.00386208
-0.00372557
-0.00347755
-0.00311807
-0.00264753
-0.00206673
-0.00137694
-0.000579946
0.000322182
0.00132708
0.00243213
0.00363439
0.00493065
0.00631746
0.00779095
0.00934708
0.0109814
0.0126894
0.0144658
0.0163054
0.0182026
0.0201519
0.0221474
0.0241833
0.0262535
0.0283515
0.0304711
0.0326056
0.034748
0.0368913
0.0390285
0.0411525
0.0432564
0.0453334
0.047377
0.0493801
0.0513361
0.0532384
0.0550803
0.0568556
0.058558
0.0601816
0.0617209
0.0631707
0.0645263
0.0657831
0.0669363
0.0679823
0.0689176
0.0697393
0.0704449
0.0710327
0.0715009
0.0718484
0.0720749
0.072181
0.072168
0.0720374
0.0717912
0.0714321
0.0709631
0.0703882
0.0697114
0.0689373
0.068071
0.067118
0.0660839
0.0649742
0.0637949
0.0625517
0.0612506
0.0598968
0.058494
0.0570456
0.0555641
0.0540597
0.0524044
0.0504863
0.018818
0.0166065
0.0147278
0.0130514
0.0114263
0.00986192
0.00837004
0.00695191
0.00560934
0.00434537
0.0031631
0.00206576
0.0010568
0.000139554
-0.000682895
-0.00140756
-0.00203175
-0.00255316
-0.00296955
-0.00327888
-0.00347956
-0.00357039
-0.00355041
-0.00341904
-0.00317614
-0.00282202
-0.0023573
-0.00178297
-0.00110045
-0.000311639
0.000581289
0.00157594
0.00266969
0.00385957
0.00514232
0.00651445
0.00797219
0.0095116
0.0111283
0.0128177
0.0145749
0.0163945
0.0182711
0.0201994
0.0221734
0.0241875
0.0262357
0.0283118
0.0304095
0.0325224
0.0346434
0.0367657
0.0388824
0.0409865
0.0430713
0.04513
0.0471559
0.0491423
0.0510826
0.0529703
0.0547987
0.0565614
0.0582524
0.0598656
0.0613957
0.0628376
0.0641863
0.065437
0.066585
0.0676266
0.0685583
0.0693772
0.0700805
0.070666
0.0711319
0.071477
0.0717006
0.0718032
0.0717857
0.0716492
0.0713953
0.071026
0.0705444
0.0699537
0.0692576
0.0684598
0.0675648
0.0665775
0.0655028
0.0643458
0.0631115
0.0618051
0.0604316
0.0589954
0.0574997
0.0559471
0.0543504
0.0527201
0.0509146
0.0488114
0.0203111
0.0179141
0.0158848
0.0140822
0.0123416
0.0106729
0.0090881
0.00758794
0.00617329
0.00484633
0.00360959
0.00246547
0.00141636
0.000465033
-0.000385975
-0.00113457
-0.00177873
-0.00231658
-0.00274641
-0.00306679
-0.00327662
-0.00337507
-0.00336154
-0.00323584
-0.00299821
-0.00264917
-0.00218951
-0.00162044
-0.000943636
-0.0001611
0.000724978
0.00171215
0.00279769
0.00397853
0.00525139
0.00661284
0.00805918
0.00958647
0.0111904
0.0128664
0.0146096
0.0164148
0.0182767
0.0201898
0.0221484
0.024147
0.0261796
0.0282403
0.0303228
0.0324206
0.0345269
0.0366349
0.0387378
0.0408289
0.0429012
0.044948
0.0469629
0.048939
0.05087
0.0527493
0.0545701
0.0563261
0.0580112
0.0596196
0.0611457
0.0625844
0.0639306
0.0651793
0.066326
0.0673668
0.0682982
0.0691169
0.06982
0.070405
0.07087
0.0712135
0.0714347
0.0715338
0.0715111
0.0713676
0.0711042
0.0707229
0.0702262
0.0696169
0.0688979
0.0680727
0.0671451
0.0661193
0.0649998
0.0637911
0.0624975
0.0611235
0.0596735
0.0581515
0.0565599
0.0549009
0.0531877
0.0514312
0.049477
0.047192
0.0217145
0.0191357
0.016958
0.0150296
0.0131732
0.0113993
0.00972007
0.00813561
0.00664631
0.00525364
0.00395918
0.00276482
0.00167243
0.00068391
-0.000198885
-0.000974344
-0.00164106
-0.00219768
-0.00264309
-0.00297635
-0.00319674
-0.00330378
-0.00329737
-0.0031777
-0.00294522
-0.00260067
-0.00214514
-0.00158008
-0.000907342
-0.000128977
0.000752728
0.00173517
0.0028155
0.00399061
0.00525728
0.0066121
0.00805134
0.00957105
0.011167
0.0128346
0.0145691
0.0163654
0.0182182
0.020122
0.0220714
0.0240606
0.0260841
0.0281358
0.0302094
0.0322986
0.0343968
0.0364973
0.0385932
0.0406777
0.042744
0.0447856
0.0467958
0.0487682
0.0506962
0.0525732
0.0543925
0.0561476
0.0578324
0.0594414
0.0609687
0.062409
0.0637572
0.0650083
0.0661576
0.0672013
0.0681357
0.068957
0.0696623
0.0702487
0.0707144
0.0710576
0.0712772
0.0713729
0.0713448
0.0711934
0.0709196
0.0705247
0.0700109
0.0693805
0.068636
0.0677803
0.0668167
0.0657491
0.0645812
0.063317
0.0619602
0.0605151
0.0589854
0.0573747
0.0556849
0.0539178
0.0520871
0.0502043
0.0481026
0.0456387
0.023017
0.0202597
0.0179353
0.0158822
0.0139101
0.0120301
0.0102554
0.00858524
0.00701916
0.00555828
0.00420371
0.00295656
0.00181816
0.000789778
-0.000127306
-0.000931954
-0.00162334
-0.00220072
-0.0026634
-0.00301086
-0.00324279
-0.0033592
-0.00336034
-0.00324669
-0.00301896
-0.00267817
-0.00222571
-0.00166324
-0.000992703
-0.000216297
0.000663498
0.00164393
0.0027221
0.00389492
0.00515916
0.00651136
0.00794775
0.0094644
0.0110571
0.0127214
0.0144525
0.0162453
0.0180946
0.0199949
0.0219409
0.0239271
0.0259476
0.0279965
0.0300677
0.0321549
0.0342515
0.0363509
0.0384463
0.0405308
0.0425977
0.0446405
0.0466527
0.0486278
0.050559
0.0524398
0.0542635
0.0560236
0.057714
0.059329
0.0608626
0.0623094
0.0636643
0.0649222
0.0660784
0.0671288
0.0680695
0.0688965
0.0696065
0.0701968
0.070665
0.0710093
0.0712282
0.0713212
0.0712878
0.0711284
0.0708433
0.0704337
0.0699013
0.0692479
0.0684756
0.0675869
0.0665847
0.0654723
0.064253
0.0629301
0.0615072
0.0599879
0.0583759
0.0566742
0.0548843
0.0530076
0.0510586
0.0490496
0.0468015
0.0441612
0.0242082
0.0212754
0.0188062
0.0166291
0.0145417
0.0125555
0.0106843
0.00892707
0.00728274
0.00575185
0.00433513
0.00303311
0.00184652
0.000776218
-0.000177063
-0.00101279
-0.0017306
-0.00233022
-0.0028114
-0.00317403
-0.00341824
-0.00354445
-0.00355323
-0.00344531
-0.00322171
-0.00288378
-0.00243313
-0.0018716
-0.00120127
-0.00042458
0.0004558
0.00143703
0.00251621
0.00369024
0.00495582
0.00630941
0.00774723
0.00926537
0.0108596
0.0125256
0.0142584
0.0160531
0.0179044
0.0198072
0.0217558
0.0237447
0.0257684
0.0278207
0.0298958
0.0319875
0.034089
0.0361939
0.0382952
0.0403862
0.0424602
0.0445108
0.0465314
0.0485154
0.0504561
0.0523469
0.0541811
0.0559522
0.0576539
0.0592803
0.0608255
0.062284
0.0636504
0.0649198
0.0660871
0.0671482
0.0680986
0.0689345
0.0696523
0.0702489
0.0707219
0.071069
0.0712886
0.0713796
0.0713416
0.0711742
0.0708776
0.0704526
0.0699005
0.0692226
0.0684209
0.0674973
0.0664542
0.0652946
0.0640213
0.0626373
0.0611458
0.0595501
0.0578535
0.0560587
0.0541671
0.0521796
0.0501117
0.0479765
0.045583
0.0427682
0.0252788
0.0221729
0.0195606
0.0172604
0.015058
0.0129656
0.0109973
0.009152
0.00742821
0.00582591
0.00434539
0.00298687
0.00175051
0.000636657
-0.000354395
-0.00122262
-0.00196813
-0.00259108
-0.0030916
-0.00347004
-0.00372694
-0.00386306
-0.00387923
-0.0037765
-0.00355621
-0.00321999
-0.00276966
-0.00220724
-0.00153505
-0.000755766
0.000127798
0.00111277
0.00219624
0.00337504
0.00464577
0.00600482
0.00744838
0.00897255
0.0105731
0.0122456
0.0139854
0.0157873
0.0176464
0.0195572
0.0215142
0.023512
0.0255448
0.0276068
0.0296922
0.0317946
0.0339074
0.036024
0.0381377
0.0402417
0.0423294
0.0443942
0.0464296
0.0484289
0.0503854
0.0522924
0.0541432
0.0559313
0.0576501
0.0592936
0.0608558
0.0623312
0.0637142
0.0649998
0.0661827
0.0672584
0.0682225
0.0690708
0.0697994
0.0704052
0.0708854
0.0712375
0.0714594
0.0715499
0.071508
0.0713332
0.0710252
0.0705845
0.0700121
0.0693089
0.0684765
0.0675164
0.0664307
0.0652219
0.0638925
0.0624454
0.0608833
0.0592093
0.0574263
0.0555368
0.0535419
0.0514427
0.0492553
0.0469938
0.0444554
0.0414675
0.0262201
0.0229433
0.0201891
0.0177667
0.0154497
0.0132508
0.0111852
0.00925107
0.00744678
0.00577201
0.00422655
0.00281022
0.00152284
0.000364265
-0.000665715
-0.00156749
-0.00234159
-0.00298852
-0.0035089
-0.00390348
-0.00417314
-0.00431891
-0.00434193
-0.00424359
-0.00402556
-0.00368968
-0.00323796
-0.00267268
-0.00199647
-0.00121219
-0.000322693
0.000669123
0.00176029
0.0029475
0.00422724
0.00559585
0.0070495
0.00858426
0.0101959
0.01188
0.0136319
0.0154465
0.0173188
0.0192433
0.0212146
0.023227
0.0252751
0.027353
0.0294548
0.0315742
0.0337046
0.0358395
0.037972
0.0400956
0.0422033
0.0442888
0.0463453
0.0483663
0.0503449
0.0522745
0.0541481
0.055959
0.0577008
0.0593672
0.0609521
0.0624497
0.0638546
0.0651612
0.0663643
0.067459
0.0684408
0.0693052
0.0700483
0.0706664
0.0711565
0.0715158
0.0717421
0.0718336
0.0717892
0.0716078
0.071289
0.0708328
0.0702399
0.0695109
0.068647
0.0676493
0.0665196
0.0652601
0.0638732
0.0623613
0.060727
0.058973
0.0571019
0.0551163
0.053017
0.050805
0.0484975
0.0461094
0.0434264
0.0402664
0.0270241
0.0235781
0.0206831
0.0181389
0.0157075
0.0134022
0.0112388
0.00921537
0.00732987
0.00558176
0.0039705
0.00249549
0.00115618
-4.80127e-05
-0.0011177
-0.00205367
-0.00285683
-0.00352812
-0.00406856
-0.00447926
-0.00476137
-0.0049162
-0.00494527
-0.00485031
-0.00463322
-0.00429604
-0.00384105
-0.00327086
-0.00258837
-0.0017965
-0.00089813
0.000103796
0.00120615
0.00240547
0.00369814
0.00508048
0.00654862
0.0080986
0.00972619
0.0114269
0.0131962
0.0150289
0.0169198
0.0188637
0.0208549
0.0228881
0.0249575
0.0270573
0.0291817
0.0313244
0.0334788
0.0356383
0.0377962
0.0399457
0.04208
0.0441926
0.0462767
0.0483257
0.0503329
0.0522912
0.0541938
0.0560338
0.0578046
0.0594997
0.061113
0.0626385
0.0640705
0.0654032
0.0666313
0.0677497
0.0687536
0.0696382
0.0703993
0.0710331
0.0715361
0.0719054
0.0721384
0.072233
0.0721875
0.0720009
0.0716722
0.0712011
0.0705879
0.069833
0.0689371
0.0679011
0.0667266
0.0654154
0.0639697
0.0623918
0.0606838
0.0588483
0.0568878
0.0548047
0.0525998
0.0502741
0.0478458
0.0453308
0.0425031
0.0391712
0.027683
0.0240689
0.021034
0.0183683
0.0158226
0.0134108
0.0111493
0.00903614
0.00706893
0.00524688
0.0035692
0.0020349
0.000643045
-0.000607316
-0.00171714
-0.00268759
-0.00351998
-0.0042157
-0.00477608
-0.00520248
-0.00549638
-0.00565946
-0.00569357
-0.00560069
-0.00538293
-0.00504261
-0.00458238
-0.00400514
-0.0033139
-0.00251162
-0.00160122
-0.000585816
0.000531267
0.00174645
0.00305606
0.00445639
0.00594352
0.00751342
0.00916182
0.0108843
0.0126761
0.0145322
0.0164474
0.0184163
0.0204333
0.022493
0.0245898
0.0267178
0.028871
0.0310432
0.033228
0.0354185
0.0376082
0.0397901
0.0419575
0.0441037
0.0462219
0.0483055
0.0503476
0.0523411
0.0542789
0.0561541
0.05796
0.05969
0.0613376
0.0628966
0.0643611
0.0657253
0.0669835
0.0681304
0.0691608
0.0700699
0.070853
0.0715061
0.0720255
0.0724079
0.0726501
0.07275
0.0727056
0.0725153
0.072178
0.071693
0.0710603
0.0702798
0.0693519
0.0682773
0.0670574
0.0656939
0.0641887
0.0625436
0.0607608
0.0588426
0.0567914
0.0546096
0.0522979
0.0498575
0.0473077
0.044665
0.0416923
0.0381882
0.0281891
0.0244076
0.0212332
0.0184463
0.0157862
0.0132677
0.010908
0.00870476
0.0066555
0.00475915
0.00301463
0.00142065
-2.40751e-05
-0.00132079
-0.00247085
-0.0034758
-0.00433737
-0.00505725
-0.00563704
-0.00607843
-0.00638325
-0.00655354
-0.00659139
-0.00649899
-0.00627874
-0.00593336
-0.00546582
-0.00487917
-0.00417645
-0.00336068
-0.00243498
-0.00140268
-0.000267272
0.000967627
0.00229832
0.00372101
0.00523168
0.00682623
0.00850037
0.0102496
0.0120693
0.0139542
0.0158992
0.0178988
0.0199474
0.0220397
0.0241698
0.0263321
0.0285204
0.0307285
0.03295
0.0351781
0.037406
0.0396269
0.0418339
0.0440202
0.0461792
0.0483039
0.0503873
0.0524223
0.0544018
0.0563186
0.0581659
0.0599368
0.0616246
0.0632231
0.0647259
0.066127
0.0674206
0.068601
0.0696629
0.0706009
0.0714103
0.0720867
0.0726261
0.0730248
0.0732795
0.0733874
0.0733464
0.0731545
0.0728103
0.0723128
0.0716615
0.0708561
0.0698967
0.0687837
0.0675184
0.0661022
0.0645368
0.0628238
0.0609652
0.0589632
0.0568202
0.0545385
0.052119
0.0495629
0.0468905
0.0441194
0.0410006
0.0373235
0.0285347
0.0245861
0.0212723
0.0183643
0.0155898
0.0129644
0.0105062
0.00821275
0.00608122
0.00411034
0.00229877
0.000644988
-0.000852634
-0.00219567
-0.00338586
-0.0044251
-0.00531545
-0.00605885
-0.00665727
-0.00711272
-0.00742739
-0.00760354
-0.00764352
-0.00754978
-0.00732515
-0.00697267
-0.00649552
-0.00589678
-0.00517958
-0.00434713
-0.00340282
-0.00235016
-0.00119268
6.59529e-05
0.00142198
0.00287146
0.00441027
0.00603425
0.0077391
0.0095203
0.011373
0.0132923
0.0152726
0.0173086
0.0193947
0.0215255
0.0236951
0.0258978
0.0281275
0.030378
0.0326426
0.0349147
0.0371874
0.0394538
0.041707
0.0439403
0.0461466
0.0483189
0.0504503
0.0525334
0.0545611
0.0565259
0.0584209
0.0602389
0.0619732
0.0636171
0.0651641
0.0666079
0.0679424
0.0691617
0.07026
0.0712319
0.0720721
0.0727762
0.0733396
0.0737584
0.0740289
0.0741479
0.074113
0.073922
0.073573
0.0730648
0.0723963
0.0715671
0.070577
0.0694262
0.0681157
0.0666468
0.0650209
0.0632395
0.0613044
0.0592177
0.0569818
0.0545991
0.0520707
0.0493977
0.0466016
0.0437007
0.0404348
0.0365833
0.0287123
0.0245963
0.0211429
0.0181136
0.0152246
0.0124923
0.0099355
0.00755165
0.00533773
0.00329225
0.00141364
-0.000299876
-0.00185023
-0.00323936
-0.00446934
-0.00554236
-0.00646076
-0.00722683
-0.00784289
-0.00831127
-0.0086344
-0.00881476
-0.00885501
-0.00875804
-0.00852701
-0.00816517
-0.00767575
-0.00706197
-0.00632714
-0.0054748
-0.0045085
-0.00343184
-0.00224837
-0.000961836
0.00042385
0.0019046
0.0034762
0.00513447
0.00687506
0.00869339
0.0105846
0.0125435
0.0145648
0.016643
0.0187725
0.0209478
0.0231631
0.0254125
0.0276899
0.029989
0.0323033
0.0346259
0.03695
0.0392686
0.0415748
0.0438616
0.046122
0.0483488
0.0505348
0.0526727
0.0547551
0.0567746
0.0587238
0.0605954
0.0623824
0.064078
0.0656754
0.0671679
0.068549
0.0698126
0.0709528
0.0719636
0.0728397
0.0735761
0.0741679
0.0746109
0.0749009
0.0750346
0.075009
0.0748216
0.0744703
0.0739534
0.0732696
0.0724181
0.0713984
0.0702106
0.0688555
0.0673341
0.0656477
0.0637975
0.0617854
0.0596133
0.0572836
0.054799
0.0521604
0.0493693
0.046448
0.043416
0.0400013
0.0359735
0.0287142
0.0244304
0.020837
0.0176861
0.0146824
0.0118429
0.00918737
0.00671301
0.00441667
0.00229667
0.00035119
-0.00142186
-0.00302464
-0.00445943
-0.00572858
-0.0068346
-0.00778013
-0.00856783
-0.00920031
-0.00968017
-0.0100101
-0.0101928
-0.0102314
-0.0101292
-0.00988944
-0.0095156
-0.00901098
-0.00837904
-0.00762343
-0.00674788
-0.00575603
-0.00465149
-0.00343793
-0.00211925
-0.000699529
0.00081704
0.0024262
0.00412371
0.00590514
0.00776584
0.00970082
0.0117049
0.0137728
0.015899
0.0180779
0.0203039
0.022571
0.0248734
0.0272049
0.0295591
0.0319295
0.0343093
0.0366915
0.0390691
0.041435
0.0437822
0.0461035
0.0483915
0.0506391
0.0528386
0.0549826
0.0570633
0.0590734
0.0610053
0.0628516
0.0646054
0.0662594
0.0678067
0.0692405
0.0705543
0.0717419
0.0727972
0.0737144
0.0744881
0.0751131
0.0755847
0.0758984
0.0760506
0.0760379
0.0758574
0.0755066
0.0749835
0.0742864
0.0734144
0.0723666
0.071143
0.0697442
0.0681708
0.0664241
0.0645051
0.0624156
0.0601575
0.0577333
0.0551457
0.0523959
0.0494852
0.0464371
0.0432722
0.0397066
0.0355
0.0285327
0.0240803