/*--------------------------------*- C++ -*----------------------------------*\
  =========                 |
  \\      /  F ield         | OpenFOAM: The Open Source CFD Toolbox
   \\    /   O peration     | Website:  https://openfoam.org
    \\  /    A nd           | Version:  11
     \\/     M anipulation  |
\*---------------------------------------------------------------------------*/
FoamFile
{
    format      ascii;
    class       surfaceScalarField;
    location    "7.3";
    object      phi;
}
// * * * * * * * * * * * * * * * * * * * * * * * * * * * * * * * * * * * * * //

dimensions      [0 3 -1 0 0 0 0];

internalField   nonuniform List<scalar> 
19980
(
6.99695e-07
-6.98907e-07
2.38077e-06
-1.68105e-06
4.21147e-06
-1.83066e-06
5.63201e-06
-1.42068e-06
6.32456e-06
-6.92757e-07
6.11463e-06
2.10024e-07
4.91405e-06
1.20055e-06
2.69111e-06
2.22309e-06
-5.51357e-07
3.2424e-06
-4.78714e-06
4.23569e-06
-9.97517e-06
5.18803e-06
-1.60645e-05
6.08923e-06
-2.29969e-05
6.93245e-06
-3.07103e-05
7.71344e-06
-3.91396e-05
8.42946e-06
-4.82183e-05
9.07878e-06
-5.78791e-05
9.66064e-06
-6.8054e-05
1.01749e-05
-7.8676e-05
1.0622e-05
-8.9679e-05
1.1003e-05
-0.000100998
1.13188e-05
-0.000112568
1.15708e-05
-0.000124328
1.17602e-05
-0.000136217
1.18888e-05
-0.000148175
1.19582e-05
-0.000160146
1.19704e-05
-0.000172073
1.19275e-05
-0.000183904
1.18311e-05
-0.000195588
1.16834e-05
-0.000207075
1.14865e-05
-0.000218317
1.12424e-05
-0.00022927
1.09532e-05
-0.000239891
1.06211e-05
-0.000250139
1.0248e-05
-0.000259975
9.83621e-06
-0.000269363
9.38776e-06
-0.000278268
8.90476e-06
-0.000286657
8.38934e-06
-0.000294501
7.84361e-06
-0.000301771
7.26972e-06
-0.00030844
6.66973e-06
-0.000314486
6.04576e-06
-0.000319886
5.39999e-06
-0.000324621
4.73461e-06
-0.000328673
4.05187e-06
-0.000332027
3.35403e-06
-0.00033467
2.64344e-06
-0.000336593
1.92261e-06
-0.000337787
1.19383e-06
-0.000338246
4.59447e-07
-0.000337968
-2.78031e-07
-0.000336952
-1.01635e-06
-0.000335199
-1.75307e-06
-0.000332713
-2.48556e-06
-0.000329501
-3.2115e-06
-0.000325573
-3.92846e-06
-0.00032094
-4.63353e-06
-0.000315616
-5.32388e-06
-0.000309619
-5.99702e-06
-0.000302969
-6.65035e-06
-0.000295687
-7.28107e-06
-0.000287801
-7.88655e-06
-0.000279337
-8.46405e-06
-0.000270326
-9.01061e-06
-0.000260803
-9.52327e-06
-0.000250804
-9.99936e-06
-0.000240367
-1.04364e-05
-0.000229535
-1.08317e-05
-0.000218353
-1.11827e-05
-0.000206866
-1.14867e-05
-0.000195125
-1.17415e-05
-0.00018318
-1.19444e-05
-0.000171087
-1.20929e-05
-0.000158902
-1.2185e-05
-0.000146683
-1.22189e-05
-0.000134491
-1.21927e-05
-0.000122386
-1.21043e-05
-0.000110434
-1.19524e-05
-9.86983e-05
-1.17355e-05
-8.7246e-05
-1.14524e-05
-7.61442e-05
-1.11019e-05
-6.54608e-05
-1.06833e-05
-5.52645e-05
-1.01963e-05
-4.56234e-05
-9.64114e-06
-3.66053e-05
-9.01816e-06
-2.82767e-05
-8.32857e-06
-2.07023e-05
-7.57437e-06
-1.3944e-05
-6.75828e-06
-8.06004e-06
-5.88401e-06
-3.103e-06
-4.95699e-06
8.82262e-07
-3.98522e-06
3.86243e-06
-2.98023e-06
5.82089e-06
-1.95851e-06
6.76526e-06
-9.44356e-07
6.73995e-06
2.53834e-08
5.84636e-06
8.93565e-07
4.27492e-06
1.57133e-06
2.35892e-06
1.91597e-06
6.6655e-07
1.69244e-06
6.66559e-07
1.70377e-06
-2.40284e-06
4.65166e-06
-4.62891e-06
7.44514e-06
-4.62412e-06
9.09718e-06
-3.07258e-06
8.92641e-06
-5.22019e-07
6.49543e-06
2.64111e-06
1.55e-06
6.1458e-06
-6.03322e-06
9.80632e-06
-1.62845e-05
1.34936e-05
-2.91679e-05
1.71191e-05
-4.46004e-05
2.06207e-05
-6.24659e-05
2.39547e-05
-8.26246e-05
2.70911e-05
-0.00010492
3.00087e-05
-0.000129184
3.26935e-05
-0.000155241
3.51364e-05
-0.000182912
3.73316e-05
-0.000212014
3.92767e-05
-0.000242364
4.09716e-05
-0.000273779
4.24182e-05
-0.000306079
4.36192e-05
-0.000339088
4.45786e-05
-0.000372628
4.53011e-05
-0.000406532
4.57921e-05
-0.000440631
4.60578e-05
-0.000474766
4.61049e-05
-0.000508778
4.59402e-05
-0.000542518
4.55709e-05
-0.000575839
4.50043e-05
-0.0006086
4.42481e-05
-0.000640668
4.331e-05
-0.000671913
4.21979e-05
-0.000702212
4.092e-05
-0.000731448
3.94841e-05
-0.00075951
3.78982e-05
-0.000786293
3.61705e-05
-0.000811697
3.43091e-05
-0.000835629
3.2322e-05
-0.000858004
3.02176e-05
-0.000878738
2.80042e-05
-0.000897758
2.569e-05
-0.000914996
2.32834e-05
-0.000930389
2.07927e-05
-0.000943881
1.82266e-05
-0.000955422
1.55937e-05
-0.000964971
1.2903e-05
-0.000972491
1.01633e-05
-0.000977952
7.38383e-06
-0.000981332
4.57387e-06
-0.000982615
1.74237e-06
-0.000981792
-1.10125e-06
-0.000978861
-3.94737e-06
-0.000973828
-6.78658e-06
-0.000966704
-9.60927e-06
-0.00095751
-1.24056e-05
-0.000946273
-1.51657e-05
-0.000933027
-1.78795e-05
-0.000917814
-2.05366e-05
-0.000900685
-2.31264e-05
-0.000881696
-2.56389e-05
-0.000860914
-2.80635e-05
-0.000838411
-3.03897e-05
-0.000814268
-3.2607e-05
-0.000788574
-3.47047e-05
-0.000761425
-3.66721e-05
-0.000732925
-3.84989e-05
-0.000703187
-4.01749e-05
-0.000672329
-4.169e-05
-0.000640477
-4.30346e-05
-0.000607764
-4.41989e-05
-0.000574333
-4.51735e-05
-0.000540328
-4.59492e-05
-0.000505903
-4.65175e-05
-0.000471218
-4.68704e-05
-0.000436437
-4.70002e-05
-0.000401729
-4.69002e-05
-0.000367269
-4.65641e-05
-0.000333235
-4.59863e-05
-0.000299809
-4.51617e-05
-0.000267175
-4.40864e-05
-0.000235519
-4.27575e-05
-0.000205029
-4.11733e-05
-0.000175892
-3.93336e-05
-0.000148293
-3.72402e-05
-0.000122415
-3.48967e-05
-9.84335e-05
-3.23098e-05
-7.65194e-05
-2.94885e-05
-5.68313e-05
-2.64463e-05
-3.9514e-05
-2.32013e-05
-2.46922e-05
-1.97788e-05
-1.2464e-05
-1.62134e-05
-2.89109e-06
-1.25532e-05
4.01489e-06
-8.86448e-06
8.31101e-06
-5.24047e-06
1.01496e-05
-1.81327e-06
9.81524e-06
1.22789e-06
7.77421e-06
3.61236e-06
4.73365e-06
4.95665e-06
1.69086e-06
4.73523e-06
2.35737e-06
1.886e-06
-4.28873e-06
4.73593e-06
-7.47884e-06
6.82994e-06
-6.71818e-06
6.97615e-06
-3.2188e-06
4.31402e-06
2.14007e-06
-1.74335e-06
8.69831e-06
-1.15626e-05
1.5965e-05
-2.53399e-05
2.35837e-05
-4.31424e-05
3.1296e-05
-6.49387e-05
3.89153e-05
-9.06246e-05
4.63066e-05
-0.000120042
5.33719e-05
-0.000152991
6.00408e-05
-0.000189245
6.62629e-05
-0.000228555
7.20031e-05
-0.000270656
7.72374e-05
-0.000315275
8.19505e-05
-0.000362132
8.61338e-05
-0.000410945
8.97844e-05
-0.00046143
9.29033e-05
-0.000513305
9.54948e-05
-0.000566293
9.75661e-05
-0.000620117
9.91259e-05
-0.000674511
0.000100185
-0.000729209
0.000100756
-0.000783956
0.000100852
-0.000838504
0.000100488
-0.000892611
9.96777e-05
-0.000946044
9.84377e-05
-0.00099858
9.67839e-05
-0.00105
9.47326e-05
-0.00110011
9.2301e-05
-0.00114869
8.95061e-05
-0.00119557
8.63652e-05
-0.00124057
8.28959e-05
-0.00128352
7.91158e-05
-0.00132425
7.50425e-05
-0.00136262
7.06939e-05
-0.00139849
6.60882e-05
-0.00143173
6.12434e-05
-0.00146222
5.61778e-05
-0.00148985
5.09098e-05
-0.00151451
4.54581e-05
-0.00153613
3.98415e-05
-0.00155461
3.40791e-05
-0.0015699
2.81902e-05
-0.00158193
2.21947e-05
-0.00159066
1.61124e-05
-0.00159605
9.96326e-06
-0.00159807
3.7677e-06
-0.00159672
-2.45389e-06
-0.00159199
-8.68069e-06
-0.00158388
-1.48916e-05
-0.00157243
-2.10652e-05
-0.00155765
-2.71802e-05
-0.0015396
-3.32145e-05
-0.00151834
-3.91461e-05
-0.00149392
-4.49524e-05
-0.00146644
-5.0611e-05
-0.00143598
-5.60991e-05
-0.00140265
-6.13939e-05
-0.00136656
-6.64725e-05
-0.00132786
-7.1312e-05
-0.00128667
-7.58895e-05
-0.00124316
-8.0182e-05
-0.00119749
-8.4167e-05
-0.00114985
-8.78225e-05
-0.00110041
-9.11269e-05
-0.00104939
-9.40586e-05
-0.000996988
-9.65971e-05
-0.000943439
-9.87223e-05
-0.000888974
-0.000100415
-0.000833835
-0.000101656
-0.000778276
-0.000102429
-0.000722558
-0.000102719
-0.000666949
-0.000102509
-0.000611725
-0.000101788
-0.000557167
-0.000100544
-0.000503561
-9.87674e-05
-0.000451197
-9.64507e-05
-0.000400365
-9.35891e-05
-0.000351358
-9.01807e-05
-0.000304464
-8.62271e-05
-0.00025997
-8.17342e-05
-0.000218154
-7.67125e-05
-0.000179286
-7.11783e-05
-0.000143619
-6.51555e-05
-0.000111389
-5.86764e-05
-8.28049e-05
-5.17851e-05
-5.80429e-05
-4.45408e-05
-3.72334e-05
-3.70228e-05
-2.0449e-05
-2.93376e-05
-7.68501e-06
-2.16285e-05
1.1637e-06
-1.40892e-05
6.33369e-06
-6.98324e-06
8.23168e-06
-6.70072e-07
7.48176e-06
4.36227e-06
4.97528e-06
7.46311e-06
1.92012e-06
7.79037e-06
4.27752e-06
1.50216e-06
-5.79111e-06
3.26561e-06
-9.24213e-06
3.47558e-06
-6.92824e-06
8.60226e-07
-6.03417e-07
-5.51242e-06
8.51295e-06
-1.62967e-05
1.94826e-05
-3.19174e-05
3.15859e-05
-5.26136e-05
4.42798e-05
-7.84754e-05
5.71579e-05
-0.000109476
6.99162e-05
-0.000145498
8.23283e-05
-0.000186352
9.42257e-05
-0.000231795
0.000105484
-0.000281544
0.000116012
-0.000335285
0.000125744
-0.000392681
0.000134634
-0.000453381
0.00014265
-0.000517023
0.000149775
-0.000583238
0.000155999
-0.000651656
0.000161321
-0.000721906
0.000165745
-0.00079362
0.00016928
-0.000866435
0.000171941
-0.000939994
0.000173744
-0.00101395
0.000174708
-0.00108795
0.000174855
-0.00116167
0.000174208
-0.00123478
0.000172794
-0.00130698
0.000170637
-0.00137796
0.000167765
-0.00144744
0.000164205
-0.00151512
0.000159988
-0.00158076
0.000155141
-0.00164409
0.000149694
-0.00170487
0.000143678
-0.00176288
0.000137123
-0.00181789
0.000130059
-0.00186972
0.000122518
-0.00191816
0.000114531
-0.00196305
0.000106129
-0.00200421
9.73435e-05
-0.00204151
8.82076e-05
-0.0020748
7.87533e-05
-0.00210398
6.90135e-05
-0.00212892
5.90214e-05
-0.00214954
4.88104e-05
-0.00216576
3.84149e-05
-0.00217752
2.78694e-05
-0.00218476
1.72087e-05
-0.00218746
6.46817e-06
-0.0021856
-4.31654e-06
-0.00217917
-1.51092e-05
-0.00216819
-2.58732e-05
-0.00215268
-3.65715e-05
-0.0021327
-4.71665e-05
-0.00210829
-5.76203e-05
-0.00207954
-6.78943e-05
-0.00204655
-7.795e-05
-0.00200941
-8.77481e-05
-0.00196826
-9.72495e-05
-0.00192324
-0.000106415
-0.00187451
-0.000115204
-0.00182224
-0.000123579
-0.00176663
-0.000131499
-0.00170789
-0.000138925
-0.00164623
-0.000145819
-0.00158191
-0.000152143
-0.00151518
-0.000157859
-0.00144631
-0.000162931
-0.00137558
-0.000167324
-0.0013033
-0.000171004
-0.00122978
-0.000173938
-0.00115534
-0.000176094
-0.00108032
-0.000177445
-0.00100508
-0.000177963
-0.000929966
-0.000177624
-0.000855348
-0.000176407
-0.000781599
-0.000174293
-0.000709099
-0.000171267
-0.00063823
-0.00016732
-0.000569376
-0.000162443
-0.000502919
-0.000156638
-0.000439238
-0.000149908
-0.000378705
-0.000142268
-0.00032168
-0.000133737
-0.000268509
-0.00012435
-0.000219515
-0.000114149
-0.000174995
-0.000103196
-0.000135209
-9.15711e-05
-0.00010037
-7.93796e-05
-7.06326e-05
-6.67605e-05
-4.60745e-05
-5.38958e-05
-2.6679e-05
-4.1024e-05
-1.2309e-05
-2.84591e-05
-2.67765e-06
-1.66147e-05
2.68764e-06
-6.03544e-06
4.48589e-06
2.56396e-06
3.68767e-06
8.2613e-06
1.59297e-06
9.88512e-06
5.87054e-06
7.97404e-07
-6.58862e-06
7.88416e-07
-9.23327e-06
-1.74559e-06
-4.39426e-06
-8.05152e-06
5.70258e-06
-1.90567e-05
1.95178e-05
-3.54235e-05
3.58494e-05
-5.75908e-05
5.37532e-05
-8.581e-05
7.2499e-05
-0.000120178
9.15254e-05
-0.000160663
0.000110402
-0.000207134
0.000128799
-0.000259376
0.000146468
-0.00031711
0.000163218
-0.000380007
0.000178909
-0.0004477
0.000193437
-0.000519792
0.000206726
-0.000595865
0.000218724
-0.000675488
0.000229398
-0.000758217
0.000238729
-0.000843606
0.00024671
-0.000931208
0.000253346
-0.00102057
0.000258647
-0.00111126
0.00026263
-0.00120284
0.000265318
-0.00129487
0.000266739
-0.00138694
0.000266923
-0.00147863
0.000265905
-0.00156956
0.000263722
-0.00165933
0.000260411
-0.00174758
0.000256013
-0.00183395
0.000250569
-0.00191808
0.000244124
-0.00199966
0.000236719
-0.00207837
0.000228401
-0.0021539
0.000219215
-0.00222599
0.000209206
-0.00229435
0.000198422
-0.00235874
0.000186909
-0.00241893
0.000174715
-0.00247469
0.000161889
-0.00252582
0.000148478
-0.00257215
0.000134533
-0.0026135
0.000120102
-0.00264972
0.000105235
-0.00268068
8.99845e-05
-0.00270627
7.44008e-05
-0.00272639
5.85363e-05
-0.00274097
4.24436e-05
-0.00274993
2.61761e-05
-0.00275325
9.78781e-06
-0.0027509
-6.6665e-06
-0.00274288
-2.31316e-05
-0.0027292
-3.95514e-05
-0.0027099
-5.58693e-05
-0.00268504
-7.20279e-05
-0.00265469
-8.79692e-05
-0.00261895
-0.000103635
-0.00257794
-0.000118965
-0.00253178
-0.000133902
-0.00248065
-0.000148384
-0.00242471
-0.000162353
-0.00236417
-0.000175747
-0.00229924
-0.000188508
-0.00223016
-0.000200576
-0.00215719
-0.000211892
-0.00208062
-0.000222396
-0.00200073
-0.000232033
-0.00191784
-0.000240745
-0.00183229
-0.000248479
-0.00174444
-0.000255179
-0.00165464
-0.000260797
-0.0015633
-0.000265283
-0.0014708
-0.00026859
-0.00137757
-0.000270677
-0.00128403
-0.000271503
-0.00119062
-0.000271033
-0.00109779
-0.000269236
-0.001006
-0.000266086
-0.000915704
-0.000261563
-0.00082737
-0.000255653
-0.000741464
-0.000248349
-0.000658448
-0.000239654
-0.000578779
-0.000229578
-0.000502902
-0.000218145
-0.000431248
-0.000205391
-0.000364227
-0.00019137
-0.000302222
-0.000176154
-0.000245579
-0.000159839
-0.000194599
-0.00014255
-0.000149529
-0.00012445
-0.000110541
-0.000105748
-7.77242e-05
-8.67129e-05
-5.10579e-05
-6.76903e-05
-3.03929e-05
-4.91241e-05
-1.54231e-05
-3.15846e-05
-5.655e-06
-1.58035e-05
-3.73714e-07
-2.71735e-06
1.39658e-06
6.49094e-06
9.44928e-07
1.03368e-05
6.81544e-06
-8.44399e-08
-6.50408e-06
-2.30694e-06
-7.01064e-06
-8.18011e-06
1.47882e-06
-1.88453e-05
1.63677e-05
-3.51653e-05
3.58381e-05
-5.77654e-05
5.84494e-05
-8.70619e-05
8.30497e-05
-0.000123292
0.000108729
-0.00016654
0.000134773
-0.00021676
0.000160622
-0.000273801
0.00018584
-0.000337421
0.000210088
-0.000407309
0.000233106
-0.000483096
0.000254696
-0.000564368
0.000274709
-0.000650677
0.000293034
-0.000741548
0.000309595
-0.000836488
0.000324337
-0.000934991
0.000337232
-0.00103654
0.000348263
-0.00114063
0.000357431
-0.00124673
0.000364747
-0.00135433
0.000370232
-0.00146293
0.000373915
-0.00157202
0.000375831
-0.00168112
0.000376022
-0.00178974
0.000374532
-0.00189743
0.000371411
-0.00200373
0.000366711
-0.00210821
0.000360488
-0.00221044
0.000352799
-0.00231002
0.000343703
-0.00240656
0.000333261
-0.00249969
0.000321535
-0.00258907
0.000308589
-0.00267435
0.000294487
-0.00275522
0.000279294
-0.00283139
0.000263076
-0.00290257
0.000245901
-0.00296852
0.000227835
-0.00302899
0.000208948
-0.00308377
0.000189309
-0.00313265
0.000168987
-0.00317547
0.000148054
-0.00321206
0.00012658
-0.0032423
0.000104639
-0.00326607
8.23036e-05
-0.00328327
5.96485e-05
-0.00329385
3.67488e-05
-0.00329774
1.36806e-05
-0.00329493
-9.47906e-06
-0.00328541
-3.2652e-05
-0.0032692
-5.57594e-05
-0.00324635
-7.87214e-05
-0.00321692
-0.000101457
-0.003181
-0.000123886
-0.00313871
-0.000145924
-0.00309019
-0.000167489
-0.00303559
-0.000188499
-0.00297511
-0.000208868
-0.00290895
-0.000228513
-0.00283734
-0.000247351
-0.00276055
-0.000265297
-0.00267886
-0.000282268
-0.00259257
-0.000298182
-0.00250201
-0.000312958
-0.00240753
-0.000326515
-0.0023095
-0.000338775
-0.00220831
-0.000349663
-0.00210439
-0.000359104
-0.00199816
-0.000367028
-0.00189007
-0.000373368
-0.0017806
-0.00037806
-0.00167023
-0.000381046
-0.00155946
-0.000382272
-0.00144881
-0.000381691
-0.00133878
-0.00037926
-0.00122992
-0.000374946
-0.00112276
-0.000368723
-0.00101784
-0.000360574
-0.000915697
-0.000350494
-0.000816862
-0.000338489
-0.000721859
-0.00032458
-0.000631201
-0.000308802
-0.00054538
-0.000291213
-0.00046486
-0.00027189
-0.000390075
-0.000250939
-0.000321417
-0.000228498
-0.000259223
-0.000204744
-0.000203768
-0.000179905
-0.000155249
-0.000154267
-0.000113769
-0.000128193
-7.93172e-05
-0.000102142
-5.17515e-05
-7.66898e-05
-3.07742e-05
-5.2562e-05
-1.59068e-05
-3.06708e-05
-6.46389e-06
-1.21603e-05
-1.52219e-06
1.54916e-06
1.16653e-07
8.69805e-06
6.93202e-06
-1.05662e-06
-5.44745e-06
-5.75978e-06
-2.30752e-06
-1.5362e-05
1.10809e-05
-3.08465e-05
3.18524e-05
-5.29697e-05
5.79613e-05
-8.22825e-05
8.77625e-05
-0.00011915
0.000119917
-0.000163772
0.000153351
-0.000216202
0.000187203
-0.000276368
0.000220788
-0.000344089
0.000253561
-0.000419097
0.000285095
-0.000501045
0.000315054
-0.000589527
0.000343179
-0.000684088
0.000369269
-0.000784231
0.000393178
-0.000889433
0.000414796
-0.000999146
0.00043405
-0.00111281
0.000450893
-0.00122984
0.000465299
-0.00134968
0.000477265
-0.00147173
0.0004868
-0.00159543
0.000493927
-0.00172019
0.000498681
-0.00184547
0.000501105
-0.0019707
0.000501251
-0.00209534
0.000499176
-0.00221887
0.000494943
-0.00234078
0.00048862
-0.00246057
0.000480278
-0.00257777
0.000469991
-0.0026919
0.000457838
-0.00280254
0.000443898
-0.00290926
0.000428253
-0.00301166
0.000410987
-0.00310935
0.000392184
-0.00320199
0.000371931
-0.00328923
0.000350315
-0.00337076
0.000327427
-0.00344627
0.000303354
-0.00351552
0.000278189
-0.00357823
0.000252024
-0.00363419
0.000224951
-0.00368321
0.000197066
-0.00372509
0.000168463
-0.00375969
0.000139239
-0.00378688
0.000109492
-0.00380655
7.93213e-05
-0.00381863
4.88264e-05
-0.00382306
1.81093e-05
-0.00381981
-1.27275e-05
-0.00380888
-4.35801e-05
-0.0037903
-7.43433e-05
-0.00376411
-0.000104911
-0.00373039
-0.000135176
-0.00368925
-0.000165029
-0.00364081
-0.000194361
-0.00358524
-0.000223063
-0.00352271
-0.000251023
-0.00345345
-0.00027813
-0.00337769
-0.000304274
-0.0032957
-0.000329343
-0.00320777
-0.000353226
-0.00311422
-0.000375814
-0.00301541
-0.000396997
-0.0029117
-0.000416669
-0.00280349
-0.000434723
-0.00269121
-0.000451057
-0.0025753
-0.000465571
-0.00245623
-0.000478169
-0.0023345
-0.000488757
-0.00221062
-0.000497249
-0.00208512
-0.000503562
-0.00195855
-0.000507619
-0.00183147
-0.000509353
-0.00170446
-0.0005087
-0.00157811
-0.00050561
-0.00145301
-0.00050004
-0.00132978
-0.000491958
-0.00120901
-0.000481346
-0.0010913
-0.000468201
-0.000977253
-0.000452535
-0.000867453
-0.00043438
-0.000762468
-0.000413788
-0.000662843
-0.000390838
-0.000569095
-0.000365638
-0.000481702
-0.000338332
-0.000401097
-0.000309103
-0.000327653
-0.000278188
-0.000261677
-0.000245881
-0.00020339
-0.000212553
-0.000152921
-0.000178663
-0.000110281
-0.000144782
-7.53532e-05
-0.000111617
-4.78718e-05
-8.00433e-05
-2.74028e-05
-5.11398e-05
-1.33251e-05
-2.62381e-05
-4.81123e-06
-6.9648e-06
-8.06648e-07
4.69345e-06
6.12531e-06
-2.06764e-06
-3.37985e-06
-9.39737e-06
5.02226e-06
-2.29667e-05
2.46503e-05
-4.35708e-05
5.24565e-05
-7.18301e-05
8.62206e-05
-0.000108195
0.000124127
-0.000152956
0.000164678
-0.000206255
0.00020665
-0.000268099
0.000249047
-0.000338377
0.000291066
-0.000416874
0.000332058
-0.000503283
0.000371505
-0.000597224
0.000408996
-0.000698253
0.000444207
-0.000805872
0.000476888
-0.000919543
0.000506849
-0.0010387
0.000533949
-0.00116273
0.000558088
-0.00129104
0.000579202
-0.001423
0.000597254
-0.00155796
0.000612232
-0.00169531
0.000624144
-0.0018344
0.000633016
-0.0019746
0.000638886
-0.0021153
0.000641805
-0.00225589
0.000641836
-0.00239576
0.000639049
-0.00253434
0.000633521
-0.00267105
0.000625336
-0.00280536
0.000614583
-0.00293672
0.000601356
-0.00306464
0.000585751
-0.00318861
0.000567869
-0.00330817
0.000547814
-0.00342287
0.000525691
-0.0035323
0.000501608
-0.00363604
0.000475676
-0.00373373
0.000448005
-0.00382501
0.000418709
-0.00390956
0.000387902
-0.00398707
0.000355701
-0.00405727
0.000322224
-0.00411991
0.000287588
-0.00417476
0.000251916
-0.00422163
0.000215329
-0.00426034
0.000177951
-0.00429075
0.000139906
-0.00431275
0.000101321
-0.00432625
6.23244e-05
-0.00433119
2.3046e-05
-0.00432753
-1.63831e-05
-0.00431528
-5.58301e-05
-0.00429446
-9.51607e-05
-0.00426513
-0.000134239
-0.00422738
-0.000172928
-0.00418132
-0.00021109
-0.0041271
-0.000248585
-0.00406489
-0.000285272
-0.0039949
-0.000321011
-0.00391737
-0.000355661
-0.00383256
-0.000389079
-0.00374078
-0.000421125
-0.00364235
-0.000451658
-0.00353763
-0.000480538
-0.003427
-0.000507628
-0.00331087
-0.000532791
-0.0031897
-0.000555894
-0.00306395
-0.000576807
-0.00293412
-0.000595404
-0.00280072
-0.000611563
-0.00266431
-0.000625168
-0.00252546
-0.000636108
-0.00238474
-0.000644281
-0.00224276
-0.000649592
-0.00210016
-0.000651955
-0.00195757
-0.000651295
-0.00181563
-0.000647549
-0.001675
-0.000640664
-0.00153635
-0.000630606
-0.00140035
-0.000617355
-0.00126764
-0.00060091
-0.00113888
-0.000581291
-0.00101472
-0.000558542
-0.00089577
-0.000532736
-0.000782631
-0.000503977
-0.000675864
-0.000472405
-0.00057599
-0.000438205
-0.000483482
-0.000401611
-0.000398751
-0.00036292
-0.000322135
-0.000322497
-0.000253892
-0.000280796
-0.00019418
-0.000238375
-0.000143047
-0.000195915
-0.000100418
-0.000154247
-6.60778e-05
-0.000114384
-3.96597e-05
-7.75579e-05
-2.06341e-05
-4.52637e-05
-8.29846e-06
-1.93005e-05
-1.77272e-06
-1.83235e-06
4.35261e-06
-3.0861e-06
-2.93701e-07
-1.31085e-05
1.50446e-05
-3.07736e-05
4.23152e-05
-5.6676e-05
7.83591e-05
-9.12831e-05
0.000120828
-0.000134926
0.00016777
-0.000187803
0.000217555
-0.000249981
0.000268828
-0.000321408
0.000320475
-0.000401923
0.000371581
-0.000491265
0.0004214
-0.000589087
0.000469327
-0.000694969
0.000514877
-0.000808426
0.000557664
-0.00092892
0.000597383
-0.00105587
0.000633801
-0.00118867
0.000666743
-0.00132666
0.000696083
-0.0014692
0.000721737
-0.0016156
0.000743654
-0.00176518
0.000761814
-0.00191726
0.000776222
-0.00207114
0.000786905
-0.00222616
0.000793905
-0.00238164
0.000797283
-0.00253691
0.000797109
-0.00269133
0.000793469
-0.00284427
0.000786454
-0.00299509
0.000776165
-0.00314322
0.000762709
-0.00328807
0.000746201
-0.00342907
0.000726758
-0.00356571
0.000704504
-0.00369746
0.000679565
-0.00382384
0.00065207
-0.00394438
0.000622153
-0.00405866
0.000589949
-0.00416625
0.000555595
-0.00426677
0.000519231
-0.00435987
0.000481
-0.00444521
0.000441043
-0.00452249
0.000399508
-0.00459145
0.000356541
-0.00465182
0.000312293
-0.00470341
0.000266913
-0.00474601
0.000220555
-0.00477948
0.000173374
-0.00480368
0.000125527
-0.00481853
7.71721e-05
-0.00482396
2.84707e-05
-0.00481993
-2.0415e-05
-0.00480643
-6.93205e-05
-0.00478352
-0.000118079
-0.00475123
-0.000166524
-0.00470967
-0.000214485
-0.00465897
-0.00026179
-0.00459929
-0.000308268
-0.00453082
-0.000353746
-0.00445378
-0.000398049
-0.00436844
-0.000441002
-0.00427508
-0.000482432
-0.00417405
-0.000522164
-0.00406568
-0.000560026
-0.00395037
-0.000595844
-0.00382855
-0.00062945
-0.00370066
-0.000660677
-0.0035672
-0.00068936
-0.00342866
-0.000715341
-0.00328561
-0.000738464
-0.00313859
-0.00075858
-0.00298821
-0.000775549
-0.00283508
-0.000789236
-0.00267984
-0.000799516
-0.00252316
-0.000806274
-0.00236571
-0.000809407
-0.00220818
-0.000808825
-0.00205128
-0.000804452
-0.00189571
-0.000796229
-0.0017422
-0.000784116
-0.00159146
-0.000768091
-0.00144422
-0.000748159
-0.00130116
-0.000724347
-0.00116298
-0.000696716
-0.00103036
-0.000665358
-0.000903936
-0.000630404
-0.000784311
-0.000592031
-0.000672051
-0.000550464
-0.00056767
-0.000505993
-0.000471617
-0.000458973
-0.00038427
-0.000409843
-0.000305925
-0.000359142
-0.000236782
-0.000307518
-0.000176936
-0.00025576
-0.000126366
-0.000204816
-8.49259e-05
-0.000155824
-5.23332e-05
-0.000110151
-2.81681e-05
-6.94287e-05
-1.18713e-05
-3.55974e-05
-2.75016e-06
-1.09535e-05
1.60247e-06
-4.09396e-06
3.80013e-06
-1.68219e-05
2.77728e-05
-3.86347e-05
6.41279e-05
-6.99249e-05
0.000109649
-0.000110998
0.0001619
-0.000162054
0.000218827
-0.000223187
0.000278687
-0.000294377
0.000340018
-0.000375501
0.000401599
-0.000466337
0.000462417
-0.000566571
0.000521634
-0.00067581
0.000578566
-0.000793588
0.000632655
-0.000919377
0.000683453
-0.0010526
0.000730605
-0.00119263
0.000773832
-0.00133881
0.000812926
-0.00149046
0.000847733
-0.00164687
0.000878148
-0.00180733
0.000904105
-0.00197109
0.000925577
-0.00213743
0.000942564
-0.00230562
0.000955092
-0.00247492
0.00096321
-0.00264462
0.000966985
-0.00281401
0.000966499
-0.0029824
0.00096185
-0.00314909
0.000953145
-0.00331343
0.000940504
-0.00347477
0.000924053
-0.0036325
0.000903927
-0.003786
0.000880267
-0.00393472
0.00085322
-0.00407809
0.000822937
-0.0042156
0.000789573
-0.00434673
0.000753287
-0.00447102
0.000714243
-0.00458803
0.000672606
-0.00469735
0.000628543
-0.00479857
0.000582227
-0.00489136
0.000533829
-0.00497538
0.000483527
-0.00505033
0.000431498
-0.00511596
0.000377922
-0.00517203
0.000322981
-0.00521834
0.000266862
-0.00525472
0.000209751
-0.00528103
0.000151837
-0.00529717
9.33122e-05
-0.00530307
3.43711e-05
-0.00529869
-2.47902e-05
-0.00528404
-8.39732e-05
-0.00525914
-0.000142977
-0.00522407
-0.000201599
-0.00517892
-0.000259634
-0.00512383
-0.000316877
-0.00505898
-0.000373119
-0.00498457
-0.000428151
-0.00490086
-0.000481764
-0.00480811
-0.000533748
-0.00470665
-0.000583893
-0.00459683
-0.000631989
-0.00447903
-0.000677829
-0.00435366
-0.000721205
-0.0042212
-0.000761914
-0.00408212
-0.000799756
-0.00393695
-0.000834535
-0.00378623
-0.000866058
-0.00363055
-0.000894143
-0.00347052
-0.00091861
-0.00330678
-0.000939291
-0.00313999
-0.000956026
-0.00297084
-0.000968667
-0.00280003
-0.000977079
-0.0026283
-0.000981138
-0.00245639
-0.000980741
-0.00228504
-0.000975798
-0.00211503
-0.000966243
-0.00194711
-0.000952029
-0.00178207
-0.000933136
-0.00162066
-0.000909571
-0.00146363
-0.000881375
-0.00131173
-0.00084862
-0.00116566
-0.000811422
-0.00102612
-0.000769941
-0.000893766
-0.000724389
-0.000769193
-0.000675038
-0.00065296
-0.000622226
-0.000545558
-0.000566374
-0.000447411
-0.000507991
-0.000358858
-0.000447695
-0.000280151
-0.000386226
-0.000211441
-0.00032447
-0.000152774
-0.000263483
-0.000104082
-0.000204516
-6.51831e-05
-0.00014905
-3.57774e-05
-9.88344e-05
-1.54573e-05
-5.59176e-05
-3.72046e-06
-2.26903e-05
-2.11802e-06
-5.081e-06
8.88116e-06
-2.04941e-05
4.31861e-05
-4.64535e-05
9.00872e-05
-8.31564e-05
0.000146352
-0.000130744
0.000209488
-0.00018928
0.000277364
-0.000258744
0.000348151
-0.000339021
0.000420295
-0.000429909
0.000492486
-0.000531114
0.000563622
-0.000642266
0.000632785
-0.000762914
0.000699215
-0.000892545
0.000762286
-0.00103059
0.000821493
-0.00117641
0.000876431
-0.00132936
0.000926778
-0.00148872
0.000972292
-0.00165378
0.00101279
-0.00182378
0.00104815
-0.00199795
0.00107828
-0.00217554
0.00110316
-0.00235575
0.00112278
-0.00253781
0.00113716
-0.00272096
0.00114635
-0.00290442
0.00115044
-0.00308744
0.00114952
-0.00326928
0.00114369
-0.00344922
0.00113309
-0.00362655
0.00111784
-0.00380059
0.00109809
-0.00397068
0.00107402
-0.00413618
0.00104576
-0.00429647
0.00101351
-0.00445097
0.000977435
-0.00459911
0.000937718
-0.00474037
0.000894548
-0.00487425
0.000848115
-0.00500026
0.000798616
-0.00511796
0.000746249
-0.00522695
0.000691217
-0.00532685
0.000633723
-0.00541729
0.000573976
-0.00549798
0.000512186
-0.00556863
0.000448568
-0.00562898
0.000383336
-0.00567883
0.00031671
-0.00571799
0.000248912
-0.00574632
0.000180166
-0.00576371
0.0001107
-0.00577008
4.07422e-05
-0.0057654
-2.94739e-05
-0.00574966
-9.97133e-05
-0.0057229
-0.000169739
-0.00568518
-0.00023931
-0.00563663
-0.000308185
-0.00557739
-0.000376121
-0.00550764
-0.00044287
-0.0054276
-0.000508188
-0.00533754
-0.000571826
-0.00523775
-0.000633536
-0.00512857
-0.00069307
-0.00501038
-0.000750181
-0.00488359
-0.000804625
-0.00474863
-0.000856157
-0.00460601
-0.000904538
-0.00445624
-0.000949532
-0.00429986
-0.000990908
-0.00413748
-0.00102844
-0.0039697
-0.00106192
-0.00379719
-0.00109113
-0.00362061
-0.00111587
-0.00344068
-0.00113596
-0.00325812
-0.00115122
-0.00307369
-0.00116151
-0.00288816
-0.00116667
-0.00270232
-0.00116658
-0.00251697
-0.00116115
-0.00233291
-0.0011503
-0.00215097
-0.00113397
-0.00197196
-0.00111215
-0.00179669
-0.00108484
-0.00162596
-0.00105211
-0.00146055
-0.00101403
-0.00130122
-0.000970747
-0.00114872
-0.00092245
-0.00100372
-0.000869385
-0.000866887
-0.00081187
-0.000738817
-0.000750296
-0.00062005
-0.000685142
-0.000511053
-0.000616987
-0.000412222
-0.000546526
-0.000323863
-0.000474584
-0.000246195
-0.000402139
-0.000179338
-0.00033034
-0.000123314
-0.00026054
-7.80461e-05
-0.000194318
-4.33633e-05
-0.000133517
-1.90116e-05
-8.02693e-05
-4.67299e-06
-3.70289e-05
-6.79105e-06
-6.04236e-06
1.49234e-05
-2.40992e-05
6.12432e-05
-5.41701e-05
0.000120158
-9.62658e-05
0.000188448
-0.000150366
0.000263588
-0.000216396
0.000343394
-0.000294216
0.000425971
-0.000383611
0.00050969
-0.000484289
0.000593165
-0.000595884
0.000675217
-0.000717956
0.000754857
-0.000849997
0.000831256
-0.00099144
0.000903729
-0.00114166
0.000971714
-0.00129999
0.00103476
-0.00146571
0.0010925
-0.00163809
0.00114467
-0.00181635
0.00119105
-0.0019997
0.00123149
-0.00218733
0.00126592
-0.00237843
0.00129426
-0.00257219
0.00131653
-0.00276777
0.00133274
-0.00296438
0.00134296
-0.0031612
0.00134726
-0.00335744
0.00134576
-0.00355231
0.00133857
-0.00374507
0.00132584
-0.00393495
0.00130772
-0.00412125
0.00128439
-0.00430325
0.00125602
-0.00448029
0.00122281
-0.00465172
0.00118494
-0.00481692
0.00114263
-0.00497529
0.00109609
-0.00512628
0.00104553
-0.00526935
0.000991182
-0.00540399
0.000933263
-0.00552975
0.000872009
-0.00564619
0.000807652
-0.0057529
0.000740432
-0.00584951
0.000670591
-0.0059357
0.000598373
-0.00601116
0.000524027
-0.00607563
0.000447805
-0.00612888
0.000369962
-0.00617072
0.000290755
-0.006201
0.000210447
-0.0062196
0.000129301
-0.00622645
4.7586e-05
-0.00622149
-3.44284e-05
-0.00620474
-0.000116468
-0.00617622
-0.000198257
-0.00613601
-0.000279516
-0.00608424
-0.000359963
-0.00602104
-0.000439315
-0.00594663
-0.000517286
-0.00586122
-0.000593589
-0.00576511
-0.000667937
-0.00565861
-0.000740042
-0.00554206
-0.000809615
-0.00541587
-0.000876371
-0.00528047
-0.000940024
-0.00513634
-0.00100029
-0.00498398
-0.0010569
-0.00482394
-0.00110957
-0.00465681
-0.00115804
-0.00448321
-0.00120204
-0.00430379
-0.00124134
-0.00411924
-0.00127567
-0.00393027
-0.00130483
-0.00373764
-0.00132859
-0.00354211
-0.00134676
-0.00334447
-0.00135915
-0.00314554
-0.0013656
-0.00294616
-0.00136597
-0.00274716
-0.00136015
-0.0025494
-0.00134806
-0.00235373
-0.00132963
-0.00216103
-0.00130485
-0.00197214
-0.00127373
-0.00178791
-0.00123634
-0.00160917
-0.00119277
-0.00143673
-0.00114319
-0.00127135
-0.00108782
-0.00111379
-0.00102695
-0.000964743
-0.00096092
-0.000824851
-0.000890188
-0.000694706
-0.000815287
-0.000574831
-0.000736862
-0.000465677
-0.00065568
-0.000367617
-0.000572645
-0.00028094
-0.000488816
-0.00020585
-0.00040543
-0.000142464
-0.000323926