/*--------------------------------*- C++ -*----------------------------------*\
  =========                 |
  \\      /  F ield         | OpenFOAM: The Open Source CFD Toolbox
   \\    /   O peration     | Website:  https://openfoam.org
    \\  /    A nd           | Version:  11
     \\/     M anipulation  |
\*---------------------------------------------------------------------------*/
FoamFile
{
    format      ascii;
    class       volScalarField;
    location    "2.9";
    object      p;
}
// * * * * * * * * * * * * * * * * * * * * * * * * * * * * * * * * * * * * * //

dimensions      [0 2 -2 0 0 0 0];

internalField   nonuniform List<scalar> 
10100
(
-3.04433e-07
0.000389884
0.000666612
0.000635283
0.000286568
-0.000287434
-0.00102515
-0.00187673
-0.00279859
-0.00375506
-0.00471804
-0.00565927
-0.00655783
-0.00739824
-0.00816429
-0.00883867
-0.00940517
-0.00985043
-0.0101658
-0.0103453
-0.0103833
-0.0102755
-0.0100174
-0.00960613
-0.00904165
-0.00832498
-0.00745672
-0.00643774
-0.00527022
-0.00395866
-0.00250859
-0.000924268
0.000790735
0.00263136
0.00459115
0.0066638
0.00884338
0.0111241
0.0135006
0.0159667
0.0185146
0.0211355
0.0238221
0.0265696
0.0293734
0.0322255
0.0351149
0.0380318
0.0409702
0.0439259
0.0468931
0.0498622
0.0528217
0.055762
0.0586761
0.0615586
0.0644024
0.0671982
0.0699354
0.072605
0.0751998
0.0777144
0.0801423
0.0824754
0.0847044
0.0868206
0.0888167
0.0906871
0.0924275
0.0940335
0.0954998
0.0968203
0.0979886
0.0989992
0.0998481
0.100532
0.101051
0.101402
0.101585
0.1016
0.101451
0.10114
0.100675
0.100065
0.0993194
0.0984508
0.0974726
0.0963999
0.0952507
0.0940456
0.0928088
0.0915683
0.0903549
0.0892033
0.088152
0.0872436
0.0865228
0.0860369
0.0858335
0.0858974
0.000297563
0.000697642
0.000913082
0.000873622
0.000600635
0.000138022
-0.000472291
-0.00118682
-0.00196834
-0.00278778
-0.00361692
-0.00443138
-0.0052091
-0.00593258
-0.00658862
-0.00716341
-0.00764286
-0.00801372
-0.00826463
-0.00838885
-0.0083821
-0.00823957
-0.00795716
-0.00753213
-0.006963
-0.00625057
-0.00539661
-0.0044015
-0.00326639
-0.00199573
-0.000594295
0.000935432
0.00259014
0.00436329
0.00624791
0.00823941
0.010334
0.0125264
0.0148104
0.0171791
0.019625
0.0221404
0.0247195
0.0273579
0.0300507
0.0327891
0.0355623
0.0383614
0.0411811
0.0440179
0.0468656
0.0497142
0.0525528
0.0553725
0.0581673
0.0609319
0.0636591
0.0663393
0.0689626
0.0715204
0.0740066
0.0764163
0.0787434
0.0809798
0.0831166
0.0851457
0.0870604
0.0888558
0.0905282
0.0920736
0.0934869
0.0947622
0.0958935
0.0968759
0.0977061
0.098382
0.0989027
0.0992676
0.0994762
0.0995288
0.0994276
0.0991771
0.0987841
0.0982575
0.0976077
0.0968465
0.0959872
0.0950447
0.0940359
0.0929802
0.0919003
0.0908213
0.0897713
0.0887807
0.0878824
0.0871105
0.0864978
0.0860774
0.0858933
0.0859603
0.00101202
0.00131613
0.00142378
0.00133767
0.00107812
0.000664867
0.000126157
-0.00050562
-0.00119737
-0.00192249
-0.00265783
-0.00338203
-0.00407349
-0.00471405
-0.00528987
-0.00578974
-0.00620207
-0.00651481
-0.00671631
-0.00679823
-0.00675667
-0.00658743
-0.00628566
-0.00584942
-0.00527802
-0.00457023
-0.00372656
-0.00274928
-0.0016408
-0.000403743
0.000959381
0.00244623
0.0040523
0.00577039
0.00759425
0.00952072
0.0115472
0.0136686
0.0158777
0.0181671
0.0205299
0.0229599
0.0254523
0.0280024
0.0306045
0.0332495
0.0359277
0.0386312
0.0413552
0.0440956
0.0468456
0.0495954
0.052335
0.0550566
0.0577545
0.0604233
0.0630553
0.0656411
0.0681713
0.0706384
0.0730369
0.0753619
0.0776073
0.0797652
0.0818273
0.0837858
0.0856349
0.0873702
0.0889881
0.0904848
0.0918555
0.0930946
0.0941966
0.0951569
0.0959727
0.0966424
0.0971654
0.0975414
0.09777
0.0978516
0.0977884
0.0975849
0.097248
0.0967864
0.0962102
0.095531
0.0947615
0.0939159
0.0930106
0.0920639
0.0910966
0.0901318
0.0891946
0.088312
0.087512
0.0868227
0.0862706
0.085882
0.0857001
0.0857535
0.00198341
0.00215025
0.00214887
0.00199608
0.00170981
0.00130021
0.00078808
0.000199076
-0.00044114
-0.00110678
-0.00177796
-0.00243667
-0.00306573
-0.00364777
-0.00416688
-0.00461206
-0.00497287
-0.00523848
-0.0054004
-0.00545042
-0.00538152
-0.00518992
-0.00487329
-0.0044294
-0.00385605
-0.0031521
-0.00231857
-0.0013574
-0.000270542
0.000939628
0.00227096
0.00372137
0.00528603
0.00695757
0.00873057
0.0106033
0.0125736
0.0146356
0.016781
0.0190029
0.0212959
0.0236552
0.0260754
0.0285511
0.031076
0.0336419
0.0362401
0.0388635
0.0415068
0.0441654
0.0468324
0.0494987
0.0521548
0.0547935
0.0574093
0.0599963
0.0625471
0.0650526
0.0675043
0.0698951
0.0722195
0.0744728
0.0766489
0.0787405
0.0807396
0.0826392
0.0844336
0.0861186
0.0876909
0.0891468
0.0904819
0.0916908
0.0927684
0.0937107
0.0945149
0.0951798
0.0957048
0.0960895
0.0963339
0.0964385
0.0964055
0.0962394
0.095947
0.0955365
0.0950179
0.0944019
0.0937009
0.0929283
0.0920994
0.0912313
0.0903435
0.0894573
0.0885953
0.0877812
0.0870391
0.0863928
0.0858643
0.0854766
0.0852666
0.0852605
0.00310296
0.0031309
0.00302214
0.00279575
0.00246127
0.00203117
0.00152271
0.000953504
0.000344533
-0.000282061
-0.000907596
-0.00151567
-0.00209312
-0.00262631
-0.00309958
-0.00350025
-0.00381898
-0.00404626
-0.00417362
-0.00419474
-0.00410354
-0.0038947
-0.00356532
-0.00311434
-0.00254002
-0.00184089
-0.00101777
-7.24021e-05
0.000994039
0.00217984
0.00348262
0.00489931
0.00642475
0.0080527
0.0097795
0.0116041
0.0135233
0.0155299
0.017616
0.019776
0.0220056
0.0243
0.0266534
0.0290601
0.031514
0.0340076
0.0365326
0.0390817
0.0416498
0.0442323
0.0468225
0.0494119
0.0519912
0.0545531
0.0570922
0.059603
0.0620784
0.06451
0.0668895
0.0692099
0.0714659
0.0736527
0.0757647
0.0777952
0.0797369
0.0815829
0.0833275
0.0849666
0.0864971
0.0879159
0.0892186
0.0904003
0.0914561
0.0923822
0.0931761
0.0938364
0.0943627
0.0947547
0.0950126
0.0951369
0.0951298
0.0949959
0.0947415
0.0943745
0.0939043
0.0933414
0.0926974
0.0919847
0.0912176
0.0904118
0.0895852
0.0887574
0.087949
0.0871807
0.086473
0.0858457
0.0853171
0.0849069
0.0846397
0.0845318
0.00436528
0.00423316
0.00400848
0.00369937
0.00330477
0.00283665
0.00231114
0.00174319
0.00114917
0.000545681
-5.06251e-05
-0.000625427
-0.00116507
-0.00165758
-0.00209278
-0.00245866
-0.00274354
-0.00293929
-0.00303928
-0.00303672
-0.00292599
-0.00270305
-0.00236487
-0.00190925
-0.00133442
-0.00063997
0.000172613
0.00110245
0.00214986
0.00331355
0.00459
0.00597505
0.0074641
0.00905265
0.0107381
0.0125189
0.014391
0.0163468
0.0183792
0.0204833
0.0226553
0.0248903
0.0271824
0.0295262
0.0319157
0.0343436
0.0368015
0.0392824
0.0417814
0.0442941
0.0468144
0.0493334
0.0518422
0.0543335
0.0568021
0.059243
0.0616498
0.0640143
0.066328
0.0685842
0.0707776
0.0729036
0.0749575
0.0769331
0.0788232
0.0806208
0.0823202
0.0839176
0.0854104
0.0867958
0.0880698
0.0892275
0.0902642
0.091176
0.0919605
0.0926161
0.0931425
0.0935399
0.0938085
0.0939491
0.0939639
0.0938569
0.0936343
0.0933036
0.0928733
0.0923536
0.0917553
0.0910901
0.0903709
0.0896124
0.0888309
0.0880442
0.0872706
0.0865281
0.0858342
0.0852049
0.0846558
0.0842032
0.0838564
0.083618
0.00574169
0.00543237
0.00508204
0.00468158
0.00421809
0.00369918
0.00313943
0.00255661
0.00196232
0.00136724
0.000786011
0.000231499
-0.000284424
-0.000750119
-0.00115625
-0.00149398
-0.00175349
-0.00192593
-0.00200438
-0.0019829
-0.00185711
-0.0016236
-0.001279
-0.000820583
-0.000246916
0.000441756
0.00124413
0.00216019
0.00319064
0.00433362
0.00558498
0.00694077
0.00839738
0.00995117
0.0115996
0.0133408
0.0151701
0.0170803
0.0190646
0.0211186
0.0232388
0.0254204
0.0276576
0.0299449
0.0322763
0.0346445
0.0370416
0.0394609
0.0418979
0.0443482
0.0468053
0.0492607
0.0517053
0.0541326
0.0565377
0.0589162
0.0612618
0.0635661
0.0658209
0.0680193
0.0701565
0.0722286
0.0742312
0.0761584
0.0780027
0.0797573
0.0814164
0.0829766
0.0844359
0.0857919
0.0870409
0.0881778
0.0891979
0.0900971
0.0908728
0.0915234
0.0920488
0.0924495
0.0927261
0.0928795
0.0929119
0.0928271
0.0926304
0.0923288
0.0919305
0.0914447
0.0908816
0.0902519
0.0895676
0.0888422
0.0880908
0.0873295
0.0865743
0.0858404
0.0851424
0.0844931
0.083906
0.0833946
0.0829519
0.0825661
0.00719892
0.0067051
0.00621999
0.00572112
0.00517895
0.00460047
0.00399842
0.0033857
0.00277524
0.00217627
0.00159807
0.0010523
0.000549761
9.95877e-05
-0.000289052
-0.0006075
-0.000847934
-0.00100295
-0.00106595
-0.00103138
-0.000895154
-0.000653933
-0.000304657
0.000154699
0.000725223
0.00140714
0.00219992
0.0031037
0.00411856
0.00524203
0.00646998
0.00779918
0.00922687
0.0107498
0.0123653
0.014071
0.015862
0.0177313
0.0196724
0.0216815
0.0237555
0.0258898
0.0280783
0.0303151
0.032594
0.0349082
0.0372505
0.0396149
0.0419968
0.0443914
0.0467918
0.0491896
0.0515767
0.0539468
0.0562958
0.0586192
0.0609105
0.0631616
0.0653639
0.0675111
0.0695988
0.0716239
0.0735821
0.0754671
0.0772714
0.078988
0.0806115
0.0821391
0.0835691
0.0848995
0.0861267
0.0872457
0.0882512
0.0891391
0.0899063
0.0905517
0.091075
0.0914773
0.0917595
0.0919228
0.0919692
0.0919018
0.0917256
0.0914467
0.091073
0.0906129
0.0900756
0.0894712
0.0888105
0.0881061
0.0873719
0.0866225
0.0858715
0.0851318
0.0844149
0.0837313
0.0830924
0.0825097
0.0819599
0.0814175
0.00870627
0.00802647
0.00740236
0.00679781
0.00616949
0.00552385
0.00487178
0.00422084
0.00358195
0.0029656
0.00237997
0.00183359
0.00133431
0.000889956
0.000509725
0.000202132
-2.62178e-05
-0.000169736
-0.000222773
-0.000179999
-3.73181e-05
0.000208447
0.000559861
0.00101832
0.00158472
0.00225973
0.0030433
0.00393545
0.00493565
0.00604099
0.00724755
0.00855284
0.00995488
0.0114507
0.0130371
0.0147111
0.0164678
0.0183004
0.0202031
0.0221726
0.0242062
0.0262987
0.0284436
0.0306349
0.0328667
0.035133
0.0374271
0.0397432
0.0420761
0.0444208
0.0467705
0.0491172
0.0514534
0.0537735
0.0560735
0.0583488
0.0605927
0.0627969
0.0649534
0.067056
0.0691011
0.071086
0.0730063
0.0748551
0.0766247
0.0783082
0.0799008
0.0814001
0.0828049
0.0841134
0.0853218
0.0864252
0.087418
0.0882954
0.0890546
0.0896942
0.0902147
0.0906174
0.0909036
0.0910743
0.0911313
0.0910774
0.0909166
0.0906547
0.0902986
0.0898565
0.0893368
0.0887486
0.0881021
0.0874087
0.086681
0.0859317
0.0851729
0.084415
0.0836672
0.0829376
0.0822365
0.0815734
0.0809094
0.0802066
0.0102351
0.00936934
0.0086065
0.00789392
0.00717402
0.00645383
0.00574277
0.00504693
0.00437287
0.00372954
0.003126
0.00256899
0.00206374
0.00161741
0.00123871
0.000934788
0.000711197
0.000572927
0.000525026
0.000572182
0.000717925
0.000965044
0.00131585
0.00177162
0.0023333
0.00300167
0.00377655
0.00465753
0.00564372
0.00673218
0.0079195
0.00920391
0.0105838
0.0120559
0.0136165
0.0152621
0.0169881
0.0187883
0.0206578
0.0225933
0.0245915
0.026647
0.028753
0.0309037
0.033094
0.0353186
0.037571
0.0398447
0.0421344
0.0444349
0.0467399
0.049042
0.0513342
0.0536114
0.0558693
0.0581032
0.0603061
0.0624699
0.0645869
0.0666517
0.0686612
0.0706124
0.0725008
0.074319
0.0760592
0.0777144
0.0792807
0.0807561
0.0821396
0.0834294
0.084622
0.0857119
0.0866933
0.0875613
0.0883126
0.0889463
0.0894635
0.0898659
0.0901547
0.0903309
0.0903956
0.0903511
0.0902012
0.0899507
0.0896062
0.0891752
0.0886656
0.0880859
0.0874453
0.0867542
0.0860236
0.0852647
0.0844876
0.083701
0.0829122
0.0821275
0.0813561
0.0806061
0.0798241
0.0789604
0.0117583
0.0107109
0.00980974
0.00898898
0.0081751
0.00737533
0.00659874
0.00585028
0.00513508
0.00445915
0.0038295
0.00325214
0.00273282
0.00227833
0.00189512
0.00158834
0.0013631
0.00122467
0.00117759
0.00122557
0.00137124
0.00161692
0.00196487
0.00241662
0.00297323
0.00363522
0.00440177
0.00527189
0.0062447
0.00731786
0.00848862
0.00975541
0.0111163
0.0125675
0.014105
0.0157255
0.0174248
0.0191976
0.0210388
0.022945
0.0249124
0.0269352
0.0290069
0.0311223
0.0332771
0.0354661
0.0376824
0.0399194
0.0421713
0.0444333
0.0466998
0.0489639
0.0512191
0.0534602
0.0556827
0.0578815
0.0600497
0.0621795
0.0642636
0.0662973
0.0682776
0.0702013
0.0720634
0.0738563
0.0755719
0.0772039
0.0787485
0.0802041
0.0815701
0.0828446
0.0840237
0.0851021
0.0860735
0.0869327
0.0876768
0.0883049
0.0888187
0.0892201
0.0895104
0.0896901
0.0897597
0.089721
0.0895774
0.0893334
0.0889951
0.0885691
0.0880631
0.087485
0.086843
0.0861464
0.0854046
0.0846274
0.0838231
0.0829991
0.082161
0.0813136
0.0804658
0.0796245
0.0787225
0.0776999
0.0132563
0.012031
0.0109917
0.0100627
0.009155
0.00827275
0.00742628
0.00661963
0.0058574
0.00514311
0.00448089
0.00387674
0.00333756
0.00286892
0.00247476
0.00215924
0.00192771
0.00178526
0.00173528
0.00178034
0.00192268
0.00216465
0.0025086
0.00295591
0.00350728
0.00416264
0.00492068
0.00578037
0.00674122
0.00780145
0.00895851
0.0102105
0.011555
0.0129877
0.014505
0.016104
0.0177812
0.0195311
0.0213486
0.0232297
0.0251703
0.0271647
0.0292071
0.0312929
0.033418
0.035577
0.0377626
0.0399678
0.0421874
0.0444169
0.0466513
0.0488842
0.0511091
0.0533206
0.055514
0.057684
0.0598237
0.0619257
0.0639835
0.0659925
0.0679497
0.0698515
0.0716926
0.0734651
0.0751611
0.0767745
0.0783019
0.0797421
0.0810942
0.0823564
0.0835246
0.0845932
0.0855557
0.086407
0.0871444
0.0877675
0.088278
0.088678
0.0889686
0.0891498
0.0892216
0.0891853
0.0890439
0.0888019
0.0884647
0.0880387
0.0875306
0.0869478
0.0862978
0.0855885
0.0848282
0.0840249
0.0831857
0.0823168
0.0814227
0.0805068
0.0795779
0.0786421
0.0776197
0.0764415
0.0147088
0.0133127
0.0121376
0.0110987
0.0100957
0.0091305
0.00821223
0.00734401
0.00652909
0.0057702
0.00507075
0.00443643
0.00387286
0.00338383
0.00297276
0.00264424
0.00240337
0.00225372
0.00219722
0.00223589
0.00237233
0.00260932
0.00294892
0.00339156
0.00393715
0.00458532
0.00533495
0.00618542
0.00713656
0.00818655
0.0093324
0.0105718
0.0119019
0.0133189
0.0148194
0.0164011
0.0180606
0.0197921
0.0215897
0.0234494
0.0253671
0.0273379
0.0293564
0.0314183
0.0335192
0.0356531
0.0378129
0.0399917
0.0421845
0.0443876
0.0465965
0.0488048
0.0510058
0.053194
0.0553643
0.0575114
0.0596288
0.0617094
0.063747
0.0657373
0.0676771
0.0695623
0.071387
0.0731438
0.0748249
0.0764245
0.0779392
0.0793678
0.0807095
0.0819624
0.0831222
0.0841827
0.0851376
0.0859819
0.0867133
0.0873318
0.0878392
0.0882373
0.0885269
0.0887076
0.088779
0.0887422
0.0885996
0.0883556
0.0880152
0.0875842
0.0870689
0.0864757
0.0858114
0.0850831
0.0842976
0.0834614
0.0825807
0.0816606
0.0807048
0.0797159
0.0787023
0.0776703
0.0765281
0.0751982
0.0160967
0.0145389
0.0132325
0.0120837
0.0109836
0.00993479
0.00894354
0.00801118
0.00713954
0.00633179
0.00559193
0.00492408
0.00433139
0.00381699
0.00338536
0.0030412
0.002788
0.00262751
0.00256107
0.00259117
0.0027208
0.0029524
0.00328702
0.00372413
0.00426321
0.0049042
0.00564652
0.00648982
0.00743367
0.00847565
0.00961221
0.0108408
0.0121592
0.0135638
0.0150515
0.0166202
0.0182659
0.0199825
0.0217639
0.0236061
0.0255055
0.0274578
0.0294578
0.0315009
0.0335825
0.0356963
0.0378352
0.0399929
0.042165
0.044348
0.0465377
0.0487276
0.0509109
0.0530817
0.0552348
0.057365
0.0594661
0.0615314
0.063555
0.0655322
0.0674596
0.0693329
0.071146
0.0728915
0.0745621
0.0761522
0.0776584
0.0790793
0.0804141
0.0816606
0.0828142
0.0838684
0.084817
0.0856554
0.0863816
0.0869961
0.0875003
0.0878959
0.0881832
0.0883616
0.0884305
0.0883905
0.0882439
0.0879944
0.0876466
0.0872061
0.0866785
0.0860697
0.0853855
0.0846321
0.0838153
0.0829406
0.0820127
0.0810363
0.0800143
0.0789488
0.0778482
0.0767188
0.0754582
0.0739809
0.0174054
0.0156936
0.0142614
0.0130056
0.0118084
0.0106739
0.00960804
0.00860975
0.00767963
0.00682091
0.00603743
0.00533177
0.00470592
0.00416356
0.00370955
0.00334725
0.00307809
0.00290323
0.00282474
0.00284566
0.00296839
0.00319398
0.00352237
0.00395279
0.00448523
0.00512018
0.00585717
0.00669544
0.00763388
0.00866949
0.00979853
0.0110188
0.0123285
0.0137245
0.0152035
0.0167629
0.0183983
0.0201034
0.0218722
0.0237013
0.0255874
0.0275264
0.0295131
0.0315423
0.0336092
0.0357077
0.0378311
0.0399735
0.0421309
0.0443001
0.0464767
0.0486543
0.0508257
0.0529848
0.0551265
0.0572458
0.0593367
0.0613928
0.0634079
0.0653773
0.0672971
0.0691629
0.0709687
0.0727074
0.0743718
0.0759565
0.0774582
0.0788753
0.0802064
0.0814491
0.0825986
0.0836485
0.0845924
0.0854263
0.0861483
0.086759
0.0872601
0.0876526
0.0879366
0.0881113
0.0881758
0.0881306
0.0879774
0.0877193
0.0873604
0.0869058
0.0863612
0.0857318
0.0850227
0.0842389
0.0833854
0.0824668
0.0814871
0.0804501
0.0793583
0.0782135
0.0770243
0.0757973
0.0744202
0.0727996
0.0186254
0.016765
0.0152111
0.0138516
0.0125594
0.0113386
0.0101964
0.00913063
0.00814109
0.00722979
0.00639949
0.00565245
0.00499122
0.00441961
0.00394113
0.0035574
0.00326914
0.00307808
0.00298703
0.00299861
0.00311367
0.00333182
0.00365266
0.00407613
0.00460297
0.00523375
0.00596737
0.00680215
0.00773644
0.00876716
0.00989089
0.0111059
0.0124105
0.0138017
0.0152755
0.0168289
0.0184572
0.0201543
0.0219148
0.0237354
0.0256134
0.0275442
0.0295222
0.0315422
0.0335992
0.0356876
0.037801
0.0399341
0.0420831
0.0442447
0.0464142
0.0485851
0.0507503
0.0529033
0.0550395
0.0571538
0.0592406
0.0612933
0.0633055
0.0652719
0.0671887
0.0690515
0.0708544
0.0725905
0.0742529
0.0758363
0.0773374
0.0787542
0.0800849
0.0813266
0.0824744
0.0835218
0.0844629
0.0852938
0.0860129
0.0866208
0.0871187
0.0875079
0.0877882
0.0879582
0.088017
0.0879647
0.0878026
0.087533
0.0871595
0.086687
0.0861209
0.0854664
0.0847278
0.0839091
0.0830142
0.0820471
0.0810113
0.0799102
0.0787459
0.0775197
0.0762409
0.0749166
0.0734249
0.0716648
0.0197497
0.0177451
0.0160722
0.0146115
0.0132262
0.0119203
0.0107007
0.00956614
0.00851579
0.0075501
0.00667078
0.00588064
0.00518285
0.00458016
0.00407425
0.00366604
0.00335709
0.00314973
0.00304616
0.00304744
0.00315301
0.00336215
0.00367512
0.00409268
0.00461568
0.00524395
0.00597537
0.00680762
0.00773893
0.00876666
0.00988789
0.0111011
0.0124043
0.0137939
0.0152655
0.0168158
0.0184405
0.0201336
0.0218903
0.0237074
0.025582
0.0275093
0.0294833
0.0314987
0.033551
0.0356348
0.0377442
0.0398742
0.0420209
0.0441808
0.046349
0.0485189
0.0506833
0.0528361
0.0549726
0.057088
0.0591766
0.0612315
0.0632459
0.0652144
0.0671329
0.0689971
0.0708015
0.0725395
0.0742042
0.0757904
0.0772945
0.0787145
0.080048
0.0812917
0.0824404
0.0834878
0.0844283
0.0852582
0.085976
0.086582
0.0870777
0.0874639
0.0877403
0.0879053
0.0879576
0.0878967
0.0877234
0.0874396
0.0870487
0.0865551
0.085964
0.0852804
0.0845081
0.0836503
0.08271
0.0816907
0.0805955
0.0794274
0.0781882
0.076879
0.0755097
0.0740885
0.072484
0.0705877
0.0207716
0.0186274
0.0168384
0.0152782
0.0138005
0.0124103
0.0111135
0.0099092
0.0087963
0.00777445
0.006845
0.00601096
0.00527509
0.00463876
0.00410279
0.00366864
0.00333877
0.00311512
0.00299814
0.00298724
0.00308157
0.00328119
0.00358728
0.0040006
0.00452118
0.00514776
0.00587748
0.00670801
0.00763804
0.00866539
0.00978729
0.0110019
0.0123068
0.0136976
0.0151698
0.0167201
0.0183448
0.0200384
0.021796
0.0236143
0.0254901
0.0274184
0.029393
0.031409
0.0334619
0.035547
0.0376587
0.0397918
0.0419421
0.0441061
0.0462787
0.0484532
0.0506225
0.0527808
0.0549236
0.057046
0.0591421
0.0612045
0.0632263
0.0652018
0.0671268
0.0689971
0.0708077
0.072552
0.0742234
0.0758165
0.0773277
0.0787543
0.0800939
0.0813427
0.0824953
0.0835456
0.0844882
0.0853196
0.0860381
0.0866441
0.0871388
0.0875229
0.0877959
0.0879559
0.0880011
0.0879305
0.0877442
0.0874441
0.0870333
0.0865161
0.0858974
0.0851817
0.0843723
0.0834718
0.0824827
0.0814081
0.0802508
0.0790134
0.0776973
0.0763035
0.0748431
0.0733251
0.0716091
0.0695787
0.0216848
0.0194055
0.0175037
0.015845
0.0142751
0.0128004
0.011427
0.0101527
0.00897581
0.00789647
0.0069161
0.00603706
0.00526099
0.0045887
0.00402145
0.00356136
0.00321056
0.00296953
0.00283713
0.00281229
0.00289486
0.00308588
0.00338663
0.00379698
0.00431566
0.00494064
0.00566916
0.00649938
0.0074305
0.00846041
0.00958601
0.0108048
0.0121138
0.0135083
0.0149839
0.0165379
0.0181668
0.0198654
0.0216285
0.0234525
0.0253338
0.0272676
0.0292478
0.0312697
0.0333291
0.0354217
0.0375417
0.0396838
0.0418437
0.0440175
0.0462
0.0483847
0.0505647
0.0527344
0.0548894
0.0570246
0.0591336
0.0612089
0.063243
0.0652305
0.067167
0.0690485
0.07087
0.0726253
0.074308
0.0759124
0.0774347
0.0788717
0.0802208
0.081478
0.0826378
0.0836943
0.0846421
0.0854778
0.0861998
0.086808
0.0873035
0.0876869
0.0879572
0.0881124
0.0881502
0.088069
0.0878686
0.0875508
0.0871185
0.086576
0.0859278
0.0851777
0.0843285
0.0833825
0.0823419
0.0812094
0.0799877
0.078679
0.0772843
0.0758048
0.0742523
0.072637
0.07081
0.0686468
0.0224839
0.0200729
0.0180606
0.0163048
0.0146434
0.0130841
0.0116341
0.0102892
0.00904756
0.00790988
0.00687756
0.00595191
0.00513374
0.00442429
0.00382568
0.00333976
0.00296713
0.00270676
0.00255705
0.00251765
0.00258938
0.00277333
0.00306984
0.00347749
0.00399418
0.00461788
0.00534641
0.00617852
0.0071135
0.00814883
0.00928068
0.0105059
0.0118212
0.0132222
0.0147048
0.0162665
0.017904
0.019612
0.0213848
0.0232187
0.0251101
0.0270541
0.0290452
0.0310787
0.0331506
0.0352566
0.037391
0.039548
0.0417231
0.0439123
0.0461105
0.0483112
0.0505078
0.0526948
0.0548676
0.057021
0.0591482
0.0612413
0.0632929
0.0652975
0.0672507
0.0691486
0.0709861
0.0727574
0.074456
0.0760763
0.0776139
0.0790654
0.0804277
0.0816969
0.0828675
0.0839336
0.08489
0.0857333
0.0864616
0.0870747
0.0875733
0.0879575
0.0882261
0.0883769
0.0884071
0.0883149
0.0881001
0.0877639
0.0873093
0.0867404
0.0860611
0.0852747
0.0843837
0.0833902
0.082296
0.0811036
0.0798153
0.0784334
0.0769586
0.0753919
0.0737462
0.0720327
0.0700941
0.0677983
0.0231646
0.0206232
0.0185018
0.016651
0.0148993
0.0132555
0.0117276
0.0103114
0.00900476
0.00780808
0.00672246
0.00574866
0.00488744
0.0041407
0.00351069
0.00299811
0.00260191
0.00232046
0.0021529
0.00209982
0.00216212
0.00234001
0.00263249
0.00303723
0.00355211
0.0041757
0.00490642
0.00574312
0.00668465
0.00772777
0.00886797
0.0101018
0.0114261
0.0128368
0.0143303
0.0159041
0.0175546
0.0192762
0.0210629
0.022911
0.0248171
0.0267766
0.0287842
0.0308352
0.0329256
0.035051
0.0372054
0.039383
0.041579
0.0437893
0.046009
0.0482317
0.0504508
0.0526609
0.054857
0.0570339
0.0591843
0.0613003
0.0633747
0.0654016
0.0673769
0.0692965
0.0711555
0.072948
0.0746676
0.0763085
0.0778659
0.079336
0.0807155
0.0820005
0.0831856
0.0842651
0.0852336
0.0860877
0.0868253
0.0874459
0.0879497
0.0883364
0.0886045
0.0887513
0.0887742
0.0886713
0.088442
0.0880874
0.0876103
0.0870141
0.0863026
0.0854786
0.0845443
0.0835015
0.082352
0.0810978
0.079741
0.0782837
0.0767269
0.0750714
0.073331
0.071518
0.0694667
0.0670377
0.0237227
0.021052
0.018822
0.0168773
0.0150361
0.0133077
0.011701
0.0102128
0.00884078
0.00758437
0.00644414
0.00542111
0.00451672
0.00373287
0.00307081
0.00252991
0.00210855
0.00180559
0.00162104
0.00155571
0.00160962
0.00178164
0.00206987
0.00247189
0.00298612
0.00361178
0.00434742
0.00519142
0.00614183
0.00719472
0.00834531
0.00959025
0.0109268
0.0123512
0.01386
0.0154503
0.017118
0.0188572
0.0206621
0.0225291
0.024455
0.0264356
0.0284655
0.0305398
0.0326546
0.034805
0.0369851
0.039189
0.0414116
0.043649
0.0458962
0.0481469
0.0503946
0.0526334
0.0548583
0.0570636
0.0592424
0.0613867
0.0634891
0.0655439
0.0675468
0.0694937
0.0713798
0.073199
0.0749448
0.0766112
0.0781929
0.079686
0.0810869
0.0823916
0.0835952
0.0846917
0.0856759
0.086544
0.0872936
0.0879239
0.0884349
0.0888258
0.0890946
0.0892385
0.0892547
0.0891414
0.088898
0.0885252
0.0880253
0.0874015
0.086657
0.0857943
0.0848154
0.0837218
0.0825153
0.0811973
0.0797698
0.078235
0.0765939
0.0748475
0.0730105
0.0710963
0.068931
0.0663682
0.0241541
0.0213552
0.0190171
0.0169778
0.0150469
0.0132337
0.0115481
0.00998754
0.00854923
0.00723199
0.00603627
0.00496375
0.00401621
0.00319487
0.00249956
0.00192899
0.00148203
0.0011584
0.000958323
0.000881811
0.000927608
0.00109363
0.00137782
0.00177832
0.00229416
0.00292468
0.00366797
0.00452159
0.00548282
0.00654746
0.0077109
0.00897019
0.0103229
0.0117654
0.0132939
0.0149048
0.0165938
0.0183549
0.0201826
0.0220736
0.024025
0.0260324
0.0280903
0.0301938
0.0323386
0.0345196
0.0367311
0.0389669
0.0412221
0.0434926
0.0457735
0.0480584
0.0503405
0.0526136
0.0548726
0.0571118
0.0593242
0.0615022
0.0636383
0.0657267
0.067763
0.069743
0.0716617
0.0735131
0.0752905
0.0769874
0.0785983
0.0801189
0.0815454
0.082874
0.0840997
0.0852168
0.0862199
0.0871049
0.0878691
0.0885113
0.0890314
0.0894281
0.0896991
0.0898412
0.0898517
0.0897287
0.0894715
0.0890807
0.0885581
0.0879062
0.087128
0.0862259
0.0852012
0.0840553
0.0827896
0.0814058
0.0799054
0.0782907
0.0765627
0.074723
0.0727873
0.0707703
0.06849
0.0657927
0.0244546
0.0215283
0.0190821
0.0169472
0.0149256
0.0130275
0.0112633
0.00962951
0.00812354
0.00674448
0.00549304
0.00437113
0.00338019
0.00252036
0.00179072
0.00119022
0.000718502
0.000375624
0.000161132
7.37859e-05
0.000111384
0.000271662
0.000553054
0.000954293
0.00147454
0.00211265
0.00286589
0.00373103
0.00470499
0.00578373
0.00696314
0.00824064
0.00961388
0.0110788
0.0126311
0.0142666
0.0159811
0.0177686
0.0196242
0.0215448
0.0235273
0.0255674
0.0276592
0.0297975
0.0319777
0.034195
0.0364434
0.038717
0.0410109
0.0433208
0.0456415
0.0479665
0.0502888
0.052602
0.0549006
0.0571791
0.0594309
0.0616483
0.0638241
0.0659521
0.0680276
0.0700464
0.0720035
0.0738927
0.075707
0.0774394
0.0790843
0.080637
0.0820938
0.0834505
0.0847021
0.0858431
0.0868682
0.0877729
0.0885541
0.0892106
0.0897416
0.0901459
0.0904206
0.0905625
0.0905685
0.0904366
0.0901661
0.0897575
0.089212
0.0885319
0.0877197
0.0867772
0.0857055
0.0845056
0.0831788
0.0817267
0.080151
0.0784539
0.0766367
0.0747015
0.0726652
0.070544
0.0681479
0.0653156
0.0246201
0.0215659
0.0190112
0.0167804
0.0146675
0.0126838
0.01084
0.00913194
0.00755716
0.00611575
0.00480873
0.00363746
0.00260244
0.00170317
0.000938932
0.000309314
-0.000185707
-0.000546669
-0.000775182
-0.000873397
-0.000843699
-0.000687933
-0.00040713
-2.40251e-06
0.000524948
0.0011729
0.00193793
0.00281642
0.00380536
0.00490122
0.00610038
0.00740035
0.00879834
0.0102898
0.0118696
0.0135338
0.0152781
0.0170971
0.0189861
0.0209419
0.0229614
0.0250398
0.027171
0.0293495
0.0315706
0.0338296
0.0361206
0.038438
0.0407767
0.0431322
0.0454989
0.04787
0.0502381
0.0525969
0.0549409
0.0572646
0.0595617
0.0618246
0.0640462
0.0662198
0.0683406
0.0704041
0.0724053
0.0743378
0.0761944
0.0779677
0.0796515
0.0812413
0.082733
0.0841223
0.0854039
0.0865724
0.0876224
0.0885494
0.0893505
0.0900239
0.0905684
0.0909822
0.0912625
0.0914057
0.0914086
0.091269
0.090986
0.0905599
0.0899918
0.0892833
0.0884366
0.0874529
0.0863331
0.0850776
0.0836876
0.0821649
0.0805116
0.0787298
0.0768213
0.0747888
0.0726506
0.0704242
0.0679113
0.064943
0.0246467
0.0214631
0.0187992
0.0164725
0.0142674
0.0121966
0.0102714
0.00848786
0.006844
0.00534024
0.00397758
0.00275648
0.00167661
0.000737592
-6.0598e-05
-0.000718023
-0.0012352
-0.00161374
-0.00185622
-0.00196501
-0.00194204
-0.00178866
-0.00150577
-0.00109491
-0.000558253
0.000101324
0.000879874
0.00177387
0.00278074
0.00389743
0.00512049
0.00644703
0.00787362
0.00939517
0.0110064
0.0127035
0.0144824
0.0163382
0.0182661
0.0202628
0.0223248
0.024447
0.0266229
0.0288469
0.0311143
0.0334205
0.0357601
0.0381273
0.0405168
0.0429238
0.0453422
0.047765
0.0501846
0.0525947
0.0549899
0.0573651
0.0597137
0.0620286
0.0643021
0.0665277
0.0686999
0.070814
0.072865
0.0748465
0.0767509
0.0785705
0.0802988
0.0819308
0.0834624
0.084889
0.0862051
0.087405
0.0884835
0.0894362
0.0902602
0.0909535
0.0915145
0.0919406
0.0922287
0.0923751
0.0923766
0.0922307
0.0919364
0.0914936
0.0909031
0.0901664
0.0892847
0.0882591
0.0870899
0.0857775
0.0843229
0.0827277
0.0809946
0.0791262
0.0771249
0.0749938
0.0727527
0.0704201
0.0677893
0.0646827
0.0245313
0.0212161
0.0184415
0.0160176
0.0137191
0.0115591
0.00955076
0.00769131
0.00597854
0.00441243
0.00299348
0.00172164
0.000596524
-0.000381743
-0.00121277
-0.00189695
-0.00243581
-0.00283188
-0.00308802
-0.00320627
-0.00318806
-0.00303454
-0.00274703
-0.00232792
-0.00178025
-0.00110741
-0.000313289
0.000599036
0.00162743
0.002769
0.00401996
0.00537675
0.00683536
0.00839053
0.0100372
0.0117716
0.0135902
0.0154882
0.0174606
0.0195036
0.0216134
0.0237845
0.0260102
0.0282849
0.0306041
0.0329634
0.0353574
0.0377803
0.0402265
0.0426906
0.0451663
0.0476463
0.0501231
0.0525904
0.0550431
0.057476
0.0598828
0.0622562
0.0645882
0.066872
0.0691018
0.0712727
0.0733794
0.0754156
0.0773736
0.0792452
0.0810238
0.0827038
0.0842807
0.0857496
0.0871049
0.0883409
0.0894523
0.0904348
0.0912855
0.0920024
0.0925832
0.0930248
0.0933236
0.0934756
0.0934776
0.0933272
0.0930229
0.0925645
0.0919523
0.0911874
0.0902706
0.0892024
0.0879831
0.0866128
0.0850923
0.0834236
0.0816094
0.0796531
0.0775576
0.0753269
0.0729817
0.0705416
0.0677904
0.0645425
0.0242703
0.0208211
0.0179331
0.0154093
0.0130154
0.0107649
0.00867287
0.00673716
0.00495514
0.00332597
0.00184964
0.000526275
-0.000643961
-0.00166058
-0.00252349
-0.00323399
-0.00379448
-0.00420785
-0.00447666
-0.0046025
-0.00458662
-0.00443053
-0.00413637
-0.00370737
-0.00314711
-0.00245902
-0.00164656
-0.000712347
0.000341559
0.00151195
0.00279445
0.00418486
0.00567887
0.00727146
0.00895793
0.0107347
0.0125983
0.0145437
0.0165658
0.0186604
0.020823
0.023048
0.0253287
0.0276595
0.0300361
0.0324544
0.0349089
0.0373934
0.0399019
0.0424287
0.0449671
0.04751
0.0500498
0.0525804
0.0550968
0.057594
0.0600656
0.062504
0.0649012
0.0672496
0.0695433
0.0717771
0.0739457
0.0760426
0.07806
0.0799898
0.0818248
0.0835589
0.0851869
0.0867036
0.0881033
0.0893806
0.0905301
0.0915474
0.0924295
0.0931739
0.0937781
0.0942386
0.0945512
0.0947118
0.0947168
0.0945639
0.0942513
0.0937785
0.0931453
0.0923525
0.0914005
0.0902897
0.0890198
0.087591
0.0860042
0.0842612
0.0823651
0.0803201
0.0781295
0.0757977
0.0733466
0.0707965
0.0679216
0.0645274
0.0238588
0.0202726
0.0172681
0.0146416
0.0121503
0.00980879
0.00763269
0.00561975
0.00376707
0.0020734
0.000538659
-0.000836487
-0.00205132
-0.00310556
-0.00399996
-0.00473673
-0.0053187
-0.0057485
-0.00602825
-0.00615935
-0.0061434
-0.00598271
-0.00568027
-0.0052398
-0.00466495
-0.00395883
-0.00312445
-0.00216431
-0.00108088
0.000122023
0.0014395
0.00286701
0.0044003
0.00603475
0.00776597
0.00959037
0.0115041
0.0135023
0.0155794
0.0177306
0.019951
0.0222349
0.0245759
0.0269686
0.0294086
0.0318919
0.0344127