/*--------------------------------*- C++ -*----------------------------------*\
  =========                 |
  \\      /  F ield         | OpenFOAM: The Open Source CFD Toolbox
   \\    /   O peration     | Website:  https://openfoam.org
    \\  /    A nd           | Version:  11
     \\/     M anipulation  |
\*---------------------------------------------------------------------------*/
FoamFile
{
    format      ascii;
    class       surfaceScalarField;
    location    "2.9";
    object      phi;
}
// * * * * * * * * * * * * * * * * * * * * * * * * * * * * * * * * * * * * * //

dimensions      [0 3 -1 0 0 0 0];

internalField   nonuniform List<scalar> 
19980
(
6.28199e-07
-6.27047e-07
1.73077e-06
-1.10255e-06
2.86444e-06
-1.13379e-06
3.50323e-06
-6.38671e-07
3.47891e-06
2.42925e-08
2.69435e-06
7.84481e-07
1.10687e-06
1.58756e-06
-1.28305e-06
2.38995e-06
-4.45885e-06
3.17576e-06
-8.38966e-06
3.93076e-06
-1.30372e-05
4.64749e-06
-1.83553e-05
5.31816e-06
-2.42979e-05
5.94253e-06
-3.0816e-05
6.5181e-06
-3.78615e-05
7.04553e-06
-4.53822e-05
7.52061e-06
-5.3323e-05
7.94081e-06
-6.16291e-05
8.30623e-06
-7.02487e-05
8.61958e-06
-7.91295e-05
8.88069e-06
-8.82184e-05
9.08902e-06
-9.7465e-05
9.2466e-06
-0.000106821
9.35604e-06
-0.00011624
9.41863e-06
-0.000125674
9.43416e-06
-0.000135079
9.40477e-06
-0.000144413
9.33424e-06
-0.000153636
9.22246e-06
-0.000162705
9.06909e-06
-0.000171584
8.87933e-06
-0.000180242
8.65827e-06
-0.000188648
8.4056e-06
-0.000196769
8.12078e-06
-0.000204576
7.80739e-06
-0.000212045
7.46917e-06
-0.000219152
7.10701e-06
-0.000225874
6.72162e-06
-0.00023219
6.31553e-06
-0.000238081
5.89105e-06
-0.00024353
5.44894e-06
-0.00024852
4.9905e-06
-0.000253039
4.51876e-06
-0.000257075
4.03639e-06
-0.000260619
3.54356e-06
-0.000263658
3.03912e-06
-0.000266182
2.5236e-06
-0.000268181
1.99988e-06
-0.000269652
1.47116e-06
-0.000270591
9.38854e-07
-0.000270994
4.02633e-07
-0.000270856
-1.37722e-07
-0.000270175
-6.80709e-07
-0.000268952
-1.22366e-06
-0.000267188
-1.7642e-06
-0.000264887
-2.30098e-06
-0.000262053
-2.83337e-06
-0.000258693
-3.36032e-06
-0.000254813
-3.8798e-06
-0.000250424
-4.38942e-06
-0.000245536
-4.88736e-06
-0.000240164
-5.37246e-06
-0.00023432
-5.84356e-06
-0.000228021
-6.29878e-06
-0.000221286
-6.73535e-06
-0.000214136
-7.15027e-06
-0.000206595
-7.54083e-06
-0.00019869
-7.90488e-06
-0.000190449
-8.24079e-06
-0.000181902
-8.54718e-06
-0.00017308
-8.82242e-06
-0.000164015
-9.06457e-06
-0.000154744
-9.27138e-06
-0.000145303
-9.44029e-06
-0.000135735
-9.56852e-06
-0.000126081
-9.65347e-06
-0.000116389
-9.69293e-06
-0.000106704
-9.68476e-06
-9.70771e-05
-9.62674e-06
-8.75604e-05
-9.51667e-06
-7.82078e-05
-9.35258e-06
-6.90748e-05
-9.13299e-06
-6.02177e-05
-8.85704e-06
-5.16933e-05
-8.52438e-06
-4.35584e-05
-8.13488e-06
-3.587e-05
-7.68836e-06
-2.86853e-05
-7.18461e-06
-2.20618e-05
-6.62353e-06
-1.60563e-05
-6.00554e-06
-1.0724e-05
-5.33225e-06
-6.11683e-06
-4.60712e-06
-2.28134e-06
-3.83549e-06
7.43112e-07
-3.02451e-06
2.92742e-06
-2.18429e-06
4.25801e-06
-1.33051e-06
4.74642e-06
-4.884e-07
4.44532e-06
3.0102e-07
3.47449e-06
9.7082e-07
2.06559e-06
1.40905e-06
6.56725e-07
1.40912e-06
6.5697e-07
1.58597e-06
-2.21294e-06
3.72313e-06
-3.23971e-06
5.23323e-06
-2.64396e-06
5.52521e-06
-9.30808e-07
4.12298e-06
1.42656e-06
7.6807e-07
4.13939e-06
-4.67327e-06
7.02881e-06
-1.22502e-05
9.96681e-06
-2.19427e-05
1.28683e-05
-3.36893e-05
1.56774e-05
-4.73994e-05
1.83575e-05
-6.29622e-05
2.0881e-05
-8.02503e-05
2.32306e-05
-9.91288e-05
2.53966e-05
-0.000119456
2.73728e-05
-0.000141086
2.91502e-05
-0.000163871
3.07262e-05
-0.000187666
3.21007e-05
-0.00021232
3.32738e-05
-0.000237687
3.42479e-05
-0.000263627
3.50281e-05
-0.000289999
3.56193e-05
-0.000316668
3.60248e-05
-0.000343501
3.6251e-05
-0.000370372
3.63055e-05
-0.00039716
3.61927e-05
-0.000423743
3.59176e-05
-0.000450008
3.54878e-05
-0.000475851
3.49117e-05
-0.000501169
3.4197e-05
-0.000525862
3.33518e-05
-0.00054984
3.23837e-05
-0.000573019
3.12995e-05
-0.000595318
3.0106e-05
-0.000616659
2.88106e-05
-0.000636972
2.74201e-05
-0.000656192
2.59417e-05
-0.000674259
2.43818e-05
-0.000691114
2.27464e-05
-0.000706707
2.10416e-05
-0.000720991
1.92744e-05
-0.000733924
1.74522e-05
-0.000745469
1.55809e-05
-0.000755589
1.36641e-05
-0.000764255
1.17053e-05
-0.000771441
9.70909e-06
-0.000777123
7.68182e-06
-0.000781282
5.63035e-06
-0.000783904
3.56032e-06
-0.000784977
1.47616e-06
-0.000784497
-6.17935e-07
-0.000782461
-2.71686e-06
-0.00077887
-4.81446e-06
-0.00077373
-6.90431e-06
-0.00076705
-8.98017e-06
-0.000758848
-1.1036e-05
-0.000749142
-1.30658e-05
-0.000737959
-1.5063e-05
-0.000725328
-1.7021e-05
-0.000711282
-1.89334e-05
-0.00069586
-2.0794e-05
-0.000679107
-2.25961e-05
-0.000661074
-2.43317e-05
-0.000641818
-2.5992e-05
-0.0006214
-2.75681e-05
-0.000599889
-2.90518e-05
-0.000577359
-3.04353e-05
-0.000553888
-3.17111e-05
-0.000529564
-3.28718e-05
-0.000504476
-3.39101e-05
-0.000478722
-3.48183e-05
-0.000452405
-3.55885e-05
-0.000425633
-3.62122e-05
-0.00039852
-3.6681e-05
-0.000371188
-3.69864e-05
-0.000343761
-3.712e-05
-0.000316371
-3.70743e-05
-0.000289156
-3.68421e-05
-0.000262256
-3.64163e-05
-0.000235818
-3.57909e-05
-0.000209989
-3.49611e-05
-0.000184923
-3.39237e-05
-0.000160771
-3.26763e-05
-0.000137688
-3.12179e-05
-0.000115828
-2.95481e-05
-9.53451e-05
-2.76674e-05
-7.63908e-05
-2.55779e-05
-5.91117e-05
-2.32846e-05
-4.36468e-05
-2.07971e-05
-3.01236e-05
-1.81304e-05
-1.86524e-05
-1.53067e-05
-9.31984e-06
-1.23571e-05
-2.17843e-06
-9.32559e-06
2.76758e-06
-6.27645e-06
5.58415e-06
-3.30493e-06
6.43845e-06
-5.53146e-07
5.64283e-06
1.76637e-06
3.71002e-06
3.34135e-06
1.42255e-06
3.696e-06
2.07962e-06
1.5501e-06
-3.76316e-06
3.5595e-06
-5.24916e-06
4.36049e-06
-3.44482e-06
3.14662e-06
2.83113e-07
-6.48002e-07
5.22106e-06
-7.40013e-06
1.08914e-05
-1.73173e-05
1.69459e-05
-3.04816e-05
2.31311e-05
-4.68817e-05
2.92684e-05
-6.64436e-05
3.52391e-05
-8.90347e-05
4.09487e-05
-0.000114495
4.63411e-05
-0.000142636
5.13713e-05
-0.000173249
5.60098e-05
-0.000206116
6.02397e-05
-0.000241012
6.40467e-05
-0.000277708
6.74214e-05
-0.000315971
7.03639e-05
-0.000355574
7.28768e-05
-0.00039629
7.49644e-05
-0.000437895
7.66329e-05
-0.000480168
7.78926e-05
-0.0005229
7.87562e-05
-0.000565884
7.9235e-05
-0.000608918
7.93393e-05
-0.000651808
7.90831e-05
-0.000694372
7.84819e-05
-0.000736433
7.75485e-05
-0.000777818
7.62969e-05
-0.000818366
7.47449e-05
-0.000857924
7.29099e-05
-0.000896347
7.08062e-05
-0.000933495
6.84473e-05
-0.000969238
6.5849e-05
-0.00100345
6.30274e-05
-0.00103603
5.99968e-05
-0.00106686
5.6771e-05
-0.00109584
5.3364e-05
-0.00112289
4.97898e-05
-0.00114791
4.60622e-05
-0.00117083
4.2195e-05
-0.00119158
3.82017e-05
-0.00121009
3.4095e-05
-0.00122631
2.98861e-05
-0.00124019
2.55858e-05
-0.00125169
2.12053e-05
-0.00126076
1.67568e-05
-0.00126739
1.22536e-05
-0.00127154
7.70829e-06
-0.00127319
3.1326e-06
-0.00127235
-1.46213e-06
-0.001269
-6.06412e-06
-0.00126315
-1.06606e-05
-0.00125482
-1.5238e-05
-0.00124402
-1.97826e-05
-0.00123077
-2.42807e-05
-0.00121512
-2.87186e-05
-0.0011971
-3.30821e-05
-0.00117677
-3.73571e-05
-0.00115417
-4.15291e-05
-0.00112938
-4.55835e-05
-0.00110247
-4.95047e-05
-0.00107353
-5.32759e-05
-0.00104264
-5.68798e-05
-0.00100991
-6.02991e-05
-0.000975444
-6.35164e-05
-0.000939365
-6.65149e-05
-0.000901798
-6.9278e-05
-0.000862881
-7.17888e-05
-0.00082276
-7.40306e-05
-0.000781592
-7.59868e-05
-0.000739539
-7.76406e-05
-0.000696777
-7.89749e-05
-0.000653485
-7.99724e-05
-0.000609855
-8.06163e-05
-0.000566085
-8.08904e-05
-0.00052238
-8.07791e-05
-0.000478954
-8.0268e-05
-0.000436027
-7.93438e-05
-0.000393823
-7.79948e-05
-0.000352573
-7.62114e-05
-0.00031251
-7.39866e-05
-0.000273871
-7.13154e-05
-0.000236893
-6.81958e-05
-0.000201813
-6.46279e-05
-0.000168865
-6.06154e-05
-0.000138276
-5.61666e-05
-0.000110264
-5.12963e-05
-8.50331e-05
-4.60283e-05
-6.27654e-05
-4.03982e-05
-4.36153e-05
-3.44567e-05
-2.76977e-05
-2.82747e-05
-1.50729e-05
-2.19505e-05
-5.72694e-06
-1.56225e-05
4.54101e-07
-9.48588e-06
3.71818e-06
-3.81701e-06
4.48994e-06
9.94794e-07
3.41975e-06
4.41172e-06
1.44525e-06
5.67021e-06
3.52487e-06
1.16447e-06
-4.92753e-06
2.08235e-06
-6.16719e-06
1.13168e-06
-2.49407e-06
-2.59563e-06
4.01028e-06
-9.72082e-06
1.23463e-05
-2.06637e-05
2.18343e-05
-3.56657e-05
3.1948e-05
-5.48353e-05
4.23006e-05
-7.81722e-05
5.26053e-05
-0.000105585
6.26521e-05
-0.000136926
7.22892e-05
-0.00017199
8.14057e-05
-0.000210543
8.9924e-05
-0.000252325
9.77915e-05
-0.000297053
0.000104968
-0.000344438
0.000111431
-0.000394184
0.000117167
-0.000445992
0.000122172
-0.000499558
0.000126443
-0.000554584
0.00012999
-0.000610778
0.000132827
-0.000667854
0.000134968
-0.000725525
0.000136428
-0.000783518
0.000137227
-0.000841568
0.00013739
-0.000899422
0.000136936
-0.000956828
0.000135889
-0.00101355
0.000134271
-0.00106937
0.000132111
-0.00112406
0.000129434
-0.00117741
0.000126266
-0.00122924
0.000122632
-0.00127935
0.000118558
-0.00132757
0.000114071
-0.00137374
0.000109194
-0.00141769
0.000103953
-0.00145929
9.83716e-05
-0.0014984
9.24747e-05
-0.0015349
8.62856e-05
-0.00156867
7.98277e-05
-0.00159959
7.31244e-05
-0.00162759
6.61987e-05
-0.00165257
5.90722e-05
-0.00167445
5.17657e-05
-0.00169316
4.42997e-05
-0.00170865
3.66949e-05
-0.00172087
2.8973e-05
-0.00172977
2.1156e-05
-0.00173533
1.32655e-05
-0.00173752
5.32248e-06
-0.00173633
-2.65194e-06
-0.00173176
-1.06361e-05
-0.00172381
-1.86074e-05
-0.0017125
-2.65429e-05
-0.00169787
-3.44189e-05
-0.00167994
-4.22118e-05
-0.00165876
-4.98972e-05
-0.00163439
-5.74507e-05
-0.0016069
-6.48472e-05
-0.00157637
-7.20615e-05
-0.00154288
-7.90673e-05
-0.00150655
-8.58377e-05
-0.00146748
-9.23447e-05
-0.0014258
-9.85595e-05
-0.00138165
-0.000104453
-0.00133517
-0.000109996
-0.00128652
-0.000115161
-0.00123588
-0.000119917
-0.00118344
-0.000124236
-0.00112938
-0.000128089
-0.00107392
-0.000131448
-0.00101727
-0.000134284
-0.000959678
-0.000136569
-0.000901378
-0.000138273
-0.000842623
-0.000139371
-0.000783679
-0.000139835
-0.000724817
-0.00013964
-0.000666321
-0.000138764
-0.000608479
-0.000137186
-0.000551588
-0.000134886
-0.000495951
-0.000131849
-0.000441872
-0.000128065
-0.000389661
-0.000123527
-0.000339626
-0.00011823
-0.000292074
-0.00011218
-0.000247305
-0.000105385
-0.000205609
-9.78629e-05
-0.00016726
-8.96448e-05
-0.000132513
-8.07755e-05
-0.000101592
-7.13195e-05
-7.46822e-05
-6.13664e-05
-5.19176e-05
-5.10392e-05
-3.33625e-05
-4.05057e-05
-1.8991e-05
-2.9994e-05
-8.662e-06
-1.9815e-05
-2.08721e-06
-1.03921e-05
1.20625e-06
-2.29872e-06
1.91704e-06
3.70122e-06
1.02909e-06
6.55806e-06
4.55396e-06
4.88425e-07
-5.41599e-06
-2.19971e-07
-5.45876e-06
-3.6274e-06
9.13248e-07
-1.05975e-05
1.09805e-05
-2.17438e-05
2.34925e-05
-3.74829e-05
3.75733e-05
-5.80651e-05
5.25301e-05
-8.35999e-05
6.78354e-05
-0.000114083
8.3088e-05
-0.000149411
9.79809e-05
-0.000189417
0.000112295
-0.000233871
0.00012586
-0.0002825
0.000138553
-0.000334998
0.000150289
-0.000391038
0.000161007
-0.000450275
0.000170669
-0.000512357
0.000179249
-0.00057692
0.000186735
-0.000643608
0.000193131
-0.000712062
0.000198444
-0.000781922
0.000202687
-0.000852837
0.000205883
-0.000924467
0.000208058
-0.000996478
0.000209238
-0.00106854
0.000209455
-0.00114035
0.000208741
-0.00121159
0.000207131
-0.00128198
0.000204661
-0.00135124
0.000201369
-0.00141909
0.000197292
-0.0014853
0.000192468
-0.0015496
0.000186937
-0.00161178
0.000180736
-0.00167161
0.000173903
-0.0017289
0.000166477
-0.00178344
0.000158494
-0.00183506
0.000149992
-0.00188359
0.000141005
-0.00192887
0.00013157
-0.00197077
0.000121723
-0.00200914
0.000111499
-0.00204388
0.000100932
-0.00207486
9.00555e-05
-0.002102
7.89022e-05
-0.0021252
6.75046e-05
-0.0021444
5.58953e-05
-0.00215954
4.41077e-05
-0.00217055
3.21747e-05
-0.00217742
2.01296e-05
-0.0021801
8.00519e-06
-0.00217859
-4.16537e-06
-0.00217287
-1.63482e-05
-0.00216297
-2.85087e-05
-0.0021489
-4.06117e-05
-0.0021307
-5.26214e-05
-0.00210841
-6.45013e-05
-0.0020821
-7.62144e-05
-0.00205182
-8.7723e-05
-0.00201768
-9.89887e-05
-0.00197977
-0.000109973
-0.0019382
-0.000120635
-0.00189311
-0.000130934
-0.00184462
-0.000140828
-0.00179291
-0.000150275
-0.00173813
-0.00015923
-0.00168048
-0.000167651
-0.00162014
-0.000175494
-0.00155735
-0.000182715
-0.00149231
-0.000189271
-0.00142528
-0.000195117
-0.00135652
-0.000200212
-0.00128629
-0.000204512
-0.00121489
-0.000207975
-0.0011426
-0.00021056
-0.00106974
-0.000212226
-0.000996642
-0.000212937
-0.000923627
-0.000212655
-0.000851043
-0.000211348
-0.000779243
-0.000208986
-0.000708586
-0.000205543
-0.000639438
-0.000200997
-0.000572169
-0.000195334
-0.00050715
-0.000188546
-0.000444751
-0.000180629
-0.000385337
-0.000171594
-0.000329264
-0.000161457
-0.000276875
-0.000150252
-0.000228491
-0.000138029
-0.000184407
-0.00012486
-0.00014488
-0.000110846
-0.000110122
-9.61243e-05
-8.02829e-05
-8.08788e-05
-5.54335e-05
-6.53551e-05
-3.55485e-05
-4.98788e-05
-2.04811e-05
-3.48823e-05
-9.93715e-06
-2.09362e-05
-3.44418e-06
-8.79175e-06
-3.18712e-07
5.75845e-07
3.82857e-07
5.85646e-06
4.93683e-06
-3.20338e-07
-5.09573e-06
-2.99848e-06
-2.78063e-06
-9.30302e-06
7.21772e-06
-2.0002e-05
2.16795e-05
-3.56498e-05
3.91402e-05
-5.66247e-05
5.85481e-05
-8.31539e-05
7.90594e-05
-0.000115329
0.000100011
-0.000153129
0.000120888
-0.00019644
0.000141292
-0.000245068
0.000160922
-0.000298755
0.000179547
-0.000357201
0.000197
-0.000420066
0.000213154
-0.000486978
0.000227919
-0.000557547
0.000241238
-0.000631373
0.000253075
-0.000708048
0.00026341
-0.000787155
0.000272238
-0.00086828
0.00027957
-0.000951016
0.000285423
-0.00103496
0.000289824
-0.0011197
0.000292805
-0.00120487
0.000294403
-0.00129007
0.00029466
-0.00137495
0.00029362
-0.00145915
0.000291331
-0.00154233
0.00028784
-0.00162416
0.0002832
-0.00170433
0.000277462
-0.00178254
0.000270678
-0.00185851
0.000262902
-0.00193196
0.000254184
-0.00200263
0.00024458
-0.00207029
0.00023414
-0.00213472
0.000222917
-0.00219569
0.000210961
-0.00225301
0.000198323
-0.00230649
0.000185053
-0.00235597
0.000171202
-0.00240129
0.000156817
-0.0024423
0.000141946
-0.00247888
0.000126638
-0.00251092
0.000110939
-0.00253831
9.48959e-05
-0.00256097
7.85545e-05
-0.00257883
6.19621e-05
-0.00259182
4.51653e-05
-0.0025999
2.8211e-05
-0.00260304
1.11462e-05
-0.00260122
-5.9817e-06
-0.00259445
-2.31245e-05
-0.00258272
-4.02334e-05
-0.00256607
-5.72586e-05
-0.00254455
-7.41498e-05
-0.00251819
-9.08555e-05
-0.00248708
-0.000107323
-0.0024513
-0.000123501
-0.00241096
-0.000139333
-0.00236617
-0.000154765
-0.00231706
-0.000169741
-0.00226379
-0.000184203
-0.00220653
-0.000198093
-0.00214545
-0.000211352
-0.00208076
-0.000223919
-0.00201268
-0.000235734
-0.00194144
-0.000246736
-0.00186729
-0.000256865
-0.0017905
-0.000266059
-0.00171136
-0.00027426
-0.00163016
-0.000281406
-0.00154723
-0.000287439
-0.00146291
-0.000292302
-0.00137753
-0.000295937
-0.00129146
-0.000298292
-0.00120509
-0.000299314
-0.00111879
-0.000298955
-0.00103296
-0.000297172
-0.000948026
-0.000293924
-0.00086439
-0.000289179
-0.000782477
-0.00028291
-0.000702713
-0.000275098
-0.000625525
-0.000265734
-0.000551335
-0.000254819
-0.00048056
-0.000242369
-0.000413603
-0.000228414
-0.000350851
-0.000213004
-0.000292666
-0.000196214
-0.000239376
-0.000178149
-0.000191271
-0.000158951
-0.000148585
-0.00013881
-0.000111487
-0.000117978
-8.00617e-05
-9.678e-05
-5.42977e-05
-7.56428e-05
-3.40627e-05
-5.51172e-05
-1.90848e-05
-3.59141e-05
-8.92887e-06
-1.89477e-05
-2.97396e-06
-5.37914e-06
-3.78733e-07
3.26129e-06
4.55809e-06
-1.1846e-06
-3.91104e-06
-6.01566e-06
2.05033e-06
-1.548e-05
1.6682e-05
-3.02162e-05
3.64158e-05
-5.06811e-05
5.9605e-05
-7.71887e-05
8.50557e-05
-0.000109921
0.000111791
-0.000148935
0.000139025
-0.000194183
0.000166136
-0.000245524
0.000192633
-0.000302738
0.000218136
-0.000365546
0.000242355
-0.000433612
0.000265065
-0.00050656
0.000286102
-0.000583989
0.000305349
-0.000665472
0.000322721
-0.000750561
0.000338164
-0.000838802
0.000351651
-0.000929738
0.000363174
-0.00102291
0.00037274
-0.00111785
0.000380368
-0.00121412
0.00038609
-0.00131126
0.000389945
-0.00140884
0.000391982
-0.00150643
0.000392252
-0.00160362
0.000390811
-0.00170001
0.00038772
-0.00179521
0.000383043
-0.00188886
0.000376845
-0.00198059
0.000369194
-0.00207007
0.000360158
-0.00215697
0.000349804
-0.00224099
0.000338202
-0.00232183
0.000325421
-0.00239922
0.000311531
-0.0024729
0.000296597
-0.00254263
0.000280689
-0.00260818
0.000263872
-0.00266934
0.000246213
-0.00272591
0.000227779
-0.00277773
0.000208633
-0.00282462
0.000188839
-0.00286645
0.000168461
-0.00290307
0.000147562
-0.00293438
0.000126204
-0.00296027
0.000104449
-0.00298067
8.23607e-05
-0.00299551
6.00005e-05
-0.00300473
3.74314e-05
-0.0030083
1.47164e-05
-0.0030062
-8.08073e-06
-0.00299843
-3.08956e-05
-0.002985
-5.36628e-05
-0.00296594
-7.63161e-05
-0.0029413
-9.87882e-05
-0.00291115
-0.000121011
-0.00287556
-0.000142914
-0.00283463
-0.000164428
-0.00278848
-0.000185479
-0.00273725
-0.000205995
-0.00268109
-0.000225901
-0.00262017
-0.000245122
-0.00255469
-0.000263578
-0.00248485
-0.000281194
-0.00241088
-0.000297889
-0.00233302
-0.000313584
-0.00225156
-0.000328199
-0.00216677
-0.000341655
-0.00207896
-0.00035387
-0.00198845
-0.000364768
-0.00189559
-0.000374268
-0.00180073
-0.000382295
-0.00170426
-0.000388773
-0.00160657
-0.000393629
-0.00150807
-0.000396794
-0.00140918
-0.000398203
-0.00131034
-0.000397793
-0.00121201
-0.000395509
-0.00111463
-0.000391301
-0.00101868
-0.000385129
-0.00092463
-0.00037696
-0.000832955
-0.000366773
-0.000744129
-0.000354559
-0.000658623
-0.000340326
-0.000576895
-0.000324096
-0.000499394
-0.000305915
-0.000426544
-0.000285854
-0.000358742
-0.000264016
-0.000296352
-0.000240539
-0.000239689
-0.000215614
-0.000189014
-0.000189485
-0.000144519
-0.000162473
-0.000106313
-0.000134985
-7.44109e-05
-0.000107545
-4.87122e-05
-8.08161e-05
-2.89901e-05
-5.56362e-05
-1.48751e-05
-3.30627e-05
-5.84127e-06
-1.44131e-05
-1.18834e-06
-1.39156e-06
3.36972e-06
-2.0688e-06
-1.8422e-06
-9.12683e-06
9.10834e-06
-2.18874e-05
2.94425e-05
-4.08307e-05
5.53591e-05
-6.63008e-05
8.50752e-05
-9.85287e-05
0.000117283
-0.000137631
0.000150893
-0.000183615
0.00018501
-0.000236394
0.000218914
-0.000295794
0.000252032
-0.000361564
0.000283906
-0.000433392
0.000314183
-0.000510914
0.000342588
-0.000593726
0.000368914
-0.000681388
0.00039301
-0.000773435
0.000414768
-0.000869388
0.000434116
-0.000968752
0.000451015
-0.00107103
0.000465449
-0.00117571
0.000477422
-0.0012823
0.000486956
-0.00139029
0.000494088
-0.00149921
0.000498864
-0.00160857
0.00050134
-0.0017179
0.000501579
-0.00182674
0.000499653
-0.00193466
0.000495636
-0.00204122
0.000489605
-0.00214602
0.000481644
-0.00224866
0.000471834
-0.00234876
0.000460261
-0.00244597
0.000447013
-0.00253994
0.000432174
-0.00263035
0.000415833
-0.0027169
0.000398075
-0.00279929
0.000378986
-0.00287725
0.000358653
-0.00295054
0.000337159
-0.00301891
0.000314589
-0.00308216
0.000291027
-0.00314008
0.000266555
-0.0031925
0.000241255
-0.00323925
0.000215207
-0.00328018
0.000188493
-0.00331516
0.000161192
-0.0033441
0.000133384
-0.00336689
0.00010515
-0.00338346
7.65697e-05
-0.00339375
4.77235e-05
-0.00339772
1.86923e-05
-0.00339536
-1.04422e-05
-0.00338666
-3.95972e-05
-0.00337164
-6.86891e-05
-0.00335032
-9.7633e-05
-0.00332276
-0.000126343
-0.00328904
-0.000154731
-0.00324925
-0.000182709
-0.00320349
-0.000210187
-0.0031519
-0.000237071
-0.00309462
-0.000263269
-0.00303184
-0.000288686
-0.00296374
-0.000313224
-0.00289053
-0.000336786
-0.00281245
-0.000359274
-0.00272975
-0.000380585
-0.00264271
-0.000400621
-0.00255163
-0.00041928
-0.00245683
-0.000436461
-0.00235863
-0.000452063
-0.00225741
-0.000465987
-0.00215355
-0.000478134
-0.00204743
-0.000488408
-0.00193949
-0.000496715
-0.00183015
-0.000502965
-0.00171988
-0.000507071
-0.00160913
-0.000508951
-0.00149839
-0.00050853
-0.00138816
-0.000505741
-0.00127894
-0.000500523
-0.00117124
-0.000492829
-0.00106558
-0.00048262
-0.000962477
-0.000469873
-0.000862454
-0.000454583
-0.000766019
-0.00043676
-0.000673675
-0.00041644
-0.000585905
-0.000393685
-0.000503171
-0.000368588
-0.000425905
-0.000341282
-0.000354499
-0.000311945
-0.000289301
-0.000280812
-0.000230599
-0.000248187
-0.000178616
-0.000214456
-0.000133494
-0.000180108
-9.52824e-05
-0.000145757
-6.39312e-05
-0.000112167
-3.92757e-05
-8.02917e-05
-2.10313e-05
-5.13071e-05
-8.78815e-06
-2.66561e-05
-2.00663e-06
-8.17306e-06
1.36308e-06
-2.94222e-06
1.09998e-06
-1.22421e-05
1.84083e-05
-2.83477e-05
4.5548e-05
-5.1572e-05
7.85833e-05
-8.21404e-05
0.000115644
-0.000120188
0.000155331
-0.000165751
0.000196457
-0.00021878
0.000238039
-0.000279134
0.000279269
-0.000346597
0.000319495
-0.000420884
0.000358194
-0.00050165
0.000394948
-0.000588495
0.000429433
-0.000680983
0.000461402
-0.000778642
0.000490669
-0.000880974
0.0005171
-0.000987462
0.000540604
-0.00109758
0.00056113
-0.00121078
0.000578652
-0.00132653
0.000593173
-0.00144429
0.000604715
-0.00156352
0.000613318
-0.00168369
0.000619036
-0.00180429
0.000621935
-0.0019248
0.00062209
-0.00204473
0.000619584
-0.0021636
0.000614507
-0.00228095
0.000606953
-0.00239633
0.000597021
-0.0025093
0.000584812
-0.00261947
0.000570429
-0.00272644
0.000553978
-0.00282983
0.000535564
-0.00292929
0.000515293
-0.00302448
0.000493271
-0.0031151
0.000469604
-0.00320085
0.000444396
-0.00328144
0.000417753
-0.00335663
0.000389777
-0.00342617
0.000360572
-0.00348986
0.00033024
-0.00354748
0.000298882
-0.00359887
0.000266598
-0.00364387
0.000233488
-0.00368233
0.000199651
-0.00371413
0.000165188
-0.00373918
0.000130197
-0.00375739
9.47779e-05
-0.0037687
5.90306e-05
-0.00377306
2.30557e-05
-0.00377046
-1.30453e-05
-0.00376088
-4.91699e-05
-0.00374436
-8.52142e-05
-0.00372092
-0.000121073
-0.00369062
-0.00015664
-0.00365355
-0.000191806
-0.00360979
-0.000226462
-0.00355949
-0.000260495
-0.00350276
-0.000293792
-0.0034398
-0.000326238
-0.00337077
-0.000357713
-0.00329589
-0.000388101
-0.0032154
-0.000417279
-0.00312955
-0.000445127
-0.00303861
-0.000471521
-0.00294289
-0.000496337
-0.00284272
-0.000519452
-0.00273844
-0.000540741
-0.00263043
-0.000560081
-0.00251906
-0.000577351
-0.00240477
-0.000592431
-0.00228797
-0.000605203
-0.00216913
-0.000615553
-0.00204873
-0.000623371
-0.00192724
-0.000628554
-0.00180519
-0.000631002
-0.0016831
-0.000630627
-0.00156149
-0.000627348
-0.00144092
-0.000621094
-0.00132194
-0.00061181
-0.0012051
-0.000599452
-0.00109098
-0.000583998
-0.000980121
-0.000565441
-0.000873079
-0.000543802
-0.000770391
-0.000519128
-0.000672578
-0.000491499
-0.000580135
-0.000461031
-0.000493528
-0.000427889
-0.000413183
-0.00039229
-0.000339478
-0.000354517
-0.000272736
-0.000314929
-0.000213214
-0.000273978
-0.000161095
-0.000232227
-0.000116478
-0.000190374
-7.93703e-05
-0.000149275
-4.96841e-05
-0.000109978
-2.72323e-05
-7.37588e-05
-1.17326e-05
-4.21558e-05
-2.81152e-06
-1.70942e-05
-1.44843e-06
-3.79188e-06
4.89181e-06
-1.53068e-05
2.99233e-05
-3.47423e-05
6.49835e-05
-6.22593e-05
0.0001061
-9.7953e-05
0.000151337
-0.000141852
0.00019923
-0.000193911
0.000248516
-0.000254007
0.000298135
-0.000321946
0.000347207
-0.000397459
0.000395009
-0.000480219
0.000440954
-0.000569841
0.00048457
-0.000665894
0.000525486
-0.000767904
0.000563413
-0.000875367
0.000598131
-0.000987749
0.000629482
-0.0011045
0.000657358
-0.00122506
0.00068169
-0.00134886
0.000702446
-0.00147531
0.000719624
-0.00160384
0.000733248
-0.00173388
0.000743361
-0.00186487
0.000750024
-0.00199625
0.000753312
-0.00212747
0.000753312
-0.00225801
0.000750122
-0.00238735
0.000743846
-0.00251499
0.000734595
-0.00264045
0.000722487
-0.00276328
0.00070764
-0.00288303
0.000690178
-0.00299928
0.000670225
-0.00311162
0.000647907
-0.00321968
0.000623351
-0.00332309
0.000596684
-0.00342152
0.000568032
-0.00351464
0.000537521
-0.00360217
0.000505277
-0.00368382
0.000471424
-0.00375933
0.000436087
-0.00382848
0.000399388
-0.00389105
0.000361449
-0.00394684
0.000322391
-0.00399569
0.000282336
-0.00403744
0.000241404
-0.00407197
0.000199714
-0.00409916
0.000157388
-0.00411892
0.000114545
-0.0041312
7.13062e-05
-0.00413594
2.77942e-05
-0.00413311
-1.58685e-05
-0.00412273
-5.95579e-05
-0.00410479
-0.000103148
-0.00407935
-0.000146513
-0.00404647
-0.000189522
-0.00400623
-0.000232046
-0.00395874
-0.000273951
-0.00390413
-0.000315102
-0.00384256
-0.000355362
-0.00377421
-0.000394591
-0.00369928
-0.000432649
-0.00361799
-0.000469391
-0.00353059
-0.000504673
-0.00343737
-0.000538348
-0.00333862
-0.000570269
-0.00323467
-0.000600287
-0.00312587
-0.000628255
-0.00301259
-0.000654022
-0.00289523
-0.000677443
-0.00277421
-0.000698372
-0.00264997
-0.000716665
-0.00252299
-0.000732184
-0.00239375
-0.000744792
-0.00226276
-0.000754359
-0.00213055
-0.000760763
-0.00199767
-0.000763889
-0.00186466
-0.000763631
-0.00173212
-0.000759895
-0.00160061
-0.000752601
-0.00147074
-0.000741684
-0.00134309
-0.000727097
-0.00121827
-0.000708816
-0.00109688
-0.000686839
-0.000979485
-0.000661193
-0.000866675
-0.000631938
-0.000759001
-0.000599172
-0.000656994
-0.000563038
-0.000561152
-0.000523731
-0.000471936
-0.000481507
-0.000389759
-0.000436693
-0.000314984
-0.000389705
-0.000247907
-0.000341054
-0.000188759
-0.000291375
-0.000137695
-0.000241438
-9.47921e-05
-0.000192178
-6.00458e-05
-0.000144724
-3.33741e-05
-0.00010043
-1.46262e-05
-6.09038e-05
-3.59162e-06
-2.81288e-05
-5.04008e-06
-4.60864e-06
9.50046e-06
-1.82858e-05
4.36005e-05
-4.10081e-05
8.77058e-05
-7.27787e-05
0.000137871
-0.000113572
0.000192131
-0.000163309
0.000248966
-0.000221855
0.000307061
-0.000289009
0.000365289
-0.000364512
0.00042271
-0.000448042
0.00047854
-0.000539224
0.000532135
-0.000637629
0.000582975
-0.000742787
0.000630644
-0.000854188
0.000674814
-0.000971293
0.000715236
-0.00109354
0.000751726
-0.00122033
0.000784155
-0.00135109
0.000812444
-0.00148519
0.000836552
-0.00162204
0.000856472
-0.00176102
0.000872228
-0.00190153
0.000883867
-0.00204296
0.000891458
-0.00218474
0.000895086
-0.00232627
0.000894849
-0.00246701
0.00089086
-0.00260641
0.000883239
-0.00274393
0.000872115
-0.00287906
0.000857622
-0.00301132
0.0008399
-0.00314024
0.000819093
-0.00326536
0.000795345
-0.00338625
0.000768804
-0.00350252
0.000739619
-0.00361377
0.000707938
-0.00371965
0.00067391
-0.00381982
0.000637684
-0.00391395
0.000599408
-0.00400175
0.000559228
-0.00408295
0.00051729
-0.0041573
0.00047374
-0.00422458
0.000428722
-0.00428457
0.00038238
-0.00433709
0.000334857
-0.00438198
0.000286295
-0.0044191
0.000236837
-0.00444834
0.000186625
-0.0044696
0.000135803
-0.0044828
8.45129e-05
-0.00448791
3.29005e-05
-0.00448489
-1.8889e-05
-0.00447374
-7.07085e-05
-0.00445448
-0.000122409
-0.00442715
-0.000173841
-0.00439182
-0.00022485
-0.00434858
-0.000275282
-0.00429755
-0.00032498
-0.00423887
-0.000373785
-0.0041727
-0.000421532
-0.00409923
-0.000468058
-0.00401869
-0.000513197
-0.0039313
-0.000556778
-0.00383734
-0.000598631
-0.00373711
-0.000638583
-0.00363091
-0.000676461
-0.00351911
-0.00071209
-0.00340207
-0.000745294
-0.00328019
-0.000775901
-0.0031539
-0.000803737
-0.00302364
-0.000828632
-0.00288989
-0.000850418
-0.00275314
-0.000868932
-0.00261391
-0.000884016
-0.00247275
-0.00089552
-0.00233022
-0.000903299
-0.00218689
-0.000907221
-0.00204335
-0.000907164
-0.00190022
-0.000903022
-0.00175812
-0.000894702
-0.00161767
-0.000882133
-0.00147951
-0.000865262
-0.00134426
-0.000844063
-0.00121256
-0.000818539
-0.00108503
-0.000788724
-0.000962279
-0.000754692
-0.000844892
-0.000716559
-0.000733438
-0.000674492
-0.000628451
-0.000628718
-0.000530428
-0.00057953
-0.000439822
-0.000527299
-0.000357035
-0.000472491
-0.000282413
-0.000415677
-0.00021624
-0.000357549
-0.000158732
-0.000298945
-0.000110042
-0.000240868
-7.02545e-05
-0.000184512
-3.93951e-05
-0.00013129
-1.74428e-05
-8.28561e-05
-4.34213e-06
-4.12295e-05
-9.38228e-06
-5.39254e-06
1.4893e-05
-2.11657e-05
5.93737e-05
-4.71013e-05
0.000113641
-8.30619e-05
0.000173832
-0.0001289
0.000237969
-0.000184429
0.000304496
-0.00024942
0.000372051
-0.000323594
0.000439464
-0.000406623
0.000505738
-0.000498125
0.000570042
-0.000597671
0.000631681
-0.000704788
0.000690092
-0.000818961
0.000744817
-0.000939644
0.000795497
-0.00106626
0.000841851
-0.00119821
0.000883673
-0.00133487
0.000920818
-0.00147561
0.00095319
-0.00161981
0.000980743
-0.0017668
0.00100347
-0.00191596
0.00102139
-0.00206664
0.00103455
-0.00221822
0.00104304
-0.00237008
0.00104694
-0.0025216
0.00104637
-0.0026722
0.00104146
-0.0028213
0.00103234
-0.00296835
0.00101916
-0.0031128
0.00100207
-0.00325414
0.000981239
-0.00339187
0.000956823
-0.00352552
0.000928991
-0.00365463
0.000897915
-0.00377877
0.000863765
-0.00389755
0.000826713
-0.00401057
0.000786932
-0.00411748
0.000744592
-0.00421794
0.000699867
-0.00431164
0.000652926
-0.00439828
0.000603939
-0.00447762
0.000553075
-0.0045494
0.000500501
-0.0046134
0.000446386
-0.00466944
0.000390894
-0.00471734
0.000334194
-0.00475695
0.00027645
-0.00478816
0.000217829
-0.00481085
0.000158497
-0.00482496
9.86224e-05
-0.00483044
3.83724e-05
-0.00482724
-2.20828e-05
-0.00481538
-8.25718e-05
-0.00479487
-0.000142921
-0.00476575
-0.000202956
-0.0047281
-0.000262497
-0.00468202
-0.000321365
-0.00462763
-0.000379377
-0.00456506
-0.000436347
-0.00449451
-0.000492085
-0.00441617
-0.000546401
-0.00433026
-0.000599101
-0.00423705
-0.000649987
-0.00413682
-0.000698863
-0.00402988
-0.000745527
-0.00391656
-0.000789778
-0.00379724
-0.000831414
-0.0036723
-0.000870232
-0.00354217
-0.000906032
-0.00340729
-0.000938613
-0.00326814
-0.000967779
-0.00312523
-0.000993336
-0.00297906
-0.0010151
-0.0028302
-0.00103288
-0.0026792
-0.00104651
-0.00252668
-0.00105583
-0.00237322
-0.00106068
-0.00221946
-0.00106092
-0.00206605
-0.00105644
-0.00191362
-0.00104713
-0.00176285
-0.0010329
-0.0016144
-0.00101371
-0.00146894
-0.000989527
-0.00132712
-0.000960352
-0.00118962
-0.000926231
-0.00105706
-0.000887249
-0.000930079
-0.000843541
-0.000809274
-0.000795298
-0.000695218
-0.000742775
-0.000588446
-0.000686301
-0.000489454
-0.000626291
-0.000398691
-0.000563255