/*--------------------------------*- C++ -*----------------------------------*\
  =========                 |
  \\      /  F ield         | OpenFOAM: The Open Source CFD Toolbox
   \\    /   O peration     | Website:  https://openfoam.org
    \\  /    A nd           | Version:  11
     \\/     M anipulation  |
\*---------------------------------------------------------------------------*/
FoamFile
{
    format      ascii;
    class       volVectorField;
    location    "4.1";
    object      U;
}
// * * * * * * * * * * * * * * * * * * * * * * * * * * * * * * * * * * * * * //

dimensions      [0 1 -1 0 0 0 0];

internalField   nonuniform List<vector> 
10100
(
(4.86205e-06 -1.00417e-06 0)
(1.30267e-05 -4.24091e-06 0)
(2.87515e-05 -6.50394e-06 0)
(4.12347e-05 -5.39986e-06 0)
(4.92994e-05 -3.22784e-06 0)
(4.95694e-05 -5.43024e-07 0)
(4.11787e-05 2.32229e-06 0)
(2.37966e-05 5.19708e-06 0)
(-2.54172e-06 7.98666e-06 0)
(-3.7675e-05 1.06385e-05 0)
(-8.12274e-05 1.31401e-05 0)
(-0.000132736 1.54849e-05 0)
(-0.000191753 1.76741e-05 0)
(-0.000257716 1.96988e-05 0)
(-0.000330067 2.15561e-05 0)
(-0.000408256 2.32421e-05 0)
(-0.000491703 2.47384e-05 0)
(-0.000579808 2.60499e-05 0)
(-0.000671998 2.71917e-05 0)
(-0.000767683 2.81551e-05 0)
(-0.000866288 2.89565e-05 0)
(-0.000967248 2.95994e-05 0)
(-0.00106998 3.006e-05 0)
(-0.00117394 3.03463e-05 0)
(-0.00127862 3.04745e-05 0)
(-0.00138347 3.04487e-05 0)
(-0.00148801 3.02864e-05 0)
(-0.00159178 2.9998e-05 0)
(-0.00169432 2.95729e-05 0)
(-0.00179517 2.90117e-05 0)
(-0.00189395 2.83322e-05 0)
(-0.00199026 2.75442e-05 0)
(-0.00208373 2.66536e-05 0)
(-0.00217401 2.56727e-05 0)
(-0.00226078 2.46078e-05 0)
(-0.00234373 2.34544e-05 0)
(-0.00242259 2.22168e-05 0)
(-0.00249708 2.09134e-05 0)
(-0.00256695 1.95558e-05 0)
(-0.00263198 1.8136e-05 0)
(-0.00269195 1.66446e-05 0)
(-0.00274666 1.50911e-05 0)
(-0.00279592 1.34956e-05 0)
(-0.00283957 1.18688e-05 0)
(-0.00287747 1.02065e-05 0)
(-0.00290949 8.50348e-06 0)
(-0.00293553 6.76536e-06 0)
(-0.00295549 5.00424e-06 0)
(-0.00296928 3.22753e-06 0)
(-0.00297685 1.43481e-06 0)
(-0.00297816 -3.75113e-07 0)
(-0.00297317 -2.19716e-06 0)
(-0.0029619 -4.02161e-06 0)
(-0.00294434 -5.83954e-06 0)
(-0.00292054 -7.6456e-06 0)
(-0.00289053 -9.43652e-06 0)
(-0.00285441 -1.12068e-05 0)
(-0.00281227 -1.29476e-05 0)
(-0.00276424 -1.46507e-05 0)
(-0.00271046 -1.63094e-05 0)
(-0.0026511 -1.79188e-05 0)
(-0.00258635 -1.94737e-05 0)
(-0.00251642 -2.09672e-05 0)
(-0.00244155 -2.23903e-05 0)
(-0.00236199 -2.37346e-05 0)
(-0.00227804 -2.49933e-05 0)
(-0.00218999 -2.61594e-05 0)
(-0.00209818 -2.72245e-05 0)
(-0.00200297 -2.81809e-05 0)
(-0.00190474 -2.90222e-05 0)
(-0.00180389 -2.97434e-05 0)
(-0.00170084 -3.03388e-05 0)
(-0.00159602 -3.08008e-05 0)
(-0.00148993 -3.11212e-05 0)
(-0.00138304 -3.12926e-05 0)
(-0.00127588 -3.13085e-05 0)
(-0.00116897 -3.1163e-05 0)
(-0.00106285 -3.08514e-05 0)
(-0.000958079 -3.03699e-05 0)
(-0.000855233 -2.97144e-05 0)
(-0.000754896 -2.8879e-05 0)
(-0.000657669 -2.78575e-05 0)
(-0.000564163 -2.66449e-05 0)
(-0.000474995 -2.52387e-05 0)
(-0.000390781 -2.36395e-05 0)
(-0.000312135 -2.18497e-05 0)
(-0.000239658 -1.98708e-05 0)
(-0.000173936 -1.77016e-05 0)
(-0.000115537 -1.53423e-05 0)
(-6.49919e-05 -1.28021e-05 0)
(-2.27797e-05 -1.01009e-05 0)
(1.06999e-05 -7.26599e-06 0)
(3.51574e-05 -4.33366e-06 0)
(5.04681e-05 -1.35959e-06 0)
(5.67533e-05 1.5646e-06 0)
(5.4508e-05 4.27489e-06 0)
(4.47912e-05 6.47342e-06 0)
(2.96343e-05 7.6208e-06 0)
(1.32312e-05 6.75566e-06 0)
(2.74954e-06 2.73952e-06 0)
(9.65829e-06 -1.42355e-05 0)
(3.05567e-05 -2.403e-05 0)
(5.48553e-05 -2.58314e-05 0)
(7.24184e-05 -1.80346e-05 0)
(7.55302e-05 -5.2081e-06 0)
(5.94235e-05 1.03854e-05 0)
(2.15688e-05 2.73562e-05 0)
(-3.93386e-05 4.47642e-05 0)
(-0.000123789 6.20752e-05 0)
(-0.000231486 7.88684e-05 0)
(-0.00036176 9.495e-05 0)
(-0.000513654 0.000110128 0)
(-0.000685919 0.000124319 0)
(-0.000877216 0.000137463 0)
(-0.00108609 0.000149516 0)
(-0.00131098 0.000160438 0)
(-0.00155033 0.000170222 0)
(-0.00180255 0.000178839 0)
(-0.002066 0.000186305 0)
(-0.00233911 0.000192632 0)
(-0.00262027 0.000197812 0)
(-0.00290791 0.000201883 0)
(-0.0032005 0.000204876 0)
(-0.00349649 0.000206795 0)
(-0.00379441 0.000207666 0)
(-0.0040929 0.000207543 0)
(-0.00439055 0.000206476 0)
(-0.00468599 0.000204503 0)
(-0.00497798 0.000201645 0)
(-0.00526534 0.00019794 0)
(-0.00554686 0.000193441 0)
(-0.00582139 0.000188192 0)
(-0.00608793 0.00018223 0)
(-0.00634549 0.0001756 0)
(-0.00659312 0.000168347 0)
(-0.00682988 0.000160506 0)
(-0.00705497 0.000152113 0)
(-0.00726763 0.000143209 0)
(-0.00746711 0.000133827 0)
(-0.00765273 0.000123994 0)
(-0.00782385 0.000113738 0)
(-0.00797992 0.000103103 0)
(-0.00812039 9.21333e-05 0)
(-0.00824478 8.08638e-05 0)
(-0.00835268 6.93195e-05 0)
(-0.00844372 5.753e-05 0)
(-0.00851761 4.55361e-05 0)
(-0.00857405 3.33791e-05 0)
(-0.00861281 2.10914e-05 0)
(-0.00863373 8.70025e-06 0)
(-0.00863671 -3.76311e-06 0)
(-0.00862172 -1.62577e-05 0)
(-0.00858874 -2.8738e-05 0)
(-0.00853783 -4.11626e-05 0)
(-0.00846909 -5.34951e-05 0)
(-0.0083827 -6.56987e-05 0)
(-0.00827891 -7.77298e-05 0)
(-0.00815802 -8.95381e-05 0)
(-0.0080204 -0.000101073 0)
(-0.00786646 -0.000112291 0)
(-0.00769669 -0.000123152 0)
(-0.00751163 -0.000133616 0)
(-0.00731192 -0.000143638 0)
(-0.00709824 -0.000153171 0)
(-0.00687135 -0.000162161 0)
(-0.00663205 -0.000170559 0)
(-0.00638123 -0.000178317 0)
(-0.00611983 -0.000185392 0)
(-0.00584887 -0.000191739 0)
(-0.00556944 -0.000197315 0)
(-0.00528266 -0.000202076 0)
(-0.00498975 -0.000205977 0)
(-0.00469197 -0.000208968 0)
(-0.00439063 -0.000211005 0)
(-0.00408713 -0.000212048 0)
(-0.00378288 -0.000212064 0)
(-0.00347937 -0.000211022 0)
(-0.00317812 -0.000208893 0)
(-0.00288068 -0.000205646 0)
(-0.00258866 -0.000201254 0)
(-0.00230367 -0.000195694 0)
(-0.00202737 -0.000188943 0)
(-0.00176141 -0.000180987 0)
(-0.00150745 -0.000171819 0)
(-0.00126716 -0.000161448 0)
(-0.00104218 -0.000149889 0)
(-0.00083408 -0.000137173 0)
(-0.000644406 -0.000123338 0)
(-0.000474592 -0.000108444 0)
(-0.000325942 -9.25799e-05 0)
(-0.000199578 -7.58827e-05 0)
(-9.63669e-05 -5.85521e-05 0)
(-1.68284e-05 -4.08727e-05 0)
(3.90003e-05 -2.32549e-05 0)
(7.1762e-05 -6.30679e-06 0)
(8.30554e-05 9.05178e-06 0)
(7.57463e-05 2.14055e-05 0)
(5.44969e-05 2.8576e-05 0)
(2.73643e-05 2.72358e-05 0)
(6.82813e-06 1.32395e-05 0)
(8.87821e-06 -3.11825e-05 0)
(3.01177e-05 -5.19077e-05 0)
(5.20955e-05 -4.68221e-05 0)
(5.9616e-05 -2.39692e-05 0)
(4.3924e-05 1.04331e-05 0)
(-7.23454e-07 5.18601e-05 0)
(-7.80003e-05 9.71597e-05 0)
(-0.000189958 0.000144098 0)
(-0.000337388 0.000191118 0)
(-0.000520185 0.000237205 0)
(-0.000737482 0.00028154 0)
(-0.00098793 0.000323651 0)
(-0.00126982 0.000363163 0)
(-0.00158115 0.000399829 0)
(-0.00191971 0.000433503 0)
(-0.00228318 0.000464056 0)
(-0.00266916 0.00049143 0)
(-0.00307517 0.000515609 0)
(-0.00349869 0.000536549 0)
(-0.00393726 0.00055427 0)
(-0.00438842 0.000568832 0)
(-0.00484967 0.000580265 0)
(-0.00531859 0.000588631 0)
(-0.00579289 0.000594018 0)
(-0.00627021 0.000596501 0)
(-0.0067483 0.00059617 0)
(-0.00722502 0.000593143 0)
(-0.00769828 0.000587515 0)
(-0.00816605 0.00057938 0)
(-0.00862637 0.000568854 0)
(-0.0090774 0.000556058 0)
(-0.00951735 0.000541096 0)
(-0.00994454 0.000524072 0)
(-0.0103574 0.000505107 0)
(-0.0107543 0.000484321 0)
(-0.0111339 0.00046182 0)
(-0.0114948 0.000437705 0)
(-0.0118358 0.000412081 0)
(-0.0121556 0.00038505 0)
(-0.0124532 0.000356706 0)
(-0.0127275 0.000327152 0)
(-0.0129776 0.000296498 0)
(-0.0132026 0.000264852 0)
(-0.0134018 0.000232315 0)
(-0.0135746 0.000198983 0)
(-0.0137202 0.000164956 0)
(-0.0138382 0.000130341 0)
(-0.0139282 9.5247e-05 0)
(-0.0139897 5.97755e-05 0)
(-0.0140227 2.40267e-05 0)
(-0.0140268 -1.18932e-05 0)
(-0.0140021 -4.78707e-05 0)
(-0.0139485 -8.37889e-05 0)
(-0.0138661 -0.000119533 0)
(-0.0137552 -0.000154989 0)
(-0.013616 -0.000190039 0)
(-0.013449 -0.00022456 0)
(-0.0132546 -0.000258419 0)
(-0.0130335 -0.000291487 0)
(-0.0127863 -0.000323635 0)
(-0.0125138 -0.000354742 0)
(-0.0122169 -0.000384683 0)
(-0.0118966 -0.000413329 0)
(-0.011554 -0.000440545 0)
(-0.0111904 -0.000466195 0)
(-0.0108071 -0.000490142 0)
(-0.0104054 -0.000512254 0)
(-0.00998685 -0.000532402 0)
(-0.00955312 -0.00055046 0)
(-0.00910592 -0.000566302 0)
(-0.00864706 -0.000579805 0)
(-0.00817848 -0.000590842 0)
(-0.00770216 -0.000599288 0)
(-0.00722022 -0.000605026 0)
(-0.00673483 -0.000607947 0)
(-0.00624824 -0.000607957 0)
(-0.00576279 -0.000604968 0)
(-0.00528087 -0.000598898 0)
(-0.00480495 -0.000589671 0)
(-0.00433753 -0.000577221 0)
(-0.00388114 -0.000561493 0)
(-0.00343835 -0.000542447 0)
(-0.00301172 -0.00052006 0)
(-0.00260384 -0.000494335 0)
(-0.00221723 -0.000465304 0)
(-0.00185438 -0.000433033 0)
(-0.00151769 -0.000397627 0)
(-0.00120945 -0.000359238 0)
(-0.000931769 -0.000318082 0)
(-0.000686519 -0.000274465 0)
(-0.000475267 -0.000228813 0)
(-0.000299159 -0.00018172 0)
(-0.00015879 -0.000134015 0)
(-5.40213e-05 -8.68489e-05 0)
(1.62695e-05 -4.18389e-05 0)
(5.4496e-05 -1.27417e-06 0)
(6.46865e-05 3.16004e-05 0)
(5.29316e-05 5.22642e-05 0)
(2.90143e-05 5.44867e-05 0)
(7.77938e-06 2.9787e-05 0)
(7.42634e-06 -4.81506e-05 0)
(2.23205e-05 -7.30971e-05 0)
(3.05896e-05 -5.55369e-05 0)
(1.6729e-05 -9.67069e-06 0)
(-2.86747e-05 5.5287e-05 0)
(-0.000111896 0.000132481 0)
(-0.000237061 0.000216728 0)
(-0.000406675 0.00030428 0)
(-0.000621809 0.000392349 0)
(-0.000882377 0.000478964 0)
(-0.00118747 0.000562662 0)
(-0.00153546 0.000642404 0)
(-0.00192426 0.000717426 0)
(-0.00235137 0.000787194 0)
(-0.00281405 0.000851356 0)
(-0.0033093 0.000909661 0)
(-0.00383401 0.000961929 0)
(-0.00438502 0.0010081 0)
(-0.0049591 0.00104814 0)
(-0.00555291 0.00108206 0)
(-0.00616323 0.0011099 0)
(-0.00678685 0.00113177 0)
(-0.00742059 0.00114777 0)
(-0.00806129 0.00115804 0)
(-0.0087059 0.00116275 0)
(-0.00935149 0.00116206 0)
(-0.00999513 0.00115613 0)
(-0.010634 0.00114517 0)
(-0.0112654 0.00112938 0)
(-0.0118868 0.00110896 0)
(-0.0124957 0.0010841 0)
(-0.0130896 0.00105503 0)
(-0.0136663 0.00102195 0)
(-0.0142236 0.000985061 0)
(-0.0147595 0.000944587 0)
(-0.0152719 0.000900741 0)
(-0.0157592 0.000853727 0)
(-0.0162195 0.000803741 0)
(-0.0166512 0.00075098 0)
(-0.0170529 0.000695645 0)
(-0.0174231 0.000637945 0)
(-0.0177606 0.000578085 0)
(-0.0180643 0.000516268 0)
(-0.0183331 0.000452691 0)
(-0.018566 0.000387559 0)
(-0.0187623 0.000321079 0)
(-0.0189213 0.000253455 0)
(-0.0190424 0.000184893 0)
(-0.0191251 0.000115599 0)
(-0.0191691 4.5782e-05 0)
(-0.0191742 -2.43398e-05 0)
(-0.0191403 -9.45459e-05 0)
(-0.0190675 -0.000164614 0)
(-0.0189558 -0.000234322 0)
(-0.0188056 -0.00030344 0)
(-0.0186172 -0.000371735 0)
(-0.0183913 -0.000438963 0)
(-0.0181286 -0.000504881 0)
(-0.0178297 -0.000569242 0)
(-0.0174957 -0.000631801 0)
(-0.0171276 -0.000692313 0)
(-0.0167267 -0.000750528 0)
(-0.0162943 -0.000806193 0)
(-0.0158319 -0.000859054 0)
(-0.0153412 -0.000908852 0)
(-0.0148239 -0.00095533 0)
(-0.014282 -0.000998235 0)
(-0.0137174 -0.00103731 0)
(-0.0131324 -0.00107232 0)
(-0.0125292 -0.00110302 0)
(-0.0119104 -0.00112917 0)
(-0.0112785 -0.00115053 0)
(-0.0106362 -0.00116688 0)
(-0.00998624 -0.001178 0)
(-0.00933159 -0.00118368 0)
(-0.00867524 -0.00118375 0)
(-0.0080203 -0.00117803 0)
(-0.00736995 -0.00116638 0)
(-0.00672745 -0.00114866 0)
(-0.0060961 -0.00112475 0)
(-0.00547925 -0.00109458 0)
(-0.00488028 -0.00105807 0)
(-0.00430255 -0.00101523 0)
(-0.00374941 -0.000966071 0)
(-0.00322414 -0.000910689 0)
(-0.00272995 -0.000849231 0)
(-0.00226992 -0.00078193 0)
(-0.00184695 -0.000709124 0)
(-0.00146366 -0.000631278 0)
(-0.00112237 -0.000549028 0)
(-0.000824979 -0.000463234 0)
(-0.000572817 -0.00037506 0)
(-0.000366521 -0.000286075 0)
(-0.000205819 -0.000198401 0)
(-8.92836e-05 -0.00011491 0)
(-1.40379e-05 -3.94991e-05 0)
(2.45398e-05 2.25547e-05 0)
(3.32063e-05 6.42368e-05 0)
(2.224e-05 7.62434e-05 0)
(6.71802e-06 4.52776e-05 0)
(5.03654e-06 -5.80754e-05 0)
(9.54319e-06 -7.96052e-05 0)
(-2.95932e-06 -4.18048e-05 0)
(-4.63176e-05 3.50797e-05 0)
(-0.000129535 0.000138814 0)
(-0.000258873 0.000260244 0)
(-0.000438643 0.000392232 0)
(-0.000671413 0.000529324 0)
(-0.000958286 0.000667508 0)
(-0.00129919 0.0008037 0)
(-0.00169308 0.000935644 0)
(-0.00213815 0.00106163 0)
(-0.00263202 0.00118042 0)
(-0.00317178 0.00129112 0)
(-0.00375418 0.00139305 0)
(-0.00437579 0.00148579 0)
(-0.00503289 0.00156903 0)
(-0.00572165 0.00164259 0)
(-0.00643821 0.00170641 0)
(-0.00717866 0.0017605 0)
(-0.00793904 0.00180491 0)
(-0.00871542 0.00183977 0)
(-0.00950394 0.00186526 0)
(-0.0103008 0.00188156 0)
(-0.0111023 0.00188891 0)
(-0.0119047 0.00188758 0)
(-0.0127046 0.00187785 0)
(-0.0134985 0.00186001 0)
(-0.0142829 0.00183434 0)
(-0.0150549 0.00180118 0)
(-0.0158112 0.00176086 0)
(-0.0165488 0.0017137 0)
(-0.0172651 0.00166001 0)
(-0.0179573 0.00160015 0)
(-0.0186229 0.00153445 0)
(-0.0192593 0.00146324 0)
(-0.0198644 0.00138686 0)
(-0.0204361 0.00130563 0)
(-0.0209722 0.00121987 0)
(-0.0214709 0.00112993 0)
(-0.0219306 0.00103613 0)
(-0.0223497 0.000938804 0)
(-0.0227266 0.000838275 0)
(-0.0230602 0.000734885 0)
(-0.0233493 0.000628968 0)
(-0.0235928 0.000520859 0)
(-0.02379 0.000410891 0)
(-0.02394 0.000299402 0)
(-0.0240424 0.000186736 0)
(-0.0240967 7.32437e-05 0)
(-0.0241027 -4.07209e-05 0)
(-0.0240603 -0.0001548 0)
(-0.0239694 -0.000268634 0)
(-0.0238304 -0.000381857 0)
(-0.0236435 -0.000494094 0)
(-0.0234093 -0.000604961 0)
(-0.0231285 -0.000714067 0)
(-0.0228019 -0.000821022 0)
(-0.0224306 -0.00092543 0)
(-0.0220156 -0.0010269 0)
(-0.0215585 -0.00112502 0)
(-0.0210606 -0.00121939 0)
(-0.0205236 -0.00130961 0)
(-0.0199495 -0.00139525 0)
(-0.0193403 -0.00147591 0)
(-0.0186981 -0.00155119 0)
(-0.0180254 -0.00162066 0)
(-0.0173246 -0.00168394 0)
(-0.0165985 -0.00174062 0)
(-0.0158499 -0.00179032 0)
(-0.0150818 -0.00183265 0)
(-0.0142974 -0.00186725 0)
(-0.0135 -0.00189376 0)
(-0.0126931 -0.00191184 0)
(-0.0118801 -0.00192118 0)
(-0.0110649 -0.00192148 0)
(-0.0102512 -0.00191249 0)
(-0.00944295 -0.00189396 0)
(-0.00864403 -0.0018657 0)
(-0.0078585 -0.00182755 0)
(-0.00709044 -0.00177939 0)
(-0.00634392 -0.00172115 0)
(-0.00562301 -0.00165286 0)
(-0.00493172 -0.00157457 0)
(-0.004274 -0.00148648 0)
(-0.00365365 -0.00138885 0)
(-0.00307432 -0.00128211 0)
(-0.00253942 -0.00116684 0)
(-0.00205201 -0.00104382 0)
(-0.00161478 -0.000914134 0)
(-0.00122987 -0.000779172 0)
(-0.000898796 -0.000640794 0)
(-0.000622259 -0.00050144 0)
(-0.000399956 -0.00036432 0)
(-0.000230352 -0.000233657 0)
(-0.000110428 -0.000115007 0)
(-3.54088e-05 -1.56571e-05 0)
(1.58423e-06 5.49704e-05 0)
(1.04005e-05 8.46145e-05 0)
(4.62177e-06 5.55637e-05 0)
(2.2274e-06 -6.05014e-05 0)
(-6.05061e-06 -6.72867e-05 0)
(-4.39305e-05 2.3082e-07 0)
(-0.000122325 0.000116833 0)
(-0.000249106 0.000267715 0)
(-0.000430179 0.000441505 0)
(-0.000669637 0.000629218 0)
(-0.000969835 0.00082391 0)
(-0.00133176 0.00102016 0)
(-0.00175521 0.00121379 0)
(-0.00223899 0.00140167 0)
(-0.00278106 0.00158137 0)
(-0.00337871 0.00175105 0)
(-0.00402877 0.00190941 0)
(-0.00472761 0.00205542 0)
(-0.00547125 0.00218839 0)
(-0.00625554 0.00230786 0)
(-0.00707616 0.00241351 0)
(-0.00792865 0.0025052 0)
(-0.00880848 0.0025829 0)
(-0.00971115 0.00264671 0)
(-0.0106321 0.00269675 0)
(-0.011567 0.00273324 0)
(-0.0125112 0.00275646 0)
(-0.0134605 0.00276673 0)
(-0.0144106 0.00276441 0)
(-0.0153574 0.00274987 0)
(-0.0162969 0.00272354 0)
(-0.0172251 0.00268584 0)
(-0.0181383 0.00263723 0)
(-0.019033 0.00257814 0)
(-0.0199055 0.00250906 0)
(-0.0207526 0.00243046 0)
(-0.0215712 0.00234282 0)
(-0.0223582 0.00224662 0)
(-0.0231108 0.00214235 0)
(-0.0238262 0.00203048 0)
(-0.0245021 0.00191149 0)
(-0.0251359 0.00178588 0)
(-0.0257255 0.00165413 0)
(-0.0262689 0.00151671 0)
(-0.0267642 0.00137412 0)
(-0.0272097 0.00122683 0)
(-0.0276039 0.00107536 0)
(-0.0279454 0.000920174 0)
(-0.0282331 0.000761778 0)
(-0.028466 0.000600666 0)
(-0.0286431 0.00043734 0)
(-0.0287639 0.000272308 0)
(-0.0288278 0.000106085 0)
(-0.0288346 -6.08118e-05 0)
(-0.0287841 -0.000227857 0)
(-0.0286765 -0.000394517 0)
(-0.0285118 -0.000560253 0)
(-0.0282907 -0.000724515 0)
(-0.0280136 -0.000886744 0)
(-0.0276814 -0.00104637 0)
(-0.0272952 -0.00120283 0)
(-0.0268561 -0.00135554 0)
(-0.0263655 -0.00150393 0)
(-0.025825 -0.0016474 0)
(-0.0252364 -0.00178537 0)
(-0.0246017 -0.00191723 0)
(-0.0239231 -0.0020424 0)
(-0.023203 -0.00216028 0)
(-0.022444 -0.00227027 0)
(-0.0216488 -0.00237179 0)
(-0.0208205 -0.00246426 0)
(-0.0199622 -0.00254711 0)
(-0.0190773 -0.00261976 0)
(-0.0181693 -0.00268169 0)
(-0.0172419 -0.00273235 0)
(-0.016299 -0.00277124 0)
(-0.0153447 -0.00279789 0)
(-0.014383 -0.00281184 0)
(-0.0134184 -0.00281269 0)
(-0.0124552 -0.00280007 0)
(-0.0114979 -0.00277364 0)
(-0.0105512 -0.00273316 0)
(-0.00961979 -0.00267839 0)
(-0.00870828 -0.00260921 0)
(-0.00782141 -0.00252556 0)
(-0.00696387 -0.00242749 0)
(-0.00614026 -0.00231514 0)
(-0.00535508 -0.0021888 0)
(-0.00461268 -0.00204895 0)
(-0.00391719 -0.00189621 0)
(-0.00327244 -0.00173149 0)
(-0.00268189 -0.00155598 0)
(-0.00214854 -0.00137122 0)
(-0.0016748 -0.00117924 0)
(-0.00126236 -0.000982684 0)
(-0.000912068 -0.000784917 0)
(-0.000623708 -0.000590296 0)
(-0.000395834 -0.000404412 0)
(-0.000225554 -0.000234442 0)
(-0.000108286 -8.95708e-05 0)
(-3.74531e-05 1.85653e-05 0)
(-4.31915e-06 7.50819e-05 0)
(2.03847e-06 5.86796e-05 0)
(-7.62736e-07 -5.43788e-05 0)
(-2.30963e-05 -3.33495e-05 0)
(-8.91437e-05 7.44481e-05 0)
(-0.000206186 0.00024013 0)
(-0.00038046 0.000446627 0)
(-0.000617272 0.000680737 0)
(-0.000920099 0.000931818 0)
(-0.00129094 0.00119142 0)
(-0.00173054 0.00145287 0)
(-0.00223835 0.00171091 0)
(-0.00281294 0.00196143 0)
(-0.00345205 0.00220131 0)
(-0.0041527 0.0024281 0)
(-0.00491131 0.00263992 0)
(-0.00572394 0.00283543 0)
(-0.00658625 0.00301364 0)
(-0.00749361 0.00317384 0)
(-0.00844124 0.00331558 0)
(-0.00942418 0.00343863 0)
(-0.0104374 0.0035429 0)
(-0.0114759 0.00362845 0)
(-0.0125346 0.00369545 0)
(-0.0136085 0.00374418 0)
(-0.0146926 0.00377496 0)
(-0.0157819 0.00378821 0)
(-0.0168718 0.00378438 0)
(-0.0179575 0.00376398 0)
(-0.0190345 0.00372755 0)
(-0.0200984 0.00367567 0)
(-0.0211448 0.00360891 0)
(-0.0221698 0.0035279 0)
(-0.0231693 0.00343325 0)
(-0.0241396 0.0033256 0)
(-0.0250771 0.0032056 0)
(-0.0259784 0.00307391 0)
(-0.0268401 0.00293116 0)
(-0.0276593 0.00277803 0)
(-0.028433 0.00261516 0)
(-0.0291586 0.00244321 0)
(-0.0298335 0.00226285 0)
(-0.0304555 0.00207474 0)
(-0.0310224 0.00187954 0)
(-0.0315323 0.00167793 0)
(-0.0319834 0.00147058 0)
(-0.0323741 0.00125816 0)
(-0.0327033 0.00104135 0)
(-0.0329696 0.000820826 0)
(-0.0331722 0.000597293 0)
(-0.0333102 0.000371442 0)
(-0.0333832 0.000143979 0)
(-0.0333908 -8.43862e-05 0)
(-0.0333328 -0.000312933 0)
(-0.0332094 -0.000540928 0)
(-0.0330208 -0.000767629 0)
(-0.0327675 -0.000992284 0)
(-0.0324502 -0.00121413 0)
(-0.0320699 -0.0014324 0)
(-0.0316277 -0.00164632 0)
(-0.031125 -0.00185509 0)
(-0.0305635 -0.00205793 0)
(-0.0299448 -0.00225403 0)
(-0.0292711 -0.00244259 0)
(-0.0285446 -0.0026228 0)
(-0.0277679 -0.00279385 0)
(-0.0269437 -0.00295494 0)
(-0.0260749 -0.00310526 0)
(-0.0251647 -0.00324401 0)
(-0.0242165 -0.00337042 0)
(-0.0232339 -0.0034837 0)
(-0.0222207 -0.00358311 0)
(-0.021181 -0.0036679 0)
(-0.0201189 -0.00373738 0)
(-0.0190388 -0.00379086 0)
(-0.0179453 -0.00382771 0)
(-0.0168431 -0.00384734 0)
(-0.0157371 -0.0038492 0)
(-0.0146322 -0.00383282 0)
(-0.0135337 -0.00379777 0)
(-0.0124465 -0.00374371 0)
(-0.0113761 -0.00367039 0)
(-0.0103276 -0.00357765 0)
(-0.00930638 -0.00346547 0)
(-0.00831759 -0.00333392 0)
(-0.00736638 -0.00318328 0)
(-0.00645776 -0.00301397 0)
(-0.00559654 -0.00282666 0)
(-0.00478729 -0.00262228 0)
(-0.00403424 -0.00240208 0)
(-0.0033412 -0.00216768 0)
(-0.00271147 -0.0019212 0)
(-0.00214774 -0.00166533 0)
(-0.00165195 -0.0014035 0)
(-0.00122514 -0.00114008 0)
(-0.000867329 -0.000880539 0)
(-0.000577343 -0.000631802 0)
(-0.000352641 -0.000402565 0)
(-0.000189109 -0.000203743 0)
(-8.07948e-05 -4.89032e-05 0)
(-2.05393e-05 4.48856e-05 0)
(-7.34385e-07 5.36331e-05 0)
(-3.79809e-06 -3.92214e-05 0)
(-4.07876e-05 2.37689e-05 0)
(-0.000136503 0.000183275 0)
(-0.000294353 0.000407891 0)
(-0.000518679 0.000678737 0)
(-0.000813841 0.000981107 0)
(-0.00118266 0.00130292 0)
(-0.00162652 0.00163435 0)
(-0.00214564 0.00196754 0)
(-0.00273921 0.00229623 0)
(-0.00340541 0.0026154 0)
(-0.00414164 0.00292112 0)
(-0.00494463 0.00321035 0)
(-0.00581051 0.0034807 0)
(-0.00673494 0.00373038 0)
(-0.0077132 0.00395808 0)
(-0.00874029 0.00416286 0)
(-0.009811 0.0043441 0)
(-0.0109199 0.00450143 0)
(-0.0120616 0.00463469 0)
(-0.0132306 0.00474393 0)
(-0.0144212 0.00482932 0)
(-0.015628 0.00489117 0)
(-0.0168455 0.0049299 0)
(-0.0180683 0.00494598 0)
(-0.0192911 0.00494001 0)
(-0.0205088 0.00491259 0)
(-0.0217163 0.00486441 0)
(-0.0229088 0.00479619 0)
(-0.0240815 0.00470867 0)
(-0.0252299 0.00460265 0)
(-0.0263496 0.00447891 0)
(-0.0274363 0.00433826 0)
(-0.0284862 0.00418154 0)
(-0.0294953 0.00400959 0)
(-0.0304601 0.00382326 0)
(-0.0313772 0.00362338 0)
(-0.0322433 0.00341081 0)
(-0.0330555 0.00318641 0)
(-0.0338109 0.00295105 0)
(-0.0345069 0.00270558 0)
(-0.0351413 0.00245088 0)
(-0.0357119 0.00218781 0)
(-0.0362166 0.00191727 0)
(-0.0366538 0.00164011 0)
(-0.037022 0.00135724 0)
(-0.0373199 0.00106956 0)
(-0.0375465 0.000777951 0)
(-0.0377009 0.000483343 0)
(-0.0377824 0.000186651 0)
(-0.0377908 -0.000111197 0)
(-0.0377258 -0.000409256 0)
(-0.0375876 -0.000706571 0)
(-0.0373765 -0.00100217 0)
(-0.037093 -0.00129509 0)
(-0.0367379 -0.00158431 0)
(-0.0363123 -0.00186885 0)
(-0.0358175 -0.0021477 0)
(-0.035255 -0.00241983 0)
(-0.0346266 -0.00268421 0)
(-0.0339344 -0.00293979 0)
(-0.0331805 -0.00318554 0)
(-0.0323676 -0.0034204 0)
(-0.0314984 -0.00364334 0)
(-0.030576 -0.00385331 0)
(-0.0296036 -0.00404927 0)
(-0.0285849 -0.0042302 0)
(-0.0275235 -0.00439507 0)
(-0.0264234 -0.0045429 0)
(-0.025289 -0.00467271 0)
(-0.0241246 -0.00478356 0)
(-0.0229349 -0.00487456 0)
(-0.0217247 -0.00494484 0)
(-0.0204992 -0.00499358 0)
(-0.0192635 -0.00502005 0)
(-0.018023 -0.00502356 0)
(-0.0167832 -0.0050035 0)
(-0.0155497 -0.00495937 0)
(-0.0143283 -0.00489074 0)
(-0.0131246 -0.00479733 0)
(-0.0119446 -0.00467896 0)
(-0.0107939 -0.00453564 0)
(-0.00967819 -0.00436752 0)
(-0.0086032 -0.00417499 0)
(-0.00757433 -0.00395867 0)
(-0.00659684 -0.00371944 0)
(-0.00567569 -0.00345854 0)
(-0.00481548 -0.00317762 0)
(-0.00402038 -0.00287877 0)
(-0.003294 -0.00256469 0)
(-0.00263934 -0.00223879 0)
(-0.00205863 -0.0019053 0)
(-0.00155324 -0.00156954 0)
(-0.00112351 -0.00123809 0)
(-0.000768699 -0.000919101 0)
(-0.000486799 -0.000622663 0)
(-0.000274382 -0.000361201 0)
(-0.00012635 -0.000149902 0)
(-3.74018e-05 -7.55219e-06 0)
(-3.53822e-06 3.99702e-05 0)
(-6.78669e-06 -1.48771e-05 0)
(-5.85724e-05 0.000104709 0)
(-0.000184655 0.00032803 0)
(-0.000384431 0.000621841 0)
(-0.000660258 0.000966068 0)
(-0.00101544 0.00134472 0)
(-0.00145191 0.00174449 0)
(-0.00197034 0.00215442 0)
(-0.00257036 0.00256557 0)
(-0.00325064 0.00297067 0)
(-0.00400899 0.0033639 0)
(-0.00484242 0.00374057 0)
(-0.0057473 0.00409698 0)
(-0.0067194 0.00443025 0)
(-0.00775402 0.00473816 0)
(-0.00884611 0.00501904 0)
(-0.00999027 0.00527168 0)
(-0.0111809 0.00549526 0)
(-0.0124122 0.0056893 0)
(-0.0136782 0.00585356 0)
(-0.0149731 0.00598803 0)
(-0.0162908 0.00609289 0)
(-0.0176254 0.00616848 0)
(-0.0189709 0.00621527 0)
(-0.0203215 0.00623387 0)
(-0.0216715 0.00622494 0)
(-0.0230153 0.00618924 0)
(-0.0243474 0.00612759 0)
(-0.0256625 0.00604088 0)
(-0.0269554 0.00593001 0)
(-0.0282212 0.00579596 0)
(-0.029455 0.0056397 0)
(-0.0306524 0.00546224 0)
(-0.031809 0.00526462 0)
(-0.0329205 0.00504787 0)
(-0.0339831 0.00481304 0)
(-0.0349929 0.0045612 0)
(-0.0359466 0.00429342 0)
(-0.0368408 0.00401077 0)
(-0.0376724 0.00371434 0)
(-0.0384386 0.00340521 0)
(-0.0391369 0.00308447 0)
(-0.0397649 0.00275322 0)
(-0.0403204 0.00241256 0)
(-0.0408016 0.0020636 0)
(-0.0412068 0.00170747 0)
(-0.0415347 0.00134529 0)
(-0.041784 0.000978201 0)
(-0.0419538 0.00060735 0)
(-0.0420435 0.000233897 0)
(-0.0420527 -0.000140987 0)
(-0.0419813 -0.000516112 0)
(-0.0418292 -0.000890277 0)
(-0.0415969 -0.00126227 0)
(-0.0412849 -0.00163085 0)
(-0.0408942 -0.00199477 0)
(-0.0404259 -0.00235279 0)
(-0.0398815 -0.00270363 0)
(-0.0392625 -0.00304601 0)
(-0.038571 -0.00337863 0)
(-0.0378092 -0.00370019 0)
(-0.0369795 -0.00400938 0)
(-0.0360848 -0.0043049 0)
(-0.0351281 -0.00458544 0)
(-0.0341128 -0.00484969 0)
(-0.0330423 -0.00509637 0)
(-0.0319207 -0.00532419 0)
(-0.0307519 -0.00553189 0)
(-0.0295403 -0.00571822 0)
(-0.0282906 -0.005882 0)
(-0.0270077 -0.00602205 0)
(-0.0256965 -0.00613726 0)
(-0.0243624 -0.00622656 0)
(-0.0230109 -0.00628897 0)
(-0.0216476 -0.00632357 0)
(-0.0202784 -0.00632952 0)
(-0.0189093 -0.0063061 0)
(-0.0175463 -0.00625269 0)
(-0.0161957 -0.00616881 0)
(-0.0148636 -0.00605413 0)
(-0.0135563 -0.00590848 0)
(-0.0122801 -0.00573189 0)
(-0.0110411 -0.00552461 0)
(-0.0098454 -0.00528716 0)
(-0.00869881 -0.00502035 0)
(-0.00760702 -0.00472533 0)
(-0.00657539 -0.00440367 0)
(-0.00560887 -0.00405742 0)
(-0.004712 -0.00368918 0)
(-0.00388875 -0.00330224 0)
(-0.00314245 -0.0029007 0)
(-0.00247569 -0.0024896 0)
(-0.00189023 -0.00207519 0)
(-0.00138688 -0.00166506 0)
(-0.000965427 -0.00126852 0)
(-0.000624568 -0.000896852 0)
(-0.000361703 -0.00056378 0)
(-0.000172743 -0.000285795 0)
(-5.43797e-05 -8.29713e-05 0)
(-6.29049e-06 1.75742e-05 0)
(-9.67843e-06 1.85297e-05 0)
(-7.61629e-05 0.000209651 0)
(-0.000232679 0.000509185 0)
(-0.000474818 0.000882872 0)
(-0.000802815 0.00130971 0)
(-0.0012189 0.0017728 0)
(-0.001724 0.0022578 0)
(-0.00231794 0.00275278 0)
(-0.00299967 0.00324785 0)
(-0.00376731 0.00373487 0)
(-0.00461815 0.0042072 0)
(-0.00554877 0.00465945 0)
(-0.00655513 0.00508733 0)
(-0.00763263 0.00548744 0)
(-0.0087762 0.00585712 0)
(-0.00998041 0.00619435 0)
(-0.0112395 0.00649766 0)
(-0.0125474 0.00676602 0)
(-0.0138981 0.00699879 0)
(-0.0152852 0.00719564 0)
(-0.0167023 0.00735652 0)
(-0.0181431 0.00748161 0)
(-0.0196012 0.00757128 0)
(-0.0210702 0.00762607 0)
(-0.022544 0.00764665 0)
(-0.0240163 0.00763381 0)
(-0.0254811 0.00758846 0)
(-0.0269327 0.00751157 0)
(-0.0283652 0.00740417 0)
(-0.0297731 0.00726736 0)
(-0.0311511 0.00710231 0)
(-0.0324941 0.00691018 0)
(-0.0337971 0.00669221 0)
(-0.0350554 0.00644962 0)
(-0.0362646 0.00618369 0)
(-0.0374203 0.00589568 0)
(-0.0385185 0.0055869 0)
(-0.0395555 0.00525863 0)
(-0.0405278 0.0049122 0)
(-0.0414319 0.00454893 0)
(-0.0422649 0.00417013 0)
(-0.043024 0.00377714 0)
(-0.0437066 0.00337131 0)
(-0.0443105 0.00295398 0)
(-0.0448335 0.00252652 0)
(-0.045274 0.0020903 0)
(-0.0456303 0.0016467 0)
(-0.0459013 0.0011971 0)
(-0.046086 0.000742926 0)
(-0.0461836 0.000285583 0)
(-0.0461937 -0.000173487 0)
(-0.0461162 -0.00063283 0)
(-0.0459511 -0.00109098 0)
(-0.0456988 -0.00154644 0)
(-0.04536 -0.00199772 0)
(-0.0449356 -0.00244329 0)
(-0.0444269 -0.00288161 0)
(-0.0438354 -0.00331115 0)
(-0.043163 -0.00373033 0)
(-0.0424116 -0.00413756 0)
(-0.0415838 -0.00453128 0)
(-0.0406822 -0.00490989 0)
(-0.0397098 -0.00527179 0)
(-0.03867 -0.00561539 0)
(-0.0375662 -0.00593912 0)
(-0.0364024 -0.0062414 0)
(-0.0351827 -0.00652068 0)
(-0.0339116 -0.00677542 0)
(-0.0325936 -0.00700414 0)
(-0.0312339 -0.00720537 0)
(-0.0298376 -0.00737772 0)
(-0.0284102 -0.00751984 0)
(-0.0269573 -0.00763046 0)
(-0.025485 -0.00770838 0)
(-0.0239991 -0.00775252 0)
(-0.0225061 -0.00776188 0)
(-0.0210123 -0.00773562 0)
(-0.0195243 -0.007673 0)
(-0.0180486 -0.00757348 0)
(-0.016592 -0.00743669 0)
(-0.0151611 -0.00726246 0)
(-0.0137626 -0.00705087 0)
(-0.0124031 -0.00680227 0)
(-0.011089 -0.00651732 0)
(-0.00982668 -0.00619705 0)
(-0.00862211 -0.00584287 0)
(-0.00748106 -0.0054567 0)
(-0.00640889 -0.00504101 0)
(-0.00541047 -0.0045989 0)
(-0.00449016 -0.00413425 0)
(-0.0036517 -0.00365184 0)
(-0.00289811 -0.0031575 0)
(-0.00223161 -0.00265832 0)
(-0.00165355 -0.00216286 0)
(-0.00116437 -0.00168141 0)
(-0.000763562 -0.00122635 0)
(-0.000449468 -0.000812429 0)
(-0.000219093 -0.000457173 0)
(-7.11596e-05 -0.000181563 0)
(-8.94782e-06 -1.34742e-05 0)
(-1.2454e-05 6.08216e-05 0)
(-9.33419e-05 0.000338403 0)
(-0.000280059 0.000726729 0)
(-0.000564471 0.00119118 0)
(-0.000944773 0.00171011 0)
(-0.00142204 0.00226593 0)
(-0.00199619 0.00284352 0)
(-0.00266611 0.00343009 0)
(-0.00343 0.00401493 0)
(-0.0042853 0.00458915 0)
(-0.00522878 0.00514537 0)
(-0.00625652 0.00567756 0)
(-0.00736402 0.00618085 0)
(-0.00854625 0.00665134 0)
(-0.00979776 0.00708595 0)
(-0.0111127 0.00748233 0)
(-0.012485 0.00783873 0)
(-0.0139083 0.00815391 0)
(-0.015376 0.00842707 0)
(-0.0168813 0.00865779 0)
(-0.0184177 0.00884596 0)
(-0.0199783 0.00899177 0)
(-0.0215564 0.0090956 0)
(-0.0231452 0.00915807 0)
(-0.0247381 0.00917994 0)
(-0.0263287 0.00916211 0)
(-0.0279104 0.00910563 0)
(-0.0294771 0.00901163 0)
(-0.0310226 0.00888131 0)
(-0.0325412 0.00871597 0)
(-0.0340271 0.00851696 0)
(-0.0354748 0.00828568 0)
(-0.0368791 0.00802357 0)
(-0.038235 0.00773208 0)
(-0.0395376 0.00741272 0)
(-0.0407825 0.00706701 0)
(-0.0419654 0.00669647 0)
(-0.0430821 0.00630267 0)
(-0.044129 0.00588716 0)
(-0.0451025 0.00545151 0)
(-0.0459994 0.00499732 0)
(-0.0468166 0.00452617 0)
(-0.0475514 0.00403967 0)
(-0.0482015 0.00353943 0)
(-0.0487645 0.00302709 0)
(-0.0492387 0.00250428 0)
(-0.0496224 0.00197265 0)
(-0.0499142 0.00143388 0)
(-0.0501132 0.000889643 0)
(-0.0502185 0.000341639 0)
(-0.0502297 -0.000208413 0)
(-0.0501465 -0.000758773 0)
(-0.0499692 -0.00130768 0)
(-0.049698 -0.00185336 0)
(-0.0493338 -0.00239402 0)
(-0.0488775 -0.00292784 0)
(-0.0483304 -0.00345299 0)
(-0.0476942 -0.00396762 0)
(-0.0469709 -0.00446985 0)
(-0.0461626 -0.0049578 0)
(-0.0452719 -0.0054296 0)
(-0.0443018 -0.00588333 0)
(-0.0432553 -0.00631712 0)
(-0.0421361 -0.00672906 0)
(-0.0409479 -0.00711727 0)
(-0.0396948 -0.00747989 0)
(-0.0383813 -0.00781506 0)
(-0.0370121 -0.00812098 0)
(-0.0355922 -0.00839588 0)
(-0.0341268 -0.00863803 0)