/*--------------------------------*- C++ -*----------------------------------*\
  =========                 |
  \\      /  F ield         | OpenFOAM: The Open Source CFD Toolbox
   \\    /   O peration     | Website:  https://openfoam.org
    \\  /    A nd           | Version:  11
     \\/     M anipulation  |
\*---------------------------------------------------------------------------*/
FoamFile
{
    format      ascii;
    class       volScalarField;
    location    "1.2";
    object      p;
}
// * * * * * * * * * * * * * * * * * * * * * * * * * * * * * * * * * * * * * //

dimensions      [0 2 -2 0 0 0 0];

internalField   nonuniform List<scalar> 
10100
(
-1.80712e-08
1.21152e-05
-0.00170818
-0.00680451
-0.0138517
-0.0214674
-0.0291232
-0.0365503
-0.0436526
-0.0503408
-0.0565755
-0.0623488
-0.0676281
-0.0724349
-0.0767787
-0.0806239
-0.0839462
-0.0867563
-0.0890511
-0.0908347
-0.0921326
-0.0929429
-0.093293
-0.0932785
-0.0929853
-0.0924634
-0.091741
-0.0908392
-0.0897759
-0.0885719
-0.0872508
-0.0858268
-0.0842865
-0.0825902
-0.0807176
-0.0786827
-0.0765072
-0.0742046
-0.0717785
-0.0692424
-0.0666184
-0.0639113
-0.061114
-0.058229
-0.0552712
-0.0522552
-0.0491903
-0.0460887
-0.0429697
-0.0398526
-0.0367447
-0.0336411
-0.030551
-0.0275077
-0.0245411
-0.0216601
-0.0188583
-0.0161219
-0.0134449
-0.0108308
-0.00827894
-0.00578726
-0.0033753
-0.00107681
0.00109269
0.00314033
0.00507869
0.00692221
0.00868493
0.0103681
0.0119667
0.0134925
0.014968
0.0163923
0.0177396
0.0189951
0.0201699
0.0212751
0.0223015
0.0232316
0.024053
0.0247528
0.0253139
0.0257276
0.026
0.0261363
0.0261272
0.0259626
0.025657
0.0252454
0.0247592
0.0242141
0.0236209
0.0230043
0.0224052
0.021867
0.0214283
0.0211291
0.021022
0.0211692
-0.000203877
-0.00398336
-0.00779181
-0.0132794
-0.0197374
-0.0263546
-0.0328931
-0.0392792
-0.0454101
-0.0512492
-0.0567664
-0.0618943
-0.0666245
-0.0709537
-0.0748725
-0.0783699
-0.0814241
-0.0840037
-0.0861107
-0.0877812
-0.0890227
-0.0898488
-0.090288
-0.0903804
-0.0901907
-0.0897753
-0.0891709
-0.0884054
-0.0874886
-0.0864224
-0.0852226
-0.0839008
-0.0824473
-0.0808391
-0.0790633
-0.0771339
-0.0750673
-0.072867
-0.0705409
-0.0681083
-0.065588
-0.0629832
-0.060291
-0.0575197
-0.0546804
-0.0517827
-0.0488401
-0.0458679
-0.0428876
-0.0399166
-0.0369452
-0.0339617
-0.0309876
-0.0280567
-0.0251895
-0.0223966
-0.0196733
-0.0170023
-0.0143811
-0.0118182
-0.00930428
-0.0068345
-0.004442
-0.00216566
-8.83416e-06
0.00204177
0.00399121
0.00584875
0.0076281
0.00932512
0.010929
0.0124549
0.0139293
0.0153462
0.0166734
0.0179024
0.0190571
0.020152
0.0211694
0.0220854
0.0228919
0.0235856
0.0241549
0.0245912
0.0248974
0.0250748
0.0251104
0.0249943
0.0247445
0.0244022
0.0240016
0.0235548
0.0230667
0.0225599
0.0220787
0.0216699
0.0213654
0.02118
0.0211488
0.0213341
-0.00132444
-0.0073247
-0.0123889
-0.0181221
-0.0242345
-0.030233
-0.0360798
-0.0417168
-0.0471317
-0.0523224
-0.0572358
-0.0618332
-0.0661086
-0.0700257
-0.0735823
-0.0767849
-0.079593
-0.0819804
-0.083945
-0.085487
-0.0866437
-0.087447
-0.0879146
-0.0880749
-0.0879642
-0.0876208
-0.0870939
-0.0864186
-0.0856034
-0.0846467
-0.0835544
-0.0823255
-0.0809438
-0.0794017
-0.0777018
-0.0758532
-0.0738684
-0.0717522
-0.0695133
-0.0671711
-0.0647379
-0.0622154
-0.0596088
-0.0569335
-0.0541968
-0.0513967
-0.04855
-0.0456856
-0.0428228
-0.0399666
-0.037101
-0.0342119
-0.0313264
-0.0284845
-0.0256984
-0.0229706
-0.0203052
-0.0176915
-0.0151192
-0.0125908
-0.0101
-0.00764467
-0.00526194
-0.00299758
-0.000851654
0.00120208
0.00316813
0.00503804
0.00681736
0.00851356
0.010124
0.0116543
0.0131198
0.0145169
0.0158213
0.0170271
0.0181609
0.019243
0.0202562
0.0211662
0.0219573
0.0226341
0.0232012
0.0236543
0.0239865
0.0241905
0.0242569
0.024184
0.0239915
0.0237157
0.0233859
0.0230117
0.0225966
0.0221626
0.0217556
0.021425
0.021197
0.0210708
0.0210698
0.0212328
-0.00520718
-0.0118481
-0.0172493
-0.0227508
-0.02839
-0.0338363
-0.0390956
-0.0441396
-0.0489756
-0.0536042
-0.0579889
-0.0621386
-0.0659922
-0.0695341
-0.0727739
-0.0756786
-0.0782447
-0.0804544
-0.0822828
-0.083723
-0.0847991
-0.085549
-0.0860072
-0.086203
-0.0861516
-0.0858787
-0.0854232
-0.084809
-0.0840533
-0.0831721
-0.0821627
-0.0810085
-0.0796902
-0.0782055
-0.0765684
-0.074784
-0.0728592
-0.0708098
-0.0686498
-0.0663895
-0.0640315
-0.061579
-0.0590493
-0.0564595
-0.0538076
-0.0510894
-0.0483291
-0.045562
-0.0428019
-0.04004
-0.0372562
-0.0344453
-0.0316384
-0.0288693
-0.0261423
-0.0234609
-0.0208378
-0.0182675
-0.0157321
-0.0132231
-0.0107375
-0.00828652
-0.00591123
-0.00364887
-0.00149344
0.000577301
0.00256024
0.00444201
0.00622708
0.007926
0.0095409
0.0110765
0.0125391
0.0139168
0.0151891
0.0163636
0.0174765
0.0185441
0.0195388
0.0204233
0.0211909
0.0218554
0.0224211
0.0228781
0.0232176
0.0234368
0.0235313
0.0234992
0.0233568
0.0231373
0.0228667
0.0225493
0.0221833
0.0217893
0.0214178
0.0211226
0.0209255
0.0208147
0.0207877
0.0208738
-0.0106283
-0.0169872
-0.0221972
-0.0272853
-0.0323798
-0.0372953
-0.0419921
-0.0465012
-0.0508214
-0.0549467
-0.0588985
-0.0626201
-0.0660978
-0.0693242
-0.0722682
-0.0749163
-0.0772503
-0.0792688
-0.0809579
-0.0823073
-0.0833217
-0.0840303
-0.0844688
-0.0846658
-0.0846437
-0.084426
-0.0840306
-0.0834678
-0.082758
-0.0819256
-0.0809657
-0.0798568
-0.0785877
-0.077158
-0.0755752
-0.0738434
-0.0719708
-0.0699817
-0.0678911
-0.0656981
-0.0634048
-0.0610221
-0.058568
-0.0560547
-0.0534746
-0.0508277
-0.0481504
-0.0454777
-0.0428086
-0.0401252
-0.0374128
-0.0346752
-0.0319415
-0.0292323
-0.0265492
-0.023908
-0.0213271
-0.018792
-0.0162775
-0.0137788
-0.0112979
-0.00884852
-0.00647398
-0.00420929
-0.00204138
5.19236e-05
0.00205492
0.00394426
0.00573046
0.00743601
0.0090626
0.0106023
0.0120528
0.0134065
0.0146525
0.0158028
0.0168914
0.0179308
0.0188914
0.019739
0.0204744
0.0211203
0.0216829
0.0221461
0.0224953
0.0227284
0.0228481
0.0228571
0.0227679
0.0226045
0.0223835
0.0221058
0.0217727
0.021408
0.0210614
0.0207808
0.0205792
0.0204471
0.0203566
0.0203245
-0.0163484
-0.0220438
-0.0268253
-0.0314586
-0.0360696
-0.0404404
-0.044661
-0.0486823
-0.0525401
-0.0562562
-0.0598057
-0.0631685
-0.0663306
-0.0692724
-0.0719699
-0.0744057
-0.0765537
-0.0784038
-0.0799534
-0.0812051
-0.0821674
-0.0828526
-0.0832806
-0.0834727
-0.0834593
-0.0832635
-0.0828952
-0.0823691
-0.0817014
-0.0809014
-0.0799646
-0.0788789
-0.0776434
-0.076256
-0.0747122
-0.0730201
-0.0711969
-0.0692628
-0.0672271
-0.0650853
-0.062845
-0.0605283
-0.0581468
-0.0556967
-0.0531731
-0.0505925
-0.0479956
-0.0454048
-0.0428094
-0.040196
-0.0375544
-0.034885
-0.0322134
-0.0295583
-0.0269187
-0.0243148
-0.021773
-0.0192729
-0.0167748
-0.0142751
-0.0117947
-0.0093546
-0.0069843
-0.00470824
-0.00252068
-0.0004115
0.00160087
0.00349722
0.00529251
0.00701111
0.00865094
0.0101948
0.0116341
0.0129654
0.014188
0.0153189
0.016387
0.0173969
0.0183177
0.0191225
0.0198239
0.0204523
0.0210126
0.0214813
0.0218392
0.0220873
0.0222355
0.0222889
0.0222523
0.0221368
0.0219512
0.0216985
0.0213876
0.0210432
0.0207085
0.0204221
0.0201958
0.0200113
0.0198279
0.0196453
-0.0219534
-0.026876
-0.0311768
-0.0353419
-0.0394639
-0.0433915
-0.0471393
-0.0507437
-0.0542068
-0.0575465
-0.0607546
-0.0638168
-0.0667027
-0.0693883
-0.0718653
-0.0741117
-0.0761074
-0.0778208
-0.0792523
-0.0804136
-0.0813171
-0.0819729
-0.0823908
-0.0825837
-0.0825749
-0.0823797
-0.0820118
-0.0815002
-0.0808576
-0.0800735
-0.0791458
-0.0780773
-0.0768658
-0.0755044
-0.0739846
-0.0723196
-0.0705376
-0.068649
-0.0666493
-0.0645443
-0.0623536
-0.0600933
-0.0577654
-0.0553656
-0.0528929
-0.05037
-0.0478418
-0.0453226
-0.0427892
-0.0402335
-0.0376594
-0.0350626
-0.03245
-0.0298393
-0.0272451
-0.0246913
-0.0221915
-0.0197154
-0.0172266
-0.0147317
-0.0122584
-0.00982604
-0.00745572
-0.0051675
-0.0029626
-0.000840764
0.0011783
0.00308204
0.0048916
0.00663142
0.0082921
0.00984598
0.0112801
0.0125974
0.0138064
0.0149251
0.015975
0.0169553
0.0178389
0.0186084
0.0192843
0.0199
0.0204578
0.0209289
0.0212917
0.0215512
0.0217239
0.0218164
0.0218247
0.021745
0.021579
0.0213365
0.0210347
0.0206985
0.0203631
0.0200544
0.0197817
0.0195226
0.0192301
0.0188834
-0.02726
-0.0314868
-0.0352565
-0.038964
-0.042648
-0.0461464
-0.0494988
-0.0527286
-0.0558533
-0.0588665
-0.0617756
-0.0645688
-0.0672124
-0.0696809
-0.0719578
-0.0740261
-0.0758676
-0.077465
-0.0788063
-0.0798944
-0.0807412
-0.0813572
-0.0817527
-0.08194
-0.0819268
-0.0817234
-0.0813522
-0.0808409
-0.0801986
-0.079414
-0.0784895
-0.0774353
-0.0762397
-0.0748883
-0.0733843
-0.0717426
-0.069985
-0.0681219
-0.0661477
-0.0640699
-0.0619187
-0.0597064
-0.0574164
-0.0550463
-0.0526161
-0.0501517
-0.04768
-0.045209
-0.0427269
-0.0402326
-0.0377241
-0.0351886
-0.0326318
-0.0300748
-0.0275346
-0.0250311
-0.0225695
-0.0201157
-0.0176369
-0.0151488
-0.0126857
-0.0102635
-0.00789265
-0.00559043
-0.0033688
-0.00123793
0.000785836
0.00270114
0.00453386
0.00630266
0.00798789
0.00955478
0.0109914
0.0123082
0.0135188
0.0146362
0.0156722
0.0166248
0.0174768
0.0182222
0.0188844
0.0194922
0.0200434
0.0205085
0.0208688
0.0211344
0.0213258
0.0214477
0.0214848
0.0214201
0.0212552
0.021011
0.0207094
0.0203699
0.0200149
0.0196648
0.0193271
0.0189835
0.018576
0.018064
-0.0322379
-0.0358266
-0.0391041
-0.0423816
-0.0456609
-0.0487758
-0.0517775
-0.0546862
-0.0575077
-0.06024
-0.0628887
-0.0654333
-0.0678537
-0.0701326
-0.072233
-0.074135
-0.0758289
-0.0773129
-0.0785712
-0.0795984
-0.0803979
-0.0809759
-0.0813415
-0.0815059
-0.0814715
-0.0812528
-0.0808775
-0.080357
-0.0796965
-0.0789035
-0.0779817
-0.0769317
-0.0757405
-0.074391
-0.0728937
-0.0712709
-0.0695282
-0.067668
-0.0657053
-0.0636579
-0.0615398
-0.0593519
-0.0570845
-0.0547434
-0.0523497
-0.0499261
-0.0474964
-0.0450664
-0.0426282
-0.040187
-0.0377397
-0.0352638
-0.0327605
-0.0302582
-0.0277778
-0.0253273
-0.0228981
-0.0204588
-0.0179906
-0.0155164
-0.0130677
-0.0106527
-0.00827632
-0.00595972
-0.00372602
-0.00159013
0.000440624
0.00237586
0.00424008
0.00604073
0.00774912
0.00932941
0.0107748
0.0121022
0.0133261
0.0144518
0.0154823
0.0164164
0.0172483
0.0179821
0.0186394
0.0192395
0.0197759
0.0202243
0.0205748
0.020843
0.0210481
0.0211874
0.0212346
0.021166
0.020989
0.0207326
0.0204183
0.0200567
0.0196618
0.0192514
0.0188337
0.0183993
0.0178723
0.0171997
-0.0368675
-0.0399156
-0.0427646
-0.0456354
-0.048534
-0.0513324
-0.054019
-0.0566336
-0.0591869
-0.0616801
-0.0640964
-0.0664167
-0.0686323
-0.0707252
-0.0726641
-0.0744188
-0.0759853
-0.0773602
-0.0785349
-0.0794995
-0.0802511
-0.0807952
-0.0811305
-0.0812581
-0.0811911
-0.0809514
-0.080559
-0.0800171
-0.0793317
-0.0785264
-0.0776055
-0.0765481
-0.0753443
-0.0739957
-0.0725058
-0.070885
-0.0691425
-0.0672853
-0.0653311
-0.0633016
-0.0612068
-0.059036
-0.0567805
-0.0544602
-0.0520998
-0.0497083
-0.0473027
-0.0448999
-0.0425027
-0.0401123
-0.0377162
-0.0352896
-0.0328381
-0.0303939
-0.0279724
-0.0255664
-0.0231594
-0.0207308
-0.0182772
-0.0158219
-0.0133863
-0.0109723
-0.00858699
-0.00625823
-0.00401632
-0.00187608
0.00016524
0.00212553
0.00402394
0.00585445
0.00758138
0.00917312
0.0106315
0.0119783
0.0132241
0.0143646
0.0153966
0.0163241
0.0171528
0.0178909
0.0185505
0.0191393
0.019652
0.0200775
0.020417
0.0206872
0.0209002
0.0210448
0.0210878
0.0210045
0.0208074
0.0205273
0.020182
0.0197765
0.0193211
0.0188315
0.0183208
0.0177883
0.0171406
0.0163144
-0.0411631
-0.0437769
-0.0462343
-0.0487308
-0.0513215
-0.0538152
-0.0562298
-0.0585908
-0.060908
-0.0631772
-0.0653852
-0.067515
-0.0695435
-0.0714561
-0.0732387
-0.0748627
-0.0763199
-0.0776001
-0.0786942
-0.0795924
-0.0802929
-0.0807959
-0.0810915
-0.081177
-0.0810768
-0.0808092
-0.0803793
-0.0798037
-0.0790998
-0.0782779
-0.0773394
-0.0762682
-0.075051
-0.0736945
-0.0722059
-0.0705836
-0.0688315
-0.0669723
-0.0650316
-0.063018
-0.06093
-0.0587643
-0.0565222
-0.054224
-0.0518857
-0.04951
-0.047118
-0.0447378
-0.0423756
-0.0400245
-0.0376664
-0.0352811
-0.0328789
-0.0304883
-0.0281145
-0.0257391
-0.0233451
-0.0209259
-0.0184899
-0.0160544
-0.0136271
-0.0112079
-0.00881184
-0.0064744
-0.00422738
-0.00208052
-2.28038e-05
0.00196569
0.00389468
0.00574621
0.0074835
0.00908501
0.0105621
0.0119362
0.0132091
0.0143677
0.0154088
0.0163446
0.0171878
0.0179421
0.0186067
0.0191813
0.0196681
0.0200721
0.0204028
0.0206734
0.0208875
0.0210261
0.0210525
0.0209453
0.0207195
0.0204033
0.0200096
0.0195412
0.019008
0.0184259
0.0178156
0.0171822
0.0164209
0.0154488
-0.0451665
-0.0473884
-0.0495133
-0.0517141
-0.0539946
-0.0562261
-0.058413
-0.0605569
-0.0626627
-0.0647273
-0.0667501
-0.0687099
-0.070572
-0.0723251
-0.0739609
-0.0754665
-0.0768226
-0.0780158
-0.0790339
-0.0798704
-0.0805183
-0.0809658
-0.0812092
-0.0812542
-0.0811168
-0.0808083
-0.0803345
-0.0797207
-0.0789947
-0.0781536
-0.0771837
-0.0760843
-0.0748573
-0.0734968
-0.0719964
-0.0703603
-0.0686026
-0.0667472
-0.0648143
-0.0628048
-0.0607165
-0.0585546
-0.0563258
-0.054044
-0.0517163
-0.0493453
-0.0469612
-0.0445998
-0.0422645
-0.0399391
-0.037606
-0.0352544
-0.0328959
-0.0305485
-0.0282059
-0.0258462
-0.0234584
-0.0210493
-0.0186325
-0.0162135
-0.0137873
-0.0113569
-0.00895051
-0.00660912
-0.00435856
-0.00219896
-0.000115884
0.00190316
0.0038551
0.00571654
0.00745858
0.00907215
0.0105731
0.0119773
0.0132782
0.014459
0.0155191
0.0164775
0.0173477
0.0181247
0.0187949
0.0193551
0.0198186
0.020205
0.020528
0.0207944
0.0209996
0.0211186
0.0211148
0.0209725
0.0207076
0.0203439
0.0198891
0.0193455
0.0187243
0.0180457
0.0173391
0.0166116
0.0157497
0.01464
-0.0488835
-0.050785
-0.052633
-0.0545524
-0.056573
-0.05858
-0.0605625
-0.0625187
-0.0644466
-0.0663401
-0.0681922
-0.0699887
-0.0717063
-0.0733254
-0.0748359
-0.0762299
-0.0774873
-0.0785953
-0.0795393
-0.0803135
-0.0809041
-0.0812896
-0.0814752
-0.0814798
-0.0813005
-0.080938
-0.080421
-0.0797797
-0.0790218
-0.0781416
-0.077137
-0.0760128
-0.0747702
-0.0733962
-0.0718788
-0.0702269
-0.0684636
-0.0666107
-0.0646775
-0.0626609
-0.0605673
-0.0584107
-0.0561941
-0.0539201
-0.051592
-0.0492201
-0.0468432
-0.0444979
-0.0421798
-0.0398668
-0.0375479
-0.0352238
-0.0329016
-0.0305822
-0.0282517
-0.0258944
-0.0235103
-0.0211132
-0.0187129
-0.0163013
-0.0138668
-0.0114225
-0.00900908
-0.00666606
-0.00440737
-0.00222531
-0.00010976
0.00193873
0.00390638
0.00577166
0.0075184
0.00914806
0.0106752
0.0121067
0.0134311
0.0146338
0.01572
0.0167112
0.0176162
0.0184178
0.0190934
0.0196425
0.0200899
0.0204642
0.0207785
0.0210321
0.0212149
0.0212999
0.0212549
0.0210684
0.020758
0.0203405
0.0198176
0.0191903
0.0184755
0.0177029
0.0169083
0.0160979
0.0151436
0.0139035
-0.0523611
-0.0539907
-0.0555879
-0.0572607
-0.0590716
-0.0608842
-0.0626846
-0.0644786
-0.066262
-0.0680108
-0.0697103
-0.0713572
-0.0729426
-0.0744432
-0.0758483
-0.0771395
-0.0782995
-0.0793219
-0.0801965
-0.0809012
-0.08142
-0.0817485
-0.0818866
-0.08184
-0.0816096
-0.0812029
-0.0806502
-0.0799759
-0.0791763
-0.0782483
-0.0772066
-0.0760599
-0.0747966
-0.0733973
-0.0718569
-0.0701928
-0.0684255
-0.0665664
-0.0646202
-0.0625898
-0.0604919
-0.0583421
-0.0561323
-0.0538552
-0.0515199
-0.0491485
-0.0467808
-0.0444451
-0.0421312
-0.039819
-0.0375074
-0.0352038
-0.0329041
-0.0305918
-0.0282535
-0.0258889
-0.0235075
-0.0211195
-0.0187241
-0.0163057
-0.013856
-0.0113995
-0.00898202
-0.00663403
-0.00435768
-0.00214389
6.96646e-06
0.00208047
0.00405701
0.00592306
0.00767676
0.00932528
0.0108754
0.0123242
0.0136606
0.0148795
0.0159933
0.0170209
0.0179611
0.018786
0.0194688
0.0200152
0.0204586
0.0208294
0.0211351
0.0213685
0.0215176
0.021559
0.0214678
0.021238
0.0208832
0.0204106
0.0198154
0.0190997
0.0182907
0.0174288
0.016552
0.0156636
0.0146135
0.0132474
-0.0556241
-0.0570126
-0.0583926
-0.0598692
-0.0614821
-0.0631335
-0.0647905
-0.0664454
-0.068095
-0.0697191
-0.0712932
-0.072811
-0.0742755
-0.0756715
-0.0769736
-0.0781659
-0.0792402
-0.0801818
-0.0809783
-0.0816072
-0.0820562
-0.0823312
-0.0824253
-0.0823254
-0.0820431
-0.0816041
-0.0810226
-0.0803022
-0.0794478
-0.0784754
-0.0774027
-0.0762281
-0.074933
-0.0735029
-0.0719424
-0.0702696
-0.0684939
-0.0666176
-0.0646505
-0.0626078
-0.0605096
-0.058363
-0.056149
-0.0538606
-0.0515186
-0.0491518
-0.0467903
-0.0444512
-0.0421268
-0.0398071
-0.0374975
-0.0352016
-0.0329015
-0.0305719
-0.0282094
-0.0258301
-0.0234456
-0.021055
-0.0186477
-0.0162089
-0.0137408
-0.0112772
-0.00885828
-0.00649918
-0.00419436
-0.00194295
0.000239736
0.00232997
0.00430988
0.00617661
0.00793855
0.00960232
0.0111645
0.0126156
0.0139509
0.015179
0.0163183
0.0173804
0.0183518
0.019197
0.0198911
0.0204466
0.0209001
0.0212769
0.0215756
0.0217847
0.0218935
0.0218889
0.021756
0.021492
0.0211008
0.020577
0.0199103
0.0191086
0.0182114
0.0172664
0.016309
0.0153385
0.0141863
0.0126948
-0.0586513
-0.059856
-0.0610741
-0.0623636
-0.0638141
-0.0653312
-0.0668723
-0.0684136
-0.0699414
-0.0714489
-0.0729178
-0.0743346
-0.0756952
-0.0769919
-0.0781966
-0.0792978
-0.0802908
-0.0811538
-0.0818643
-0.0824162
-0.0828088
-0.0830323
-0.0830721
-0.0829255
-0.08261
-0.082141
-0.0815168
-0.08074
-0.0798329
-0.0788224
-0.0777174
-0.0765052
-0.0751714
-0.0737137
-0.0721394
-0.0704561
-0.0686621
-0.0667607
-0.0647741
-0.0627248
-0.0606254
-0.0584714
-0.0562424
-0.0539406
-0.051596
-0.0492334
-0.0468673
-0.0445091
-0.0421636
-0.0398321
-0.0375168
-0.03521
-0.0328846
-0.0305176
-0.028121
-0.0257214
-0.0233228
-0.0209117
-0.0184756
-0.0160097
-0.0135274
-0.0110628
-0.00864205
-0.00626486
-0.00392537
-0.00163774
0.000568589
0.00266788
0.00465003
0.00652131
0.00829272
0.0099645
0.0115248
0.0129647
0.0142919
0.0155281
0.0166925
0.0177852
0.0187812
0.0196435
0.0203538
0.020929
0.0214018
0.0217867
0.0220755
0.0222563
0.0223243
0.0222771
0.0221117
0.0218259
0.0214093
0.0208423
0.0201123
0.0192362
0.0182626
0.0172424
0.0162061
0.0151481
0.0138949
0.0122785
-0.061441
-0.0625208
-0.0636056
-0.0647585
-0.0660724
-0.0674714
-0.0689205
-0.0703681
-0.0717944
-0.0732015
-0.0745801
-0.0759119
-0.077184
-0.0783874
-0.0795101
-0.0805337
-0.0814393
-0.0822155
-0.0828483
-0.083335
-0.0836713
-0.0838385
-0.0838264
-0.0836458
-0.0833059
-0.0827968
-0.0821136
-0.0812802
-0.0803312
-0.079284
-0.0781358
-0.0768772
-0.0755075
-0.0740298
-0.0724415
-0.0707375
-0.0689147
-0.0669875
-0.0649876
-0.0629322
-0.0608209
-0.0586457
-0.0563961
-0.054084
-0.0517376
-0.04937
-0.0469844
-0.0445964
-0.0422273
-0.0398826
-0.0375509
-0.0352126
-0.0328424
-0.0304295
-0.0279975
-0.0255717
-0.0231438
-0.0206944
-0.0182204
-0.0157304
-0.013242
-0.0107792
-0.00835126
-0.00594903
-0.00357468
-0.00125841
0.000962772
0.00306866
0.00505858
0.00694212
0.00872523
0.0103995
0.0119498
0.0133757
0.0146989
0.0159489
0.0171392
0.018257
0.01927
0.0201465
0.0208759
0.0214747
0.0219653
0.0223517
0.0226233
0.0227727
0.0228033
0.0227222
0.0225347
0.0222347
0.0217974
0.0211932
0.0204114
0.0194776
0.018443
0.0173578
0.0162469
0.015102
0.0137534
0.0120149
-0.0640172
-0.0649952
-0.0659843
-0.0670447
-0.068257
-0.0695565
-0.0709147
-0.0722905
-0.073646
-0.0749741
-0.0762754
-0.0775336
-0.078733
-0.0798596
-0.0809074
-0.0818556
-0.0826778
-0.0833683
-0.0839322
-0.0843622
-0.0846387
-0.0847496
-0.0846999
-0.0844946
-0.0841187
-0.0835529
-0.0828101
-0.0819318
-0.0809456
-0.0798522
-0.0786498
-0.0773455
-0.0759478
-0.074451
-0.0728372
-0.0710987
-0.0692432
-0.0672951
-0.0652828
-0.0632108
-0.061071
-0.0588644
-0.0565953
-0.0542751
-0.0519186
-0.0495295
-0.0471124
-0.0446937
-0.0423043
-0.0399423
-0.0375799
-0.0351941
-0.0327713
-0.030314
-0.0278474
-0.0253858
-0.0229115
-0.0204116
-0.0179002
-0.0153951
-0.012906
-0.0104403
-0.00799526
-0.00556325
-0.00315904
-0.000822988
0.00140931
0.00352643
0.0055329
0.00743512
0.00923113
0.0109069
0.01245
0.0138708
0.0152022
0.0164736
0.0176882
0.0188226
0.0198443
0.020731
0.0214795
0.0221012
0.0226044
0.0229845
0.0232334
0.0233525
0.0233533
0.0232488
0.0230459
0.0227311
0.0222693
0.0216283
0.0208051
0.0198301
0.0187511
0.0176118
0.0164319
0.0152039
0.0137593
0.0119038
-0.0663791
-0.0672895
-0.0682201
-0.0692079
-0.0703532
-0.0715785
-0.0728582
-0.0741762
-0.0754837
-0.0767579
-0.0779994
-0.0791974
-0.0803371
-0.081406
-0.0823834
-0.0832499
-0.0839972
-0.0846209
-0.0851217
-0.0854896
-0.0857093
-0.0857807
-0.0857061
-0.0854671
-0.0850364
-0.0844109
-0.0836228
-0.0827081
-0.0816755
-0.0805232
-0.0792664
-0.0779253
-0.0765014
-0.074973
-0.0733174
-0.0715379
-0.069654
-0.0676872
-0.0656522
-0.0635453
-0.0613646
-0.0591255
-0.0568386
-0.0545032
-0.0521194
-0.0496928
-0.0472403
-0.0447957
-0.0423856
-0.0399947
-0.0375865
-0.0351456
-0.032673
-0.0301753
-0.0276689
-0.0251569
-0.0226226
-0.0200694
-0.0175271
-0.0150128
-0.0125203
-0.0100412
-0.00756979
-0.00510824
-0.00268256
-0.000333826
0.00191131
0.0040482
0.00607857
0.00800062
0.0098075
0.0114872
0.013034
0.0144661
0.0158193
0.0171164
0.0183494
0.0194897
0.0205125
0.0214078
0.0221763
0.0228197
0.023332
0.0237036
0.0239323
0.0240284
0.0240081
0.0238867
0.0236687
0.0233336
0.0228426
0.0221678
0.0213153
0.0203153
0.0192082
0.0180248
0.0167794
0.0154684
0.0139205
0.0119524
-0.0685217
-0.0694358
-0.0703218
-0.0712509
-0.072351
-0.0735364
-0.0747675
-0.0760381
-0.0773134
-0.0785548
-0.0797537
-0.0809078
-0.0820001
-0.0830124
-0.083922
-0.0847173
-0.0854014
-0.0859702
-0.0864109
-0.0867182
-0.0868976
-0.0869466
-0.0868415
-0.0865501
-0.0860611
-0.0853922
-0.0845707
-0.0836115
-0.0825178
-0.0813053
-0.0800047
-0.0786309
-0.0771688
-0.0755908
-0.0738856
-0.0720697
-0.0701616
-0.0681676
-0.0660917
-0.0639358
-0.0617119
-0.059442
-0.05713
-0.0547609
-0.0523308
-0.0498586
-0.0473726
-0.0449021
-0.0424604
-0.040023
-0.0375577
-0.0350631
-0.032547
-0.030008
-0.0274502
-0.0248741
-0.0222756
-0.0196758
-0.0171104
-0.0145852
-0.0120784
-0.00957479
-0.0070743
-0.0045899
-0.00215201
0.000205662
0.00246751
0.00463064
0.0066875
0.00862709
0.0104433
0.0121334
0.0136998
0.0151616
0.0165483
0.0178722
0.0191166
0.0202552
0.021276
0.0221811
0.0229716
0.0236355
0.0241545
0.024518
0.0247323
0.0248145
0.0247811
0.0246449
0.0244073
0.0240473
0.0235291
0.0228323
0.0219673
0.0209603
0.01984
0.0186205
0.0173108
0.0159138
0.0142615
0.0121836
-0.070479
-0.0714309
-0.0723158
-0.0732068
-0.0742699
-0.0754434
-0.0766598
-0.0779028
-0.0791558
-0.080378
-0.0815505
-0.0826697
-0.0837182
-0.0846704
-0.0855186
-0.0862621
-0.0868935
-0.0874056
-0.0877932
-0.0880629
-0.08822
-0.0882414
-0.0880876
-0.0877402
-0.0872103
-0.0865129
-0.0856515
-0.0846322
-0.0834759
-0.0822161
-0.0808792
-0.0794622
-0.0779435
-0.0763079
-0.0745591
-0.0727138
-0.0707756
-0.0687372
-0.0666053
-0.0643972
-0.0621329
-0.0598261
-0.0574692
-0.0550436
-0.0525548
-0.0500359
-0.0475158
-0.0450092
-0.042517
-0.0400175
-0.0374924
-0.0349504
-0.0323934
-0.0298056
-0.0271845
-0.0245395
-0.0218841
-0.0192496
-0.0166648
-0.0141196
-0.0115847
-0.00905
-0.00652469
-0.00402626
-0.00158108
0.00078737
0.00307081
0.00526284
0.00734535
0.009302
0.011133
0.0128472
0.0144525
0.0159617
0.0173914
0.0187429
0.0199959
0.021132
0.0221528
0.02307
0.0238806
0.0245598
0.0250795
0.0254331
0.0256371
0.0257122
0.0256706
0.0255191
0.0252577
0.024871
0.0243321
0.0236276
0.0227663
0.0217674
0.0206429
0.019392
0.0180194
0.016537
0.0147915
0.0126093
-0.0722653
-0.0732917
-0.0742237
-0.0751121
-0.0761547
-0.0773289
-0.0785563
-0.0797956
-0.0810351
-0.0822466
-0.0834011
-0.0844822
-0.0854806
-0.0863841
-0.0871867
-0.0878838
-0.0884642
-0.0889262
-0.0892807
-0.0895332
-0.0896654
-0.08964
-0.0894325
-0.0890472
-0.0884931
-0.087761
-0.0868433
-0.0857627
-0.0845601
-0.0832649
-0.0818838
-0.0804061
-0.0788235
-0.0771388
-0.0753569
-0.0734791
-0.0714949
-0.0693977
-0.0672068
-0.06495
-0.0626414
-0.0602798
-0.0578538
-0.0553561
-0.0528061
-0.0502405
-0.0476767
-0.0451146
-0.0425544
-0.0399872
-0.0374075
-0.0348224
-0.0322199
-0.0295732
-0.0268834
-0.0241754
-0.0214759
-0.0188148
-0.0162056
-0.013626
-0.0110507
-0.00848337
-0.00593953
-0.00343089
-0.000973162
0.00141691
0.0037298
0.00595171
0.00805872
0.0100373
0.0118974
0.0136555
0.0153183
0.0168874
0.0183657
0.0197465
0.0210113
0.0221509
0.0231777
0.0241073
0.0249303
0.0256126
0.0261245
0.0264673
0.0266654
0.0267384
0.0266907
0.0265222
0.0262339
0.0258194
0.0252634
0.0245577
0.023707
0.0227201
0.021591
0.0203084
0.0188751
0.0173149
0.0154885
0.0132122
-0.0739271
-0.0750596
-0.0760617
-0.0769953
-0.0780497
-0.0792323
-0.0804818
-0.0817363
-0.0829731
-0.084173
-0.0853049
-0.0863489
-0.0873006
-0.0881642
-0.0889294
-0.0895791
-0.0901148
-0.0905483
-0.0908868
-0.091116
-0.0912035
-0.091126
-0.0908824
-0.0904763
-0.0898922
-0.0891081
-0.0881325
-0.0870094
-0.0857763
-0.0844407
-0.0829988
-0.0814542
-0.079819
-0.0780992
-0.0762842
-0.0743592
-0.0723145
-0.0701564
-0.0679123
-0.0656057
-0.063237
-0.0607978
-0.0582869
-0.0557148
-0.0531064
-0.0504883
-0.0478626
-0.0452252
-0.042588
-0.0399564
-0.0373268
-0.0346947
-0.0320353
-0.0293217
-0.026567
-0.0238078
-0.0210728
-0.0183813
-0.0157327
-0.0131021
-0.0104782
-0.00787885
-0.00531836
-0.00279394
-0.000309285
0.00211864
0.00447064
0.00672417
0.00885649
0.0108651
0.0127705
0.01459
0.0163208
0.0179525
0.0194793
0.0208919
0.0221764
0.0233308
0.0243718
0.0253121
0.0261362
0.0268084
0.0273063
0.0276422
0.0278433
0.0279214
0.0278701
0.0276837
0.0273672
0.0269237
0.0263493
0.0256399
0.0247962
0.0238135
0.0226721
0.0213531
0.0198613
0.0182329
0.0163281
0.0139676
-0.0755576
-0.076788
-0.0778714
-0.0788863
-0.079985
-0.0811867
-0.0824626
-0.0837444
-0.0849861
-0.0861655
-0.0872667
-0.0882818
-0.089203
-0.0900243
-0.0907433
-0.0913554
-0.0918671
-0.0922864
-0.0926011
-0.0927856
-0.0928223
-0.0927094
-0.0924457
-0.0920117
-0.091379
-0.0905405
-0.0895266
-0.0883786
-0.087111
-0.0857178
-0.0842089
-0.0826102
-0.080939
-0.079186
-0.077324
-0.0753375
-0.0732305
-0.0710196
-0.0687251
-0.0663558
-0.0639057
-0.0613742
-0.058778
-0.0561374
-0.0534696
-0.0507853
-0.0480789
-0.0453548
-0.0426407
-0.0399484
-0.0372649
-0.034572
-0.0318418
-0.0290589
-0.0262489
-0.0234482
-0.0206751
-0.0179378
-0.0152306
-0.0125371
-0.00986205
-0.00723077
-0.00464785
-0.00209409
0.000434146
0.00291295
0.00531016
0.00759713
0.00975833
0.0118058
0.0137682
0.0156567
0.0174547
0.019143
0.0207146
0.0221637
0.0234803
0.0246627
0.0257244
0.0266722
0.0274879
0.0281418
0.0286262
0.0289639
0.0291794
0.0292706
0.029219
0.029017
0.0286748
0.0282042
0.0276101
0.0268924
0.0260468
0.0250557
0.0238919
0.0225317
0.0209839
0.0192923
0.0173082
0.0148665
-0.0772171
-0.0785478
-0.0797084
-0.0808094
-0.0819834
-0.0832275
-0.0845306
-0.0858329
-0.0870767
-0.0882387
-0.0893152
-0.0903014
-0.0911904
-0.0919707
-0.0926482
-0.0932381
-0.0937374
-0.0941317
-0.0944017
-0.094536
-0.0945373
-0.0944029
-0.0941099
-0.0936271
-0.092941
-0.092066
-0.0910307
-0.0898524
-0.0885304
-0.0870714
-0.0855085
-0.0838742
-0.0821702
-0.08037
-0.0784467
-0.076398
-0.0742388
-0.0719807
-0.0696268
-0.0671761
-0.0646313
-0.0620094
-0.059338
-0.0566324
-0.053895
-0.0511278
-0.0483298
-0.0455192
-0.0427321
-0.0399753
-0.0372239
-0.034453
-0.0316431
-0.0287952
-0.0259391
-0.0230976
-0.0202736
-0.0174709
-0.0146912
-0.0119323
-0.0092089
-0.00654281
-0.00392394
-0.00132255
0.00126278
0.00379755
0.00624083
0.00856473
0.0107639
0.0128612
0.0148873
0.0168435
0.0187015
0.0204391
0.0220548
0.0235491
0.0249114
0.0261334
0.0272185
0.0281682
0.0289681
0.0296025
0.0300799
0.0304295
0.030667
0.0307748
0.0307243
0.0305092
0.0301463
0.029654
0.029042
0.0283124
0.0274543
0.0264415
0.0252444
0.0238384
0.0222363
0.0204826
0.0184261
0.0159015
-0.078926
-0.0803878
-0.0816249
-0.0828065
-0.0840724
-0.0853768
-0.0867035
-0.0880144
-0.089259
-0.0904122
-0.0914691
-0.0924218
-0.0932675
-0.0940156
-0.0946742
-0.0952467
-0.0957187
-0.0960684
-0.0962889
-0.0963873
-0.0963646
-0.0961975
-0.0958526
-0.0953143
-0.0945901
-0.0936935
-0.0926286
-0.091397
-0.0900098
-0.0884976
-0.0869004
-0.0852351
-0.0834848
-0.0816229
-0.0796384
-0.0775395
-0.0753355
-0.0730223
-0.0705911
-0.0680465
-0.0654094
-0.0627096
-0.0599713
-0.0571949
-0.0543731
-0.0515121
-0.0486238
-0.0457336
-0.0428729
-0.0400388
-0.0372017
-0.0343422
-0.0314541
-0.0285488
-0.0256488
-0.0227568
-0.019864
-0.0169804
-0.0141237
-0.0113033
-0.00853391
-0.00582407
-0.0031501
-0.000482024
0.00217021
0.00476215
0.00725288
0.00962291
0.0118762
0.0140384
0.0161333
0.0181526
0.0200636
0.0218485
0.023514
0.0250638
0.0264819
0.0277479
0.0288539
0.0297998
0.0305817
0.0312011
0.0316799
0.0320475
0.0323073
0.032428
0.0323762
0.0321492
0.03177
0.0312614
0.0306332
0.0298851
0.0289998
0.0279491
0.0267034
0.0252437
0.0235853
0.0217708
0.0196522
0.0170472
-0.0806997
-0.0823304
-0.0836701
-0.0849283
-0.0862745
-0.0876393
-0.0889903
-0.09031
-0.0915587
-0.0927025
-0.0937306
-0.0946495
-0.0954648
-0.0961915
-0.0968355
-0.0973789
-0.0978051
-0.0981075
-0.0982922
-0.0983631
-0.0983031
-0.0980804
-0.0976765
-0.0970964
-0.0963469
-0.0954183
-0.0942992
-0.0930019
-0.091562
-0.0900171
-0.0883907
-0.0866806
-0.0848691
-0.0829453
-0.0809117
-0.0787707
-0.0765133
-0.0741249
-0.0716017
-0.0689642
-0.0662464
-0.0634774
-0.0606687
-0.0578093
-0.0548936
-0.0519407
-0.0489719
-0.0460072
-0.0430649
-0.0401362
-0.0372009
-0.0342533
-0.0312952
-0.0283358
-0.0253828
-0.0224221
-0.0194437
-0.0164721
-0.0135393
-0.0106587
-0.00783651
-0.00506594
-0.00231617
0.000433908
0.00315954
0.00581152
0.00835737
0.0107898
0.0131175
0.0153594
0.0175264
0.0196029
0.0215614
0.0233954
0.0251184
0.0267304
0.0282047
0.0295091
0.0306297
0.0315703
0.0323401
0.0329556
0.0334449
0.0338318
0.0341075
0.0342338
0.0341773
0.0339405
0.0335508
0.0330306
0.032385
0.0316066
0.0306757
0.0295665
0.0282541
0.0267291
0.0250091
0.0231374
0.0209583
0.0182799
-0.0825685
-0.0843933
-0.0858659
-0.0871979
-0.0886041
-0.0900263
-0.091412
-0.0927415
-0.0939857
-0.0951144
-0.096118
-0.0970121
-0.0978143
-0.0985232
-0.0991343
-0.0996344
-0.100016
-0.100283
-0.100438
-0.100468
-0.100349
-0.100064
-0.0996139
-0.0990029
-0.0982169
-0.0972312
-0.0960452
-0.0946946
-0.093223
-0.0916507
-0.0899803
-0.088209
-0.0863352
-0.0843612
-0.082285
-0.080091
-0.0777577
-0.0752763
-0.0726598
-0.0699402
-0.0671498
-0.0643067
-0.0614144
-0.0584631
-0.055457
-0.0524244
-0.049384
-0.0463425
-0.0433057
-0.0402697
-0.0372336
-0.0342043
-0.0311804
-0.0281584
-0.0251313
-0.0220803