/*--------------------------------*- C++ -*----------------------------------*\
  =========                 |
  \\      /  F ield         | OpenFOAM: The Open Source CFD Toolbox
   \\    /   O peration     | Website:  https://openfoam.org
    \\  /    A nd           | Version:  11
     \\/     M anipulation  |
\*---------------------------------------------------------------------------*/
FoamFile
{
    format      ascii;
    class       volVectorField;
    location    "1.2";
    object      U;
}
// * * * * * * * * * * * * * * * * * * * * * * * * * * * * * * * * * * * * * //

dimensions      [0 1 -1 0 0 0 0];

internalField   nonuniform List<vector> 
10100
(
(-9.27239e-06 -2.57146e-05 0)
(5.67791e-05 -0.000121367 0)
(0.000260345 -0.000177387 0)
(0.000519117 -0.00016256 0)
(0.000744443 -0.000124457 0)
(0.000905047 -8.90413e-05 0)
(0.00100941 -5.90748e-05 0)
(0.00106674 -3.61521e-05 0)
(0.00108558 -1.7963e-05 0)
(0.00107531 -3.57163e-06 0)
(0.00103923 8.30509e-06 0)
(0.000983078 1.79019e-05 0)
(0.00090977 2.65627e-05 0)
(0.000821351 3.39862e-05 0)
(0.000720649 4.01394e-05 0)
(0.000610233 4.57594e-05 0)
(0.000491503 4.98164e-05 0)
(0.000366641 5.26561e-05 0)
(0.000238716 5.50966e-05 0)
(0.000108371 5.59897e-05 0)
(-2.20906e-05 5.51614e-05 0)
(-0.00014962 5.3215e-05 0)
(-0.000273979 5.04959e-05 0)
(-0.000393977 4.72919e-05 0)
(-0.000508248 4.42831e-05 0)
(-0.000617063 4.15562e-05 0)
(-0.000720528 3.86727e-05 0)
(-0.00081869 3.56806e-05 0)
(-0.000911921 3.3021e-05 0)
(-0.0010008 3.09274e-05 0)
(-0.00108572 2.93076e-05 0)
(-0.00116702 2.80704e-05 0)
(-0.00124474 2.68986e-05 0)
(-0.00131873 2.55708e-05 0)
(-0.00138905 2.40918e-05 0)
(-0.00145545 2.23703e-05 0)
(-0.00151768 2.06962e-05 0)
(-0.0015758 1.92479e-05 0)
(-0.0016297 1.78015e-05 0)
(-0.00167948 1.6312e-05 0)
(-0.00172507 1.47902e-05 0)
(-0.00176625 1.3277e-05 0)
(-0.00180315 1.18222e-05 0)
(-0.0018359 1.03114e-05 0)
(-0.00186432 8.64083e-06 0)
(-0.00188805 6.82515e-06 0)
(-0.00190694 4.93618e-06 0)
(-0.00192087 2.92105e-06 0)
(-0.00192959 6.95026e-07 0)
(-0.0019331 -1.549e-06 0)
(-0.00193148 -3.64146e-06 0)
(-0.00192461 -5.67164e-06 0)
(-0.00191272 -7.62679e-06 0)
(-0.00189615 -9.39799e-06 0)
(-0.00187502 -1.09386e-05 0)
(-0.00184981 -1.20939e-05 0)
(-0.00182121 -1.28099e-05 0)
(-0.00178954 -1.33629e-05 0)
(-0.00175493 -1.39276e-05 0)
(-0.00171761 -1.43719e-05 0)
(-0.00167756 -1.47089e-05 0)
(-0.00163474 -1.5071e-05 0)
(-0.00158947 -1.53386e-05 0)
(-0.0015422 -1.53364e-05 0)
(-0.00149313 -1.51063e-05 0)
(-0.00144262 -1.46567e-05 0)
(-0.00139134 -1.38805e-05 0)
(-0.0013397 -1.29006e-05 0)
(-0.00128771 -1.20242e-05 0)
(-0.00123537 -1.1305e-05 0)
(-0.0011828 -1.05999e-05 0)
(-0.00112991 -9.99867e-06 0)
(-0.00107632 -9.7425e-06 0)
(-0.00102173 -9.80094e-06 0)
(-0.000966103 -9.94188e-06 0)
(-0.000909353 -1.01315e-05 0)
(-0.000851295 -1.05042e-05 0)
(-0.000791916 -1.1019e-05 0)
(-0.000731508 -1.1474e-05 0)
(-0.000670458 -1.18108e-05 0)
(-0.00060907 -1.21212e-05 0)
(-0.00054765 -1.23671e-05 0)
(-0.000486658 -1.23456e-05 0)
(-0.000426676 -1.20019e-05 0)
(-0.000368181 -1.15757e-05 0)
(-0.00031148 -1.12829e-05 0)
(-0.000256922 -1.10299e-05 0)
(-0.000205023 -1.06063e-05 0)
(-0.000156406 -9.95037e-06 0)
(-0.000111758 -9.13202e-06 0)
(-7.17243e-05 -8.18507e-06 0)
(-3.69207e-05 -6.98204e-06 0)
(-8.04997e-06 -5.428e-06 0)
(1.42631e-05 -3.62227e-06 0)
(2.95093e-05 -1.6341e-06 0)
(3.72811e-05 5.54243e-07 0)
(3.73943e-05 2.96843e-06 0)
(2.99981e-05 5.56211e-06 0)
(1.61971e-05 7.23111e-06 0)
(4.71187e-06 4.45766e-06 0)
(-9.74698e-05 2.6083e-06 0)
(-0.000115237 -0.000196118 0)
(1.98879e-05 -0.000392502 0)
(0.000281612 -0.000405053 0)
(0.000559984 -0.00032725 0)
(0.000782224 -0.000233129 0)
(0.000934673 -0.00014449 0)
(0.00101748 -6.97716e-05 0)
(0.00103778 -7.2808e-06 0)
(0.00100069 4.38285e-05 0)
(0.000916386 8.57091e-05 0)
(0.00079122 0.000121784 0)
(0.00063091 0.000151219 0)
(0.000440809 0.000176284 0)
(0.000226304 0.000197565 0)
(-8.78739e-06 0.000214242 0)
(-0.000260016 0.000227003 0)
(-0.000522879 0.000236261 0)
(-0.000795561 0.000241819 0)
(-0.0010735 0.000243891 0)
(-0.00135295 0.000242676 0)
(-0.00163244 0.000238285 0)
(-0.00190861 0.00023112 0)
(-0.00217966 0.000222459 0)
(-0.00244466 0.000213141 0)
(-0.002702 0.000203767 0)
(-0.00295099 0.000194401 0)
(-0.00319155 0.00018533 0)
(-0.00342336 0.000176714 0)
(-0.00364642 0.000168686 0)
(-0.00386094 0.000161189 0)
(-0.00406666 0.000154115 0)
(-0.00426334 0.000147381 0)
(-0.00445068 0.000140298 0)
(-0.00462855 0.000132707 0)
(-0.00479683 0.000124845 0)
(-0.00495501 0.000116826 0)
(-0.00510285 0.00010889 0)
(-0.00524032 0.000100834 0)
(-0.00536731 9.25609e-05 0)
(-0.00548355 8.4307e-05 0)
(-0.00558875 7.60967e-05 0)
(-0.00568293 6.78645e-05 0)
(-0.00576603 5.94194e-05 0)
(-0.00583777 5.06473e-05 0)
(-0.00589802 4.1602e-05 0)
(-0.00594644 3.22072e-05 0)
(-0.00598268 2.24495e-05 0)
(-0.00600698 1.25154e-05 0)
(-0.00601915 2.60954e-06 0)
(-0.00601872 -7.14834e-06 0)
(-0.00600617 -1.67803e-05 0)
(-0.00598201 -2.62558e-05 0)
(-0.00594607 -3.52839e-05 0)
(-0.0058988 -4.3545e-05 0)
(-0.00584091 -5.09457e-05 0)
(-0.00577248 -5.76051e-05 0)
(-0.0056939 -6.37674e-05 0)
(-0.00560608 -6.96605e-05 0)
(-0.0055091 -7.53634e-05 0)
(-0.00540273 -8.08771e-05 0)
(-0.00528772 -8.61395e-05 0)
(-0.0051649 -9.09773e-05 0)
(-0.00503429 -9.51991e-05 0)
(-0.0048962 -9.86728e-05 0)
(-0.00475169 -0.000101309 0)
(-0.00460135 -0.000103184 0)
(-0.00444525 -0.000104624 0)
(-0.00428406 -0.000105942 0)
(-0.00411871 -0.000107179 0)
(-0.0039491 -0.000108351 0)
(-0.00377476 -0.000109731 0)
(-0.00359611 -0.000111602 0)
(-0.003414 -0.000113868 0)
(-0.00322846 -0.000116215 0)
(-0.00303902 -0.000118511 0)
(-0.00284606 -0.000120764 0)
(-0.00265075 -0.000122797 0)
(-0.00245394 -0.000124295 0)
(-0.00225599 -0.000125117 0)
(-0.00205768 -0.000125284 0)
(-0.00186052 -0.000124693 0)
(-0.00166594 -0.000123121 0)
(-0.00147478 -0.000120521 0)
(-0.00128801 -0.000117094 0)
(-0.00110719 -0.000112995 0)
(-0.000934106 -0.000108052 0)
(-0.000770108 -0.000101939 0)
(-0.000616324 -9.45352e-05 0)
(-0.000474307 -8.58985e-05 0)
(-0.000346099 -7.60474e-05 0)
(-0.000233698 -6.49451e-05 0)
(-0.00013864 -5.25519e-05 0)
(-6.20474e-05 -3.90105e-05 0)
(-4.93179e-06 -2.46429e-05 0)
(3.19179e-05 -9.80129e-06 0)
(4.84601e-05 4.91301e-06 0)
(4.56922e-05 1.80923e-05 0)
(2.81919e-05 2.63275e-05 0)
(8.94526e-06 1.67095e-05 0)
(-0.000159253 0.000163053 0)
(-0.000335131 -0.000112597 0)
(-0.000427459 -0.0005042 0)
(-0.000363829 -0.000603542 0)
(-0.000231973 -0.000530913 0)
(-0.000111344 -0.00039293 0)
(-2.97442e-05 -0.000246021 0)
(-2.57094e-06 -0.000105234 0)
(-3.4505e-05 1.79521e-05 0)
(-0.000123155 0.000124257 0)
(-0.000262988 0.000216525 0)
(-0.00044949 0.000293425 0)
(-0.000676902 0.00035963 0)
(-0.00093781 0.000415524 0)
(-0.00122907 0.000461447 0)
(-0.00154422 0.000499125 0)
(-0.00187835 0.000528422 0)
(-0.00222899 0.00054971 0)
(-0.00259078 0.000563605 0)
(-0.00296093 0.000571302 0)
(-0.00333698 0.000572328 0)
(-0.0037149 0.000567744 0)
(-0.00409267 0.000558625 0)
(-0.00446847 0.000545444 0)
(-0.00483989 0.000529927 0)
(-0.00520532 0.000513142 0)
(-0.00556356 0.000495437 0)
(-0.00591306 0.000477477 0)
(-0.00625259 0.000459598 0)
(-0.00658141 0.000441625 0)
(-0.00689889 0.000423689 0)
(-0.00720415 0.000405744 0)
(-0.00749645 0.000387585 0)
(-0.00777542 0.000368948 0)
(-0.00804058 0.000349434 0)
(-0.00829157 0.000329307 0)
(-0.00852796 0.000308869 0)
(-0.00874912 0.000288043 0)
(-0.00895481 0.000266797 0)
(-0.0091449 0.000245136 0)
(-0.00931895 0.000223254 0)
(-0.00947648 0.000201247 0)
(-0.00961742 0.000178998 0)
(-0.00974171 0.000156404 0)
(-0.00984874 0.000133287 0)
(-0.00993838 0.000109625 0)
(-0.0100109 8.55161e-05 0)
(-0.0100661 6.0924e-05 0)
(-0.0101036 3.60572e-05 0)
(-0.0101237 1.13017e-05 0)
(-0.010126 -1.3286e-05 0)
(-0.0101106 -3.7686e-05 0)
(-0.0100782 -6.16644e-05 0)
(-0.0100288 -8.50129e-05 0)
(-0.00996202 -0.000107402 0)
(-0.00987849 -0.000128473 0)
(-0.00977827 -0.000148426 0)
(-0.0096613 -0.000167749 0)
(-0.00952834 -0.000186464 0)
(-0.00937986 -0.000204435 0)
(-0.0092157 -0.000221846 0)
(-0.00903647 -0.000238731 0)
(-0.00884343 -0.000254672 0)
(-0.00863681 -0.000269342 0)
(-0.00841631 -0.000282747 0)
(-0.00818269 -0.000294851 0)
(-0.00793715 -0.000305614 0)
(-0.00768008 -0.000315343 0)
(-0.00741165 -0.000324461 0)
(-0.00713276 -0.00033306 0)
(-0.00684439 -0.000341122 0)
(-0.00654694 -0.000348914 0)
(-0.00624092 -0.000356739 0)
(-0.00592744 -0.000364502 0)
(-0.00560765 -0.000371838 0)
(-0.00528218 -0.000378487 0)
(-0.00495171 -0.00038427 0)
(-0.00461757 -0.000388859 0)
(-0.00428145 -0.000391846 0)
(-0.00394477 -0.000392974 0)
(-0.00360876 -0.0003921 0)
(-0.00327492 -0.000389011 0)
(-0.00294514 -0.000383458 0)
(-0.00262149 -0.000375343 0)
(-0.00230602 -0.000364735 0)
(-0.00200088 -0.00035159 0)
(-0.00170837 -0.000335595 0)
(-0.00143082 -0.000316405 0)
(-0.00117055 -0.000293867 0)
(-0.000930075 -0.000267955 0)
(-0.000712005 -0.00023868 0)
(-0.000518835 -0.000206076 0)
(-0.00035277 -0.000170345 0)
(-0.000215608 -0.00013201 0)
(-0.000108748 -9.18921e-05 0)
(-3.28601e-05 -5.1169e-05 0)
(1.23301e-05 -1.18177e-05 0)
(2.93463e-05 2.27941e-05 0)
(2.32658e-05 4.53669e-05 0)
(8.29521e-06 3.29068e-05 0)
(-0.000151701 0.000396139 0)
(-0.000382174 0.000133266 0)
(-0.000608886 -0.000410564 0)
(-0.000715455 -0.00061905 0)
(-0.00074118 -0.000584822 0)
(-0.000753078 -0.000442893 0)
(-0.000781865 -0.000257016 0)
(-0.000846139 -6.86822e-05 0)
(-0.000959417 0.000109357 0)
(-0.00112205 0.000270199 0)
(-0.00133531 0.000410847 0)
(-0.00159546 0.000533375 0)
(-0.00189577 0.000638886 0)
(-0.00223454 0.000728123 0)
(-0.00260427 0.000802869 0)
(-0.00300068 0.000864348 0)
(-0.00341989 0.000912984 0)
(-0.00385629 0.000949605 0)
(-0.00430685 0.000975455 0)
(-0.00476783 0.000990557 0)
(-0.00523608 0.000996775 0)
(-0.00570897 0.000994838 0)
(-0.00618362 0.000985575 0)
(-0.00665737 0.000970413 0)
(-0.00712779 0.000950655 0)
(-0.00759293 0.000927239 0)
(-0.00805071 0.000901309 0)
(-0.00849912 0.000873755 0)
(-0.00893666 0.000844962 0)
(-0.00936173 0.000814893 0)
(-0.00977284 0.000783765 0)
(-0.0101688 0.000751757 0)
(-0.0105484 0.000718605 0)
(-0.0109112 0.000684238 0)
(-0.0112564 0.000648606 0)
(-0.0115833 0.000611817 0)
(-0.0118913 0.000574216 0)
(-0.0121797 0.000535742 0)
(-0.0124482 0.000496355 0)
(-0.012696 0.00045627 0)
(-0.0129229 0.000415594 0)
(-0.0131284 0.00037441 0)
(-0.0133123 0.000332662 0)
(-0.0134741 0.000290236 0)
(-0.0136135 0.000247229 0)
(-0.0137304 0.000203638 0)
(-0.0138248 0.000159338 0)
(-0.0138968 0.000114476 0)
(-0.013946 6.94092e-05 0)
(-0.0139725 2.44445e-05 0)
(-0.0139758 -2.03075e-05 0)
(-0.0139565 -6.4874e-05 0)
(-0.0139149 -0.000109026 0)
(-0.0138507 -0.000152272 0)
(-0.0137636 -0.000194358 0)
(-0.0136542 -0.000235304 0)
(-0.0135226 -0.00027509 0)
(-0.0133685 -0.000313733 0)
(-0.0131923 -0.000351377 0)
(-0.0129947 -0.000388062 0)
(-0.012776 -0.000423656 0)
(-0.0125367 -0.000458044 0)
(-0.0122778 -0.000491081 0)
(-0.0119993 -0.000522465 0)
(-0.0117017 -0.000551916 0)
(-0.0113857 -0.000579429 0)
(-0.0110522 -0.000605179 0)
(-0.0107015 -0.000629309 0)
(-0.0103346 -0.000651913 0)
(-0.00995245 -0.000673106 0)
(-0.00955612 -0.000693007 0)
(-0.00914635 -0.000711706 0)
(-0.00872454 -0.000729238 0)
(-0.00829247 -0.000745522 0)
(-0.00785137 -0.000760287 0)
(-0.00740215 -0.000773125 0)
(-0.00694637 -0.000783613 0)
(-0.00648631 -0.000791387 0)
(-0.00602405 -0.000796079 0)
(-0.00556106 -0.000797245 0)
(-0.00509909 -0.000794399 0)
(-0.00464061 -0.000787154 0)
(-0.00418825 -0.000775304 0)
(-0.00374439 -0.000758704 0)
(-0.00331148 -0.000737131 0)
(-0.00289246 -0.00071027 0)
(-0.00249063 -0.000677773 0)
(-0.00210908 -0.000639355 0)
(-0.00175061 -0.000594819 0)
(-0.00141817 -0.000544034 0)
(-0.00111507 -0.000487034 0)
(-0.000844483 -0.000424096 0)
(-0.000609088 -0.000355759 0)
(-0.000410838 -0.000282972 0)
(-0.000251094 -0.000207283 0)
(-0.0001306 -0.000130907 0)
(-4.89989e-05 -5.79012e-05 0)
(-3.9816e-06 6.7055e-06 0)
(1.02004e-05 5.08789e-05 0)
(6.08707e-06 4.40659e-05 0)
(-0.000121292 0.000616124 0)
(-0.000341962 0.000438999 0)
(-0.000627424 -0.00018981 0)
(-0.000841676 -0.000480755 0)
(-0.000996173 -0.00049305 0)
(-0.00113222 -0.000356435 0)
(-0.00127351 -0.000154504 0)
(-0.00144341 7.13652e-05 0)
(-0.00164924 0.000293378 0)
(-0.00190152 0.000501419 0)
(-0.002199 0.000688701 0)
(-0.00254034 0.000855447 0)
(-0.0029247 0.00100006 0)
(-0.00334551 0.00112391 0)
(-0.0037997 0.00122899 0)
(-0.00428225 0.00131513 0)
(-0.00478848 0.00138488 0)
(-0.00531479 0.00143858 0)
(-0.00585638 0.0014774 0)
(-0.00640969 0.00150255 0)
(-0.00697147 0.00151499 0)
(-0.00753862 0.0015163 0)
(-0.00810816 0.00150784 0)
(-0.00867729 0.00149112 0)
(-0.00924326 0.00146727 0)
(-0.00980348 0.00143743 0)
(-0.0103554 0.00140291 0)
(-0.0108967 0.00136448 0)
(-0.0114256 0.00132282 0)
(-0.0119402 0.0012785 0)
(-0.0124384 0.00123173 0)
(-0.0129187 0.00118279 0)
(-0.0133799 0.00113154 0)
(-0.0138209 0.00107801 0)
(-0.0142406 0.00102251 0)
(-0.0146381 0.000965141 0)
(-0.0150129 0.000906106 0)
(-0.015364 0.000845584 0)
(-0.0156907 0.000783613 0)
(-0.0159924 0.000720539 0)
(-0.0162686 0.000656423 0)
(-0.0165186 0.000591118 0)
(-0.0167424 0.000524871 0)
(-0.0169394 0.000457862 0)
(-0.0171087 0.000390009 0)
(-0.0172507 0.000321286 0)
(-0.0173657 0.000251773 0)
(-0.017453 0.000181721 0)
(-0.0175123 0.000111446 0)
(-0.0175438 4.11254e-05 0)
(-0.0175475 -2.90699e-05 0)
(-0.0175233 -9.89217e-05 0)
(-0.0174715 -0.000168252 0)
(-0.0173919 -0.000236772 0)
(-0.0172844 -0.00030411 0)
(-0.0171495 -0.000370155 0)
(-0.0169869 -0.000435003 0)
(-0.0167966 -0.000498574 0)
(-0.0165793 -0.000560651 0)
(-0.0163355 -0.000621213 0)
(-0.0160652 -0.000680325 0)
(-0.0157692 -0.000737783 0)
(-0.0154488 -0.000793203 0)
(-0.0151039 -0.000846333 0)
(-0.0147347 -0.000897049 0)
(-0.0143423 -0.00094522 0)
(-0.013928 -0.000990809 0)
(-0.0134924 -0.00103392 0)
(-0.0130359 -0.00107459 0)
(-0.0125599 -0.00111271 0)
(-0.0120662 -0.00114824 0)
(-0.0115559 -0.00118131 0)
(-0.0110304 -0.00121185 0)
(-0.0104916 -0.0012395 0)
(-0.00994142 -0.00126377 0)
(-0.00938152 -0.00128431 0)
(-0.00881372 -0.00130074 0)
(-0.00824045 -0.00131254 0)
(-0.00766431 -0.00131907 0)
(-0.00708755 -0.00131976 0)
(-0.00651236 -0.00131411 0)
(-0.00594147 -0.00130157 0)
(-0.00537801 -0.00128164 0)
(-0.00482516 -0.00125392 0)
(-0.00428603 -0.00121809 0)
(-0.00376395 -0.00117381 0)
(-0.00326251 -0.00112061 0)
(-0.00278535 -0.00105806 0)
(-0.002336 -0.000985937 0)
(-0.00191805 -0.000904259 0)
(-0.00153513 -0.000813234 0)
(-0.00119063 -0.000713319 0)
(-0.000887455 -0.000605306 0)
(-0.000627962 -0.000490745 0)
(-0.000413707 -0.000372077 0)
(-0.000245856 -0.000252926 0)
(-0.000123705 -0.000138671 0)
(-4.51672e-05 -3.68808e-05 0)
(-6.00466e-06 3.79033e-05 0)
(3.11635e-06 4.70567e-05 0)
(-9.3157e-05 0.000791577 0)
(-0.000285397 0.000734866 0)
(-0.000583114 8.35826e-05 0)
(-0.000866385 -0.000250073 0)
(-0.0011124 -0.000290908 0)
(-0.00135359 -0.000161274 0)
(-0.00160247 5.5479e-05 0)
(-0.00187169 0.000309133 0)
(-0.00217737 0.000570273 0)
(-0.00252113 0.000820305 0)
(-0.00290805 0.0010527 0)
(-0.00333789 0.00126085 0)
(-0.00380787 0.00144504 0)
(-0.00431553 0.00160497 0)
(-0.00485641 0.00174057 0)
(-0.00542637 0.00185403 0)
(-0.00602122 0.00194547 0)
(-0.00663667 0.00201735 0)
(-0.00726861 0.00207053 0)
(-0.00791324 0.00210634 0)
(-0.00856677 0.0021261 0)
(-0.00922579 0.00213141 0)
(-0.00988705 0.00212379 0)
(-0.0105475 0.00210496 0)
(-0.0112043 0.00207627 0)
(-0.0118544 0.00203914 0)
(-0.0124951 0.00199489 0)
(-0.0131238 0.00194424 0)
(-0.0137381 0.00188799 0)
(-0.014336 0.0018272 0)
(-0.0149151 0.00176223 0)
(-0.0154739 0.00169336 0)
(-0.0160108 0.00162088 0)
(-0.0165244 0.00154499 0)
(-0.0170133 0.00146614 0)
(-0.0174766 0.00138448 0)
(-0.0179133 0.00130007 0)
(-0.0183226 0.00121342 0)
(-0.0187034 0.00112481 0)
(-0.0190549 0.00103429 0)
(-0.0193769 0.00094209 0)
(-0.0196686 0.000848331 0)
(-0.0199292 0.000753129 0)
(-0.0201584 0.000656705 0)
(-0.0203559 0.000559221 0)
(-0.0205215 0.00046069 0)
(-0.0206551 0.000361148 0)
(-0.0207562 0.000260938 0)
(-0.0208248 0.000160508 0)
(-0.0208609 5.99861e-05 0)
(-0.020864 -4.05932e-05 0)
(-0.0208345 -0.000140892 0)
(-0.0207729 -0.00024048 0)
(-0.0206784 -0.000339148 0)
(-0.0205509 -0.000436755 0)
(-0.0203913 -0.00053307 0)
(-0.0201998 -0.000627902 0)
(-0.0199755 -0.000721131 0)
(-0.0197192 -0.000812562 0)
(-0.0194319 -0.000902009 0)
(-0.0191139 -0.000989417 0)
(-0.0187656 -0.00107462 0)
(-0.0183878 -0.00115718 0)
(-0.0179812 -0.00123668 0)
(-0.0175463 -0.00131302 0)
(-0.0170841 -0.00138616 0)
(-0.0165958 -0.00145587 0)
(-0.0160821 -0.00152194 0)
(-0.015544 -0.00158428 0)
(-0.0149832 -0.00164282 0)
(-0.0144013 -0.00169739 0)
(-0.0137998 -0.0017478 0)
(-0.0131805 -0.00179382 0)
(-0.0125455 -0.00183507 0)
(-0.0118969 -0.00187101 0)
(-0.0112368 -0.00190103 0)
(-0.0105675 -0.00192454 0)
(-0.00989188 -0.00194096 0)
(-0.00921285 -0.00194961 0)
(-0.00853289 -0.00194976 0)
(-0.00785466 -0.00194064 0)
(-0.00718146 -0.00192154 0)
(-0.00651699 -0.00189188 0)
(-0.00586478 -0.00185111 0)
(-0.00522828 -0.00179867 0)
(-0.00461126 -0.00173398 0)
(-0.00401785 -0.00165652 0)
(-0.00345219 -0.00156588 0)
(-0.00291818 -0.00146188 0)
(-0.00241971 -0.0013446 0)
(-0.00196071 -0.00121439 0)
(-0.0015449 -0.00107195 0)
(-0.00117557 -0.000918557 0)
(-0.00085534 -0.000756446 0)
(-0.000586026 -0.000588755 0)
(-0.00036882 -0.000420474 0)
(-0.000203745 -0.000257977 0)
(-8.94992e-05 -0.000111194 0)
(-2.32659e-05 3.40383e-06 0)
(3.85129e-08 4.09848e-05 0)
(-6.99686e-05 0.00093017 0)
(-0.000233002 0.00100694 0)
(-0.000528353 0.000382981 0)
(-0.000845956 4.37024e-05 0)
(-0.00116263 -1.21162e-06 0)
(-0.00148746 0.000130483 0)
(-0.00182756 0.000365023 0)
(-0.00219372 0.000645836 0)
(-0.0025912 0.000941711 0)
(-0.00302814 0.00123257 0)
(-0.00350511 0.00150536 0)
(-0.00402303 0.00175487 0)
(-0.00458051 0.00197748 0)
(-0.00517488 0.0021725 0)
(-0.00580268 0.00233993 0)
(-0.00645992 0.00248047 0)
(-0.00714215 0.00259532 0)
(-0.00784521 0.00268585 0)
(-0.00856537 0.00275365 0)
(-0.00929838 0.00280033 0)
(-0.0100404 0.0028275 0)
(-0.0107877 0.00283671 0)
(-0.0115367 0.00282972 0)
(-0.0122841 0.00280808 0)
(-0.0130268 0.00277356 0)
(-0.0137615 0.00272779 0)
(-0.0144855 0.00267201 0)
(-0.015196 0.00260736 0)
(-0.0158902 0.00253479 0)
(-0.0165656 0.00245537 0)
(-0.0172202 0.00236974 0)
(-0.017852 0.00227827 0)
(-0.0184591 0.00218167 0)
(-0.0190399 0.00208037 0)
(-0.019593 0.00197469 0)
(-0.0201174 0.00186514 0)
(-0.0206117 0.00175192 0)
(-0.0210748 0.00163537 0)
(-0.0215057 0.00151605 0)
(-0.0219038 0.00139422 0)
(-0.0222681 0.00126982 0)
(-0.0225981 0.00114318 0)
(-0.0228931 0.00101484 0)
(-0.0231526 0.000884876 0)
(-0.0233757 0.000753245 0)
(-0.0235629 0.000620254 0)
(-0.0237141 0.000486247 0)
(-0.0238281 0.00035145 0)
(-0.0239048 0.000216147 0)
(-0.0239448 8.0624e-05 0)
(-0.0239478 -5.49295e-05 0)
(-0.0239133 -0.000190227 0)
(-0.0238417 -0.000324827 0)
(-0.023733 -0.000458426 0)
(-0.0235873 -0.000590909 0)
(-0.0234049 -0.000722039 0)
(-0.0231857 -0.000851419 0)
(-0.0229297 -0.000978773 0)
(-0.0226376 -0.00110396 0)
(-0.0223102 -0.00122679 0)
(-0.0219478 -0.00134697 0)
(-0.0215508 -0.00146417 0)
(-0.0211204 -0.001578 0)
(-0.0206573 -0.00168809 0)
(-0.0201619 -0.00179419 0)
(-0.0196355 -0.00189607 0)
(-0.0190794 -0.00199344 0)
(-0.0184947 -0.002086 0)
(-0.0178822 -0.00217347 0)
(-0.0172438 -0.00225554 0)
(-0.0165816 -0.00233192 0)
(-0.0158973 -0.00240231 0)
(-0.0151927 -0.0024663 0)
(-0.0144702 -0.00252329 0)
(-0.0137321 -0.00257255 0)
(-0.012981 -0.00261345 0)
(-0.0122194 -0.00264531 0)
(-0.0114504 -0.00266733 0)
(-0.0106774 -0.00267855 0)
(-0.00990317 -0.00267806 0)
(-0.00913079 -0.00266503 0)
(-0.0083639 -0.00263866 0)
(-0.00760658 -0.0025981 0)
(-0.00686282 -0.00254258 0)
(-0.00613645 -0.0024714 0)
(-0.00543155 -0.00238389 0)
(-0.00475253 -0.00227947 0)
(-0.00410389 -0.00215763 0)
(-0.00349002 -0.0020182 0)
(-0.00291517 -0.00186142 0)
(-0.00238351 -0.00168785 0)
(-0.00189892 -0.00149844 0)
(-0.00146501 -0.00129495 0)
(-0.00108468 -0.00108013 0)
(-0.000760282 -0.000858093 0)
(-0.000493509 -0.000634605 0)
(-0.000284948 -0.000417524 0)
(-0.000134045 -0.000217676 0)
(-4.02419e-05 -5.33566e-05 0)
(-2.79731e-06 2.59607e-05 0)
(-5.33494e-05 0.00104026 0)
(-0.000192299 0.00125443 0)
(-0.000475688 0.000692243 0)
(-0.000817535 0.000381513 0)
(-0.00118184 0.000351983 0)
(-0.00157515 0.000504789 0)
(-0.00199443 0.000760909 0)
(-0.00244443 0.00107306 0)
(-0.00293037 0.00140431 0)
(-0.00345407 0.00173384 0)
(-0.00401868 0.00204727 0)
(-0.00462333 0.00233638 0)
(-0.00526666 0.00259703 0)
(-0.00594651 0.00282666 0)
(-0.00665948 0.00302541 0)
(-0.0074017 0.00319329 0)
(-0.00816917 0.00333163 0)
(-0.00895758 0.00344108 0)
(-0.00976267 0.00352375 0)
(-0.0105805 0.00358118 0)
(-0.011407 0.00361525 0)
(-0.0122383 0.00362777 0)
(-0.0130707 0.00362059 0)
(-0.0139005 0.00359531 0)
(-0.0147242 0.00355392 0)
(-0.0155387 0.00349809 0)
(-0.0163408 0.00342908 0)
(-0.0171277 0.00334851 0)
(-0.0178964 0.00325765 0)
(-0.0186442 0.00315736 0)
(-0.0193692 0.00304865 0)
(-0.0200688 0.00293218 0)
(-0.0207411 0.00280872 0)
(-0.0213845 0.00267911 0)
(-0.0219972 0.00254366 0)
(-0.022578 0.00240274 0)
(-0.0231258 0.00225723 0)
(-0.0236389 0.00210757 0)
(-0.0241162 0.00195389 0)
(-0.0245572 0.00179666 0)
(-0.0249612 0.00163636 0)
(-0.0253268 0.00147321 0)
(-0.0256533 0.00130759 0)
(-0.0259407 0.00113986 0)
(-0.0261884 0.000970123 0)
(-0.0263956 0.000798624 0)
(-0.0265625 0.00062583 0)
(-0.0266884 0.000452138 0)
(-0.0267732 0.000277735 0)
(-0.026817 0.00010286 0)
(-0.0268192 -7.20675e-05 0)
(-0.02678 -0.000246626 0)
(-0.0266997 -0.000420508 0)
(-0.0265781 -0.000593456 0)
(-0.0264152 -0.000765153 0)
(-0.0262115 -0.000935187 0)
(-0.0259672 -0.00110319 0)
(-0.0256819 -0.00126888 0)
(-0.0253566 -0.00143197 0)
(-0.0249921 -0.00159209 0)
(-0.0245889 -0.00174893 0)
(-0.0241474 -0.00190212 0)
(-0.0236685 -0.00205112 0)
(-0.0231533 -0.00219544 0)
(-0.0226025 -0.00233481 0)
(-0.0220174 -0.00246894 0)
(-0.0213992 -0.00259733 0)
(-0.0207492 -0.00271944 0)
(-0.0200687 -0.00283489 0)
(-0.0193595 -0.0029433 0)
(-0.0186239 -0.0030442 0)
(-0.0178639 -0.00313701 0)
(-0.0170813 -0.00322112 0)
(-0.0162787 -0.00329576 0)
(-0.0154589 -0.00336011 0)
(-0.0146245 -0.00341335 0)
(-0.0137784 -0.00345463 0)
(-0.0129239 -0.00348297 0)
(-0.0120646 -0.00349728 0)
(-0.0112036 -0.00349643 0)
(-0.0103445 -0.00347937 0)
(-0.00949118 -0.00344516 0)
(-0.00864805 -0.00339282 0)
(-0.00781938 -0.00332138 0)
(-0.00700933 -0.00322994 0)
(-0.00622228 -0.00311769 0)
(-0.00546294 -0.00298397 0)
(-0.00473617 -0.00282835 0)
(-0.00404671 -0.0026507 0)
(-0.00339909 -0.00245136 0)
(-0.00279758 -0.00223098 0)
(-0.00224642 -0.00199078 0)
(-0.00174963 -0.00173305 0)
(-0.0013106 -0.0014611 0)
(-0.000932053 -0.00117982 0)
(-0.000616158 -0.000895565 0)
(-0.000364445 -0.000617267 0)
(-0.000177297 -0.000356236 0)
(-5.64938e-05 -0.000132279 0)
(-5.42015e-06 2.32256e-06 0)
(-4.07325e-05 0.00112892 0)
(-0.000161522 0.00148199 0)
(-0.00043537 0.00100408 0)
(-0.000790867 0.000747201 0)
(-0.00119306 0.000758723 0)
(-0.0016402 0.000942595 0)
(-0.00212711 0.00123431 0)
(-0.00265233 0.0015811 0)
(-0.00321699 0.0019514 0)
(-0.00382306 0.00232052 0)
(-0.00447033 0.00267414 0)
(-0.00515783 0.00300292 0)
(-0.00588435 0.00330091 0)
(-0.00664693 0.00356531 0)
(-0.00744216 0.00379495 0)
(-0.00826657 0.0039901 0)
(-0.00911612 0.00415125 0)
(-0.0099864 0.00427976 0)
(-0.010873 0.00437706 0)
(-0.0117719 0.00444493 0)
(-0.0126789 0.0044854 0)
(-0.0135898 0.00450035 0)
(-0.014501 0.00449179 0)
(-0.0154085 0.0044618 0)
(-0.0163086 0.0044122 0)
(-0.017198 0.00434473 0)
(-0.0180736 0.00426098 0)
(-0.018932 0.00416274 0)
(-0.0197703 0.00405156 0)
(-0.0205858 0.00392826 0)
(-0.0213763 0.00379403 0)
(-0.0221392 0.00365025 0)
(-0.0228722 0.00349755 0)
(-0.0235735 0.00333662 0)
(-0.0242418 0.00316843 0)
(-0.0248753 0.00299351 0)
(-0.0254723 0.00281247 0)
(-0.0260317 0.00262613 0)
(-0.0265526 0.00243487 0)
(-0.0270336 0.00223896 0)
(-0.0274739 0.00203904 0)
(-0.0278726 0.00183572 0)
(-0.0282289 0.0016293 0)
(-0.0285423 0.00141998 0)
(-0.0288121 0.00120819 0)
(-0.0290382 0.000994438 0)
(-0.0292201 0.000779069 0)
(-0.0293572 0.000562388 0)
(-0.0294492 0.000344804 0)
(-0.0294965 0.00012672 0)
(-0.0294986 -9.15209e-05 0)
(-0.0294551 -0.000309495 0)
(-0.0293666 -0.000526711 0)
(-0.0292332 -0.000742844 0)
(-0.0290548 -0.000957639 0)
(-0.0288316 -0.00117058 0)
(-0.0285639 -0.00138107 0)
(-0.0282518 -0.00158878 0)
(-0.0278961 -0.00179349 0)
(-0.0274977 -0.00199472 0)
(-0.0270569 -0.00219191 0)
(-0.0265743 -0.00238454 0)
(-0.026051 -0.00257212 0)
(-0.0254881 -0.00275414 0)
(-0.0248864 -0.00293014 0)
(-0.0242473 -0.00309963 0)
(-0.0235721 -0.00326196 0)
(-0.0228623 -0.00341649 0)
(-0.0221192 -0.00356268 0)
(-0.0213451 -0.0037 0)
(-0.0205422 -0.00382775 0)
(-0.0197126 -0.00394518 0)
(-0.0188584 -0.00405145 0)
(-0.0179822 -0.00414563 0)
(-0.0170872 -0.00422671 0)
(-0.0161761 -0.00429368 0)
(-0.0152522 -0.00434553 0)
(-0.0143189 -0.00438107 0)
(-0.0133798 -0.00439899 0)
(-0.0124387 -0.004398 0)
(-0.0114992 -0.00437691 0)
(-0.0105656 -0.00433461 0)
(-0.00964255 -0.00426991 0)
(-0.00873459 -0.00418162 0)
(-0.00784613 -0.00406865 0)
(-0.00698185 -0.00393013 0)
(-0.00614675 -0.00376537 0)
(-0.00534598 -0.0035739 0)
(-0.00458461 -0.00335565 0)
(-0.00386738 -0.003111 0)
(-0.00319875 -0.00284075 0)
(-0.00258339 -0.00254654 0)
(-0.00202573 -0.00223099 0)
(-0.00152959 -0.00189791 0)
(-0.00109819 -0.00155261 0)
(-0.000734502 -0.00120215 0)
(-0.000440786 -0.000856102 0)
(-0.000218641 -0.00052599 0)
(-7.19658e-05 -0.00023244 0)
(-8.02056e-06 -2.95344e-05 0)
(-3.13093e-05 0.001204 0)
(-0.000139308 0.00169174 0)
(-0.000405861 0.0013173 0)
(-0.00077133 0.00113674 0)
(-0.00120386 0.00120423 0)
(-0.00169734 0.0014378 0)
(-0.00224074 0.00177239 0)
(-0.0028324 0.00216288 0)
(-0.0034693 0.00257514 0)
(-0.0041507 0.00298661 0)
(-0.00487516 0.00338183 0)
(-0.00564128 0.00375031 0)
(-0.00644672 0.00408576 0)
(-0.00728845 0.00438487 0)
(-0.00816275 0.00464536 0)
(-0.00906591 0.0048674 0)
(-0.00999394 0.00505115 0)
(-0.0109424 0.00519809 0)
(-0.0119068 0.00530949 0)
(-0.0128828 0.00538734 0)
(-0.0138662 0.0054335 0)
(-0.0148527 0.00545004 0)
(-0.0158383 0.00543911 0)
(-0.0168189 0.0054031 0)
(-0.017791 0.00534374 0)
(-0.0187511 0.00526301 0)
(-0.0196955 0.00516306 0)
(-0.0206208 0.0050454 0)
(-0.0215244 0.00491167 0)
(-0.0224035 0.00476342 0)
(-0.023255 0.00460175 0)
(-0.0240766 0.00442807 0)
(-0.0248665 0.00424362 0)
(-0.0256222 0.00404904 0)
(-0.0263419 0.00384523 0)
(-0.0270242 0.00363334 0)
(-0.0276675 0.00341409 0)
(-0.0282702 0.00318799 0)
(-0.0288311 0.00295572 0)
(-0.0293494 0.00271803 0)
(-0.0298239 0.00247543 0)
(-0.0302533 0.00222843 0)
(-0.030637 0.00197762 0)
(-0.0309749 0.00172339 0)
(-0.0312658 0.00146611 0)
(-0.0315091 0.00120638 0)
(-0.0317049 0.000944784 0)
(-0.0318525 0.00068161 0)
(-0.0319517 0.000417168 0)
(-0.0320025 0.000152049 0)
(-0.0320043 -0.000113162 0)
(-0.0319571 -0.000378093 0)
(-0.0318615 -0.000642357 0)
(-0.0317174 -0.000905474 0)
(-0.0315246 -0.00116696 0)
(-0.0312836 -0.00142623 0)
(-0.0309947 -0.00168273 0)
(-0.030658 -0.00193609 0)
(-0.0302745 -0.00218592 0)
(-0.0298448 -0.00243158 0)
(-0.0293694 -0.00267238 0)
(-0.028849 -0.00290779 0)
(-0.0282849 -0.00313723 0)
(-0.0276781 -0.00336005 0)
(-0.0270296 -0.00357564 0)
(-0.0263408 -0.00378336 0)
(-0.0256132 -0.00398245 0)
(-0.0248483 -0.00417209 0)
(-0.0240477 -0.00435155 0)
(-0.0232137 -0.00452014 0)
(-0.0223488 -0.004677 0)
(-0.021455 -0.00482112 0)
(-0.0205346 -0.00495143 0)
(-0.0195905 -0.00506683 0)
(-0.0186259 -0.00516618 0)
(-0.017644 -0.00524828 0)
(-0.0166479 -0.00531186 0)
(-0.0156414 -0.00535549 0)
(-0.0146282 -0.00537766 0)
(-0.0136123 -0.00537694 0)
(-0.0125979 -0.00535198 0)
(-0.0115894 -0.00530147 0)
(-0.0105915 -0.005224 0)
(-0.009609 -0.00511815 0)
(-0.00864662 -0.00498272 0)
(-0.00770938 -0.00481676 0)
(-0.00680249 -0.00461951 0)
(-0.00593136 -0.00439048 0)
(-0.00510135 -0.00412962 0)
(-0.00431741 -0.00383734 0)
(-0.00358435 -0.00351465 0)
(-0.0029072 -0.00316347 0)
(-0.00229082 -0.00278674 0)
(-0.00173953 -0.00238861 0)
(-0.0012571 -0.00197478 0)
(-0.00084735 -0.0015528 0)
(-0.000513271 -0.00113241 0)
(-0.000257775 -0.000725481 0)
(-8.65957e-05 -0.00035243 0)
(-1.05955e-05 -6.91807e-05 0)
(-2.38774e-05 0.00126757 0)
(-0.000123929 0.00189091 0)
(-0.000384022 0.00163358 0)
(-0.000761063 0.00154406 0)
(-0.00121947 0.00168512 0)
(-0.00175067 0.00198014 0)
(-0.00234541 0.00236898 0)
(-0.00299548 0.00280929 0)
(-0.00369741 0.00326917 0)
(-0.00444787 0.00372641 0)
(-0.00524444 0.00416495 0)
(-0.00608421 0.00457421 0)
(-0.0069641 0.00494779 0)
(-0.00788093 0.00528137 0)
(-0.00883051 0.00557293 0)
(-0.00980884 0.00582147 0)
(-0.0108118 0.00602771 0)
(-0.0118346 0.00619249 0)
(-0.0128729 0.00631743 0)
(-0.0139222 0.00640437 0)
(-0.0149781 0.0064553 0)
(-0.0160362 0.00647254 0)
(-0.0170921 0.00645828 0)
(-0.018142 0.00641482 0)
(-0.0191821 0.00634432 0)
(-0.0202083 0.00624889 0)
(-0.0212174 0.00613091 0)
(-0.0222061 0.00599213 0)
(-0.0231709 0.005834 0)
(-0.0241092 0.00565857 0)
(-0.0250182 0.00546753 0)
(-0.025895 0.00526193 0)
(-0.0267376 0.00504307 0)
(-0.027544 0.0048123 0)
(-0.0283122 0.00457065 0)
(-0.0290401 0.00431907 0)
(-0.0297262 0.00405859 0)
(-0.0303694 0.00379001 0)
(-0.0309682 0.00351395 0)
(-0.031521 0.00323131 0)
(-0.0320271 0.00294292 0)
(-0.0324854 0.00264929 0)
(-0.0328951 0.00235088 0)
(-0.0332556 0.00204836 0)
(-0.033566 0.00174241 0)
(-0.0338257 0.00143358 0)
(-0.0340348 0.00112232 0)
(-0.0341924 0.00080911 0)
(-0.0342983 0.00049449 0)
(-0.0343524 0.000179106 0)
(-0.0343543 -0.000136503 0)
(-0.034304 -0.000451937 0)
(-0.034202 -0.000766647 0)
(-0.0340481 -0.00108 0)
(-0.0338424 -0.00139147 0)
(-0.0335851 -0.00170046 0)
(-0.0332767 -0.00200632 0)
(-0.0329175 -0.00230854 0)
(-0.0325084 -0.00260665 0)
(-0.03205 -0.00289989 0)
(-0.0315428 -0.00318745 0)
(-0.0309876 -0.00346866 0)
(-0.0303859 -0.00374291 0)
(-0.0297386 -0.00400943 0)
(-0.029047 -0.00426743 0)