/*--------------------------------*- C++ -*----------------------------------*\
  =========                 |
  \\      /  F ield         | OpenFOAM: The Open Source CFD Toolbox
   \\    /   O peration     | Website:  https://openfoam.org
    \\  /    A nd           | Version:  11
     \\/     M anipulation  |
\*---------------------------------------------------------------------------*/
FoamFile
{
    format      ascii;
    class       volScalarField;
    location    "3.9";
    object      p;
}
// * * * * * * * * * * * * * * * * * * * * * * * * * * * * * * * * * * * * * //

dimensions      [0 2 -2 0 0 0 0];

internalField   nonuniform List<scalar> 
10100
(
-7.20777e-09
6.46575e-05
-0.000133457
-0.000594318
-0.00127407
-0.00213827
-0.00315122
-0.00427537
-0.00547214
-0.00670726
-0.00795108
-0.00917727
-0.010362
-0.0114844
-0.0125255
-0.0134688
-0.0143008
-0.0150091
-0.0155832
-0.0160153
-0.0162978
-0.0164243
-0.0163911
-0.0161959
-0.0158373
-0.0153154
-0.0146314
-0.0137866
-0.0127825
-0.0116219
-0.0103076
-0.00884318
-0.00723259
-0.005481
-0.00359425
-0.00157859
0.000559215
0.00281227
0.0051737
0.00763663
0.0101938
0.0128372
0.0155589
0.018351
0.0212052
0.0241127
0.0270644
0.0300519
0.0330669
0.0361011
0.0391453
0.04219
0.0452256
0.0482431
0.0512331
0.0541863
0.0570933
0.059945
0.0627317
0.065444
0.0680727
0.0706093
0.0730455
0.075373
0.0775831
0.0796674
0.0816182
0.0834291
0.0850946
0.0866092
0.0879673
0.0891644
0.0901967
0.0910613
0.0917557
0.0922781
0.092627
0.0928022
0.0928049
0.0926381
0.0923066
0.0918156
0.091172
0.0903843
0.0894639
0.0884242
0.0872802
0.0860483
0.084747
0.0833979
0.0820269
0.0806643
0.0793439
0.0781026
0.0769811
0.0760239
0.0752778
0.0747897
0.0746022
0.0746811
-6.54661e-05
5.73151e-05
-8.9469e-05
-0.000471535
-0.00104443
-0.00177996
-0.00265035
-0.00362276
-0.00466411
-0.00574352
-0.00683448
-0.0079129
-0.0089574
-0.00994757
-0.0108652
-0.0116956
-0.012425
-0.0130418
-0.0135372
-0.0139022
-0.0141295
-0.0142128
-0.0141475
-0.0139308
-0.0135615
-0.0130392
-0.0123649
-0.01154
-0.0105658
-0.00944408
-0.00817765
-0.00676976
-0.00522419
-0.0035452
-0.00173794
0.000191629
0.00223698
0.0043915
0.00664869
0.009002
0.0114448
0.0139699
0.01657
0.0192372
0.0219633
0.0247398
0.0275583
0.030411
0.0332901
0.0361874
0.0390941
0.0420011
0.0448993
0.0477801
0.0506348
0.0534543
0.0562295
0.0589519
0.0616121
0.0642011
0.0667105
0.0691325
0.0714589
0.0736817
0.0757928
0.0777844
0.0796494
0.0813823
0.0829778
0.0844306
0.0857355
0.0868886
0.0878872
0.0887288
0.0894111
0.0899323
0.0902913
0.0904883
0.0905253
0.0904059
0.090135
0.0897176
0.0891602
0.0884713
0.0876622
0.0867462
0.0857377
0.084652
0.0835064
0.0823215
0.0811215
0.079934
0.078789
0.0777179
0.0767545
0.0759344
0.0752917
0.074859
0.0746793
0.0747587
0.000152445
0.000303793
0.000183821
-0.000154195
-0.000665097
-0.00132385
-0.00210319
-0.0029752
-0.00391039
-0.00488127
-0.00586299
-0.00683456
-0.00777546
-0.0086668
-0.00949249
-0.0102371
-0.010888
-0.011435
-0.0118687
-0.012181
-0.0123648
-0.0124135
-0.0123226
-0.0120892
-0.0117114
-0.0111892
-0.0105233
-0.00971455
-0.0087641
-0.00767377
-0.00644586
-0.00508331
-0.00358994
-0.00196975
-0.000227273
0.00163199
0.00360189
0.00567611
0.00784849
0.0101128
0.0124626
0.0148915
0.0173925
0.0199578
0.0225795
0.025249
0.0279588
0.0307017
0.0334702
0.0362561
0.0390508
0.0418457
0.0446321
0.0474017
0.0501462
0.0528569
0.0555253
0.0581426
0.0607001
0.063189
0.0656016
0.0679307
0.0701683
0.0723066
0.0743375
0.0762539
0.0780499
0.0797201
0.0812596
0.0826629
0.0839251
0.085043
0.0860146
0.0868377
0.0875101
0.0880299
0.0883965
0.0886107
0.0886751
0.0885935
0.0883702
0.0880101
0.0875194
0.0869066
0.0861829
0.0853612
0.084455
0.0834787
0.0824484
0.0813837
0.0803071
0.0792436
0.0782193
0.0772618
0.0763998
0.075663
0.0750791
0.074675
0.0744962
0.0745694
0.000713742
0.000823665
0.000687045
0.000352458
-0.000137182
-0.000760388
-0.00148987
-0.00230093
-0.00316773
-0.00406509
-0.00497137
-0.00586583
-0.00673023
-0.00754792
-0.00830295
-0.00898194
-0.00957292
-0.0100655
-0.0104508
-0.0107213
-0.0108695
-0.0108897
-0.0107778
-0.0105306
-0.0101465
-0.00962497
-0.00896626
-0.00817131
-0.00724128
-0.00617744
-0.00498183
-0.00365741
-0.00220779
-0.000636781
0.00105128
0.00285091
0.00475647
0.00676257
0.00886336
0.0110526
0.013324
0.0156716
0.0180887
0.0205678
0.0231005
0.0256794
0.0282973
0.0309474
0.0336222
0.0363136
0.0390136
0.0417137
0.0444054
0.0470808
0.049732
0.0523506
0.0549285
0.0574571
0.0599277
0.0623321
0.0646631
0.066914
0.0690768
0.0711436
0.073107
0.0749605
0.0766987
0.0783165
0.079809
0.0811708
0.0823973
0.083486
0.084435
0.0852424
0.0859057
0.0864234
0.0867957
0.087024
0.087111
0.0870601
0.0868748
0.08656
0.0861219
0.0855689
0.0849119
0.0841632
0.0833353
0.0824415
0.0814972
0.0805206
0.0795324
0.0785549
0.0776111
0.0767253
0.0759226
0.0752288
0.074668
0.0742643
0.074059
0.0740801
0.00156823
0.00157167
0.00137486
0.00101254
0.000513799
-9.89266e-05
-0.000803433
-0.00157618
-0.00239488
-0.00323847
-0.00408641
-0.00492025
-0.00572303
-0.00647944
-0.00717557
-0.00779898
-0.00833871
-0.00878491
-0.00912908
-0.0093635
-0.00948125
-0.00947703
-0.00934683
-0.00908783
-0.00869851
-0.00817811
-0.00752646
-0.00674443
-0.0058332
-0.00479384
-0.00362828
-0.00233935
-0.000930153
0.000595617
0.00223346
0.00397819
0.00582457
0.0077677
0.00980221
0.011922
0.0141213
0.0163942
0.0187338
0.0211326
0.023583
0.0260781
0.0286112
0.0311754
0.0337633
0.0363672
0.0389793
0.0415916
0.0441958
0.046784
0.0493487
0.0518821
0.0543761
0.0568225
0.0592127
0.0615392
0.0637952
0.065974
0.0680676
0.0700683
0.0719697
0.0737658
0.0754514
0.0770211
0.0784701
0.0797935
0.0809874
0.0820494
0.0829779
0.0837705
0.0844249
0.0849401
0.0853171
0.0855578
0.0856645
0.0856401
0.0854878
0.085212
0.084819
0.0843173
0.0837171
0.0830299
0.0822672
0.0814416
0.0805672
0.0796609
0.0787413
0.0778282
0.0769422
0.0761042
0.0753363
0.0746608
0.0740988
0.073672
0.0734103
0.0733328
0.00265148
0.00250664
0.00221587
0.00179833
0.00126804
0.000641325
-5.87985e-05
-0.000814092
-0.00160447
-0.00241122
-0.00321722
-0.00400519
-0.00475997
-0.00546791
-0.00611626
-0.00669385
-0.00719096
-0.00759808
-0.00790714
-0.00811113
-0.00820351
-0.00817887
-0.0080334
-0.00776494
-0.00737183
-0.00685293
-0.00620823
-0.00543847
-0.00454455
-0.00352751
-0.0023893
-0.00113279
0.000239268
0.0017235
0.00331536
0.00501
0.00680267
0.00868848
0.0106623
0.0127188
0.0148522
0.0170567
0.0193252
0.0216504
0.0240254
0.0264437
0.028899
0.0313845
0.0338927
0.0364162
0.0389478
0.0414796
0.0440032
0.0465114
0.048997
0.0514522
0.0538692
0.0562399
0.0585565
0.060812
0.0629998
0.0651127
0.0671429
0.0690835
0.0709286
0.0726727
0.0743104
0.0758363
0.0772456
0.078534
0.0796981
0.080736
0.0816455
0.0824243
0.0830704
0.0835833
0.0839642
0.0842152
0.0843383
0.0843359
0.084211
0.083968
0.083613
0.0831541
0.082601
0.0819643
0.0812546
0.0804832
0.0796632
0.07881
0.0779408
0.0770729
0.0762242
0.0754128
0.0746579
0.0739788
0.0733946
0.0729237
0.0725808
0.0723721
0.00390585
0.00358656
0.00318081
0.00268839
0.00210572
0.00144744
0.000731428
-2.48014e-05
-0.000804542
-0.00159167
-0.00237073
-0.00312726
-0.00384778
-0.00451963
-0.00513159
-0.00567384
-0.00613685
-0.00651225
-0.00679283
-0.00697187
-0.00704324
-0.00700199
-0.0068446
-0.00656894
-0.00617322
-0.00565635
-0.00501861
-0.00426046
-0.0033824
-0.0023857
-0.00127227
-4.46704e-05
0.00129409
0.00274071
0.00429107
0.00594058
0.00768486
0.00951927
0.0114388
0.0134382
0.0155122
0.0176549
0.0198589
0.0221174
0.0244243
0.0267735
0.0291583
0.0315723
0.0340084
0.0364595
0.0389183
0.0413768
0.0438274
0.0462633
0.0486773
0.0510616
0.0534087
0.0557111
0.0579616
0.0601531
0.0622792
0.0643327
0.0663061
0.0681929
0.0699876
0.0716849
0.0732794
0.0747657
0.0761393
0.0773964
0.078534
0.07955
0.0804424
0.0812086
0.0818471
0.0823577
0.0827417
0.0830008
0.0831369
0.083152
0.0830492
0.0828327
0.0825085
0.0820843
0.0815691
0.0809723
0.0803032
0.0795722
0.0787916
0.0779758
0.07714
0.0762996
0.0754695
0.0746655
0.0739041
0.0732025
0.0725776
0.072045
0.0716022
0.0712417
0.0052817
0.00477498
0.00423972
0.00365781
0.0030079
0.00230185
0.00155535
0.000782632
-1.80777e-06
-0.000783502
-0.00154962
-0.00228799
-0.00298626
-0.00363351
-0.00421996
-0.00473614
-0.00517351
-0.00552463
-0.00578286
-0.0059422
-0.00599698
-0.00594263
-0.00577615
-0.00549529
-0.00509826
-0.00458409
-0.00395306
-0.0032057
-0.00234232
-0.00136409
-0.000273056
0.000928543
0.00223769
0.00365071
0.00516389
0.00677322
0.00847421
0.0102624
0.0121334
0.0140822
0.016103
0.0181897
0.0203357
0.0225347
0.0247805
0.0270673
0.0293889
0.0317388
0.0341101
0.0364958
0.0388889
0.0412818
0.0436669
0.0460376
0.048387
0.0507076
0.0529919
0.0552331
0.0574243
0.0595586
0.0616295
0.0636299
0.0655525
0.0673914
0.0691413
0.070797
0.0723527
0.0738035
0.0751452
0.0763744
0.0774885
0.0784852
0.0793623
0.0801174
0.0807489
0.081257
0.081643
0.0819084
0.0820545
0.082083
0.0819972
0.0818016
0.081502
0.0811053
0.0806192
0.0800519
0.0794119
0.0787089
0.0779547
0.0771624
0.0763456
0.0755169
0.0746891
0.0738759
0.073092
0.0723525
0.0716722
0.0710635
0.0705074
0.0699828
0.00673967
0.00603948
0.00536619
0.00468441
0.00395581
0.00318939
0.00239973
0.00159782
0.000796374
7.28006e-06
-0.000758523
-0.00149003
-0.00217703
-0.00281023
-0.00338053
-0.00387913
-0.00429869
-0.00463246
-0.00487431
-0.00501893
-0.00506121
-0.00499717
-0.00482418
-0.00453987
-0.00414266
-0.00363199
-0.00300769
-0.00227022
-0.00142027
-0.000458726
0.000612445
0.00179062
0.00307312
0.00445662
0.00593703
0.00751042
0.009173
0.0109206
0.0127486
0.0146521
0.0166254
0.0186625
0.0207568
0.0229025
0.0250941
0.0273256
0.0295908
0.0318833
0.0341967
0.0365242
0.0388589
0.0411931
0.0435199
0.0458326
0.0481245
0.0503881
0.0526164
0.0548032
0.0569419
0.0590256
0.0610475
0.0630007
0.0648784
0.0666751
0.0683855
0.0700043
0.0715257
0.072945
0.0742585
0.0754632
0.0765566
0.0775364
0.0784001
0.0791453
0.0797704
0.0802759
0.080663
0.0809328
0.081086
0.0811243
0.0810513
0.0808718
0.080591
0.0802148
0.0797495
0.079202
0.0785806
0.0778948
0.0771558
0.0763753
0.0755645
0.0747338
0.0738942
0.073058
0.0722386
0.0714487
0.0707008
0.0700051
0.0693265
0.0686317
0.00824634
0.00735181
0.00653529
0.00574723
0.00493087
0.0040948
0.00325138
0.00241012
0.00158063
0.000772872
-3.18224e-06
-0.000738493
-0.00142447
-0.00205257
-0.00261475
-0.00310362
-0.00351235
-0.00383487
-0.00406572
-0.00420018
-0.00423399
-0.00416344
-0.00398607
-0.00369996
-0.00330373
-0.00279705
-0.00217958
-0.00145131
-0.000613347
0.000333022
0.00138644
0.0025443
0.00380327
0.00516028
0.00661195
0.00815424
0.00978308
0.0114947
0.0132851
0.015149
0.0170802
0.0190732
0.0211221
0.0232213
0.0253652
0.0275478
0.0297631
0.0320053
0.0342678
0.0365439
0.0388268
0.0411094
0.043385
0.0456468
0.0478879
0.0501013
0.0522804
0.0544196
0.0565123
0.0585517
0.0605307
0.0624426
0.0642811
0.066041
0.0677171
0.0693037
0.0707952
0.0721869
0.0734761
0.0746599
0.0757356
0.0767006
0.0775523
0.0782883
0.0789077
0.0794106
0.0797981
0.0800704
0.0802281
0.080273
0.0802092
0.0800415
0.0797741
0.0794115
0.0789586
0.0784222
0.0778105
0.0771328
0.0763992
0.0756196
0.074803
0.0739584
0.0730953
0.072225
0.0713594
0.0705085
0.0696834
0.0688926
0.0680859
0.0672183
0.00977244
0.00868599
0.00772473
0.00682495
0.00591533
0.00500205
0.00409727
0.00320786
0.00234111
0.00150571
0.000709776
-3.89832e-05
-0.000732716
-0.00136379
-0.00192544
-0.00241142
-0.00281535
-0.00313194
-0.00335653
-0.00348496
-0.00351378
-0.00343952
-0.00325969
-0.00297341
-0.00257954
-0.00207692
-0.00146575
-0.000746541
8.03679e-05
0.00101379
0.00205158
0.00319117
0.00442979
0.00576419
0.00719068
0.00870559
0.0103054
0.0119864
0.013744
0.0155728
0.0174673
0.0194222
0.021432
0.023491
0.0255933
0.0277334
0.0299055
0.0321039
0.0343221
0.0365533
0.0387914
0.0410295
0.0432608
0.0454784
0.0476755
0.0498454
0.0519822
0.0540805
0.0561338
0.0581348
0.0600767
0.061953
0.0637579
0.0654865
0.0671333
0.0686923
0.070158
0.0715265
0.0727954
0.0739618
0.0750225
0.0759744
0.0768151
0.0775431
0.0781574
0.078658
0.0790448
0.0793179
0.0794777
0.0795268
0.0794692
0.0793091
0.0790494
0.0786934
0.0782456
0.0777128
0.0771033
0.0764258
0.0756886
0.0748998
0.074067
0.073198
0.0723018
0.0713886
0.0704679
0.0695476
0.0686378
0.067746
0.066808
0.0657679
0.0112926
0.0100188
0.00891268
0.00789925
0.00689199
0.00589647
0.00492376
0.00397879
0.00306769
0.00219696
0.00137308
0.000603125
-0.000105843
-0.000747237
-0.00131521
-0.00180424
-0.00220879
-0.00252416
-0.00274673
-0.00287287
-0.0028994
-0.00282376
-0.0026438
-0.00235859
-0.00196767
-0.00146987
-0.000864743
-0.000153251
0.000663621
0.0015851
0.00260947
0.00373378
0.00495481
0.00626946
0.00767445
0.00916635
0.0107416
0.0123961
0.0141253
0.0159242
0.0177874
0.0197101
0.0216866
0.0237112
0.0257781
0.027882
0.0300173
0.0321781
0.0343583
0.0365513
0.0387514
0.040952
0.0431458
0.0453258
0.0474854
0.0496185
0.05172
0.0537842
0.0558042
0.0577725
0.0596828
0.0615293
0.0633065
0.0650092
0.0666313
0.0681672
0.0696116
0.0709614
0.0722142
0.0733664
0.0744141
0.0753545
0.0761859
0.0769071
0.0775172
0.0780151
0.0784003
0.0786725
0.0788328
0.078884
0.0788297
0.0786728
0.0784153
0.0780597
0.0776108
0.0770756
0.0764619
0.0757771
0.0750278
0.0742208
0.0733628
0.0724611
0.0715241
0.0705602
0.069577
0.0685805
0.0675803
0.0665839
0.0655134
0.0643025
0.0127852
0.0113294
0.0100806
0.00895271
0.00784515
0.00676346
0.00571754
0.00471148
0.00374959
0.00283678
0.0019787
0.00118144
0.000451039
-0.000206833
-0.000786825
-0.00128404
-0.00169395
-0.0020123
-0.00223639
-0.00236374
-0.00239073
-0.00231521
-0.0021369
-0.0018548
-0.00146721
-0.000973586
-0.000374529
0.000329387
0.00113772
0.00204943
0.0030623
0.00417333
0.00537948
0.0066778
0.00806509
0.00953784
0.0110923
0.0127245
0.0144299
0.0162037
0.0180411
0.0199371
0.0218859
0.0238818
0.0259193
0.0279932
0.0300976
0.032227
0.0343754
0.0365369
0.0387059
0.0408755
0.0430383
0.045187
0.0473158
0.0494193
0.0514922
0.0535286
0.0555209
0.0574623
0.059347
0.0611697
0.0629249
0.0646064
0.0662084
0.0677257
0.0691539
0.0704898
0.0717301
0.0728707
0.0739076
0.0748385
0.0756625
0.0763785
0.0769849
0.0774799
0.0778625
0.0781329
0.0782924
0.0783437
0.0782895
0.0781316
0.0778713
0.0775113
0.0770566
0.0765138
0.0758899
0.0751908
0.0744218
0.0735887
0.072698
0.0717568
0.0707723
0.0697513
0.0686996
0.0676216
0.0665271
0.0654235
0.0642205
0.0628414
0.0142324
0.0126009
0.0112124
0.00996948
0.00876052
0.00758966
0.00646683
0.00539485
0.00437659
0.00341637
0.00251888
0.00168908
0.000932221
0.000252955
-0.000343834
-0.000853322
-0.00127225
-0.00159785
-0.001827
-0.00195728
-0.00198701
-0.00191472
-0.00173951
-0.00146052
-0.00107673
-0.000587905
5.44699e-06
0.000702999
0.00150428
0.00240778
0.00341101
0.00451113
0.00570532
0.00699062
0.00836369
0.00982088
0.0113584
0.0129722
0.0146583
0.016412
0.0182288
0.0201032
0.0220297
0.0240026
0.0260167
0.0280663
0.0301457
0.0322495
0.0343725
0.0365091
0.0386536
0.0407986
0.0429363
0.0450604
0.0471654
0.0492462
0.0512969
0.0533111
0.0552817
0.0572022
0.0590677
0.0608725
0.0626106
0.0642756
0.0658623
0.0673663
0.0687833
0.0701094
0.0713405
0.0724722
0.0735008
0.074425
0.0752438
0.075956
0.076559
0.0770508
0.0774305
0.0776986
0.0778562
0.0779053
0.0778479
0.0776852
0.0774184
0.0770502
0.0765856
0.0760306
0.0753908
0.074671
0.0738755
0.07301
0.0720806
0.0710939
0.070056
0.0689724
0.0678471
0.0666837
0.065492
0.06428
0.0629451
0.0614007
0.0156204
0.0138192
0.0122931
0.0109365
0.00962493
0.00836321
0.00716068
0.00601876
0.00494003
0.00392819
0.0029869
0.00211984
0.0013318
0.000627668
1.08112e-05
-0.000515358
-0.000947123
-0.00128225
-0.00151898
-0.00165528
-0.00168998
-0.00162235
-0.00145139
-0.00117623
-0.000796599
-0.000312549
0.00027581
0.000968208
0.00176374
0.0026606
0.0036563
0.0047481
0.00593327
0.00720875
0.00857095
0.010016
0.0115402
0.0131399
0.0148112
0.0165498
0.0183506
0.0202086
0.0221182
0.0240738
0.0260699
0.0281006
0.0301605
0.0322449
0.034349
0.0364673
0.0385932
0.0407192
0.0428383
0.0449445
0.0470328
0.0490971
0.0511315
0.0531294
0.0550845
0.0569908
0.0588431
0.0606354
0.0623612
0.0640148
0.0655916
0.0670874
0.0684977
0.0698177
0.0710428
0.0721687
0.0731923
0.0741127
0.0749287
0.0756382
0.0762383
0.076727
0.0771036
0.0773688
0.0775232
0.0775681
0.0775047
0.0773342
0.0770579
0.0766785
0.0762003
0.0756285
0.0749676
0.0742213
0.0733939
0.0724906
0.0715175
0.0704801
0.0693836
0.0682323
0.0670296
0.0657777
0.0644869
0.0631657
0.0616999
0.0599928
0.0169378
0.0149711
0.0133108
0.0118409
0.0104264
0.00907246
0.00778774
0.00657366
0.00543197
0.00436474
0.00337541
0.00246798
0.00164567
0.000912495
0.000272093
-0.00027316
-0.000720842
-0.00106853
-0.00131489
-0.00145941
-0.00150134
-0.00143963
-0.0012735
-0.00100282
-0.000627711
-0.00014804
0.000436324
0.00112481
0.00191599
0.00280788
0.00379826
0.00488458
0.00606385
0.00733261
0.00868701
0.0101233
0.0116382
0.013228
0.0148891
0.016617
0.0184067
0.0202534
0.0221514
0.0240949
0.026078
0.0280951
0.0301415
0.0322129
0.0343044
0.03641
0.0385229
0.0406362
0.0427431
0.0448383
0.046916
0.0489699
0.0509937
0.0529817
0.0549279
0.0568263
0.0586712
0.0604562
0.062175
0.0638225
0.0653948
0.0668873
0.068295
0.0696125
0.0708351
0.0719588
0.072981
0.0739004
0.0747156
0.0754238
0.0760218
0.0765078
0.0768815
0.0771431
0.077293
0.0773319
0.0772605
0.0770799
0.0767915
0.0763979
0.0759026
0.0753098
0.0746232
0.0738461
0.0729822
0.0720368
0.0710153
0.0699226
0.0687628
0.0675398
0.066256
0.0649132
0.0635219
0.0620912
0.0604954
0.0586287
0.0181738
0.0160465
0.0142546
0.0126721
0.011154
0.00970647
0.00833869
0.00705035
0.00584281
0.00471828
0.00367856
0.00272708
0.00186771
0.00110319
0.00043599
-0.000131439
-0.000597046
-0.000959362
-0.00121795
-0.00137289
-0.0014234
-0.00136833
-0.00120767
-0.000942134
-0.000571638
-9.54816e-05
0.00048615
0.00117187
0.00195998
0.0028489
0.00383671
0.00492052
0.00609676
0.00736166
0.00871153
0.0101429
0.0116526
0.0132369
0.014892
0.0166137
0.0183972
0.0202377
0.0221291
0.0240652
0.0260404
0.0280497
0.0300887
0.0321531
0.0342376
0.0363359
0.0384418
0.0405486
0.0426501
0.0447403
0.0468133
0.0488625
0.0508821
0.0528668
0.0548106
0.0567072
0.0585501
0.0603332
0.0620506
0.0636978
0.0652706
0.0667644
0.0681734
0.0694922
0.0707161
0.0718415
0.0728658
0.0737872
0.0746036
0.075312
0.0759091
0.0763931
0.076764
0.0770218
0.0771664
0.077198
0.077117
0.0769245
0.0766218
0.0762109
0.0756951
0.0750778
0.074362
0.0735504
0.0726465
0.071655
0.070581
0.0694288
0.068202
0.0669038
0.0655362
0.0641003
0.0626073
0.0610669
0.0593423
0.0573186
0.0193196
0.0170359
0.015114
0.0134204
0.0117991
0.0102569
0.0088045
0.00744081
0.00616553
0.00498083
0.00388881
0.00289157
0.00199232
0.00119364
0.000497472
-9.42248e-05
-0.000579846
-0.000959051
-0.00123221
-0.00139904
-0.00145869
-0.00141103
-0.00125692
-0.000996822
-0.000630095
-0.000156342
0.000423366
0.0011073
0.00189418
0.00278282
0.0037709
0.00485485
0.00603074
0.00729494
0.00864401
0.0100746
0.0115831
0.0131659
0.0148195
0.0165398
0.018322
0.0201609
0.0220503
0.023984
0.0259569
0.0279641
0.0300015
0.0320645
0.0341474
0.0362442
0.0383492
0.0404559
0.042558
0.0446491
0.046723
0.0487736
0.0507954
0.0527832
0.0547307
0.0566312
0.058478
0.060265
0.0619868
0.063639
0.0652174
0.0667169
0.0681314
0.0694554
0.0706848
0.071816
0.0728458
0.073772
0.0745918
0.075302
0.0758995
0.0763829
0.0767517
0.0770059
0.0771449
0.0771684
0.0770768
0.0768708
0.0765515
0.076121
0.0755819
0.0749371
0.0741892
0.0733403
0.0723933
0.0713523
0.0702222
0.0690072
0.0677103
0.0663341
0.0648802
0.0633495
0.0617537
0.0601033
0.0582511
0.0560726
0.0203675
0.0179295
0.0158805
0.0140767
0.0123525
0.0107163
0.00917794
0.00773693
0.00639275
0.00514625
0.00399948
0.00295448
0.00201329
0.00117822
0.000451287
-0.000166374
-0.000674343
-0.00107272
-0.00136169
-0.00154102
-0.00161076
-0.00157171
-0.00142461
-0.00116928
-0.000805315
-0.000333317
0.000245165
0.000928889
0.00171707
0.00260816
0.00359902
0.00468561
0.00586415
0.00713127
0.0084835
0.00991714
0.0114286
0.0130144
0.0146711
0.0163947
0.0181803
0.0200222
0.0219143
0.0238509
0.025827
0.0278381
0.0298794
0.0319463
0.0340333
0.0361346
0.0382447
0.0403574
0.0424659
0.0445635
0.0466442
0.0487023
0.0507325
0.0527295
0.0546866
0.0565967
0.0584531
0.0602499
0.0619818
0.0636445
0.0652335
0.0667431
0.0681674
0.0695011
0.0707402
0.0718809
0.0729197
0.0738536
0.0746792
0.0753932
0.075993
0.0764771
0.0768453
0.0770967
0.0772304
0.0772456
0.0771423
0.0769213
0.0765839
0.0761318
0.0755673
0.0748929
0.0741103
0.0732214
0.0722283
0.071135
0.0699461
0.0686654
0.0672959
0.0658394
0.064297
0.0626698
0.0609702
0.0592096
0.0572306
0.0548992
0.0213101
0.0187201
0.0165452
0.0146327
0.0128062
0.0110755
0.00945112
0.00793173
0.00651697
0.00520736
0.0040041
0.00290906
0.00192418
0.00105139
0.000291875
-0.000353945
-0.000886184
-0.00130495
-0.00161039
-0.00180312
-0.00188418
-0.00185435
-0.00171372
-0.00146224
-0.0011005
-0.000629787
-5.11764e-05
0.00063471
0.00142683
0.00232271
0.00331862
0.00441063
0.00559529
0.00686921
0.00822851
0.00966924
0.0111878
0.0127811
0.0144457
0.0161774
0.0179709
0.0198205
0.0217205
0.0236655
0.0256506
0.027671
0.0297218
0.0317982
0.033895
0.0360069
0.0381283
0.0402528
0.0423733
0.0444831
0.0465764
0.0486481
0.0506928
0.0527048
0.0546772
0.0566025
0.0584742
0.0602866
0.0620345
0.063713
0.0653174
0.0668419
0.0682806
0.0696284
0.0708812
0.0720352
0.0730863
0.0740306
0.0748646
0.075585
0.0761892
0.0766763
0.0770454
0.0772953
0.0774242
0.0774309
0.0773154
0.0770786
0.0767219
0.0762468
0.0756554
0.0749493
0.0741298
0.0731981
0.0721565
0.0710085
0.0697586
0.0684102
0.0669657
0.0654264
0.0637936
0.0620684
0.0602642
0.0583933
0.0562877
0.0538048
0.0221417
0.019402
0.0171014
0.0150809
0.0131529
0.0113273
0.00961617
0.0080177
0.00653108
0.00515671
0.00389546
0.0027489
0.0017189
0.000806781
1.2855e-05
-0.000662967
-0.00122062
-0.0016603
-0.00198304
-0.00219041
-0.00228347
-0.00226236
-0.00212726
-0.00187913
-0.00151936
-0.00104879
-0.000467794
0.000222858
0.00102113
0.00192379
0.00292723
0.00402794
0.00522249
0.00650701
0.00787722
0.00932913
0.0108594
0.0124649
0.0141421
0.0158864
0.0176924
0.0195549
0.0214683
0.0234274
0.0254272
0.0274625
0.0295282
0.0316199
0.0337327
0.0358613
0.0380001
0.0401421
0.0422802
0.044408
0.0465201
0.0486113
0.0506763
0.052709
0.054702
0.0566481
0.0585409
0.0603747
0.062144
0.0638437
0.0654685
0.0670125
0.0684702
0.0698365
0.0711074
0.0722784
0.0733448
0.0743024
0.0751475
0.075877
0.0764886
0.076981
0.077353
0.0776025
0.0777273
0.0777258
0.0775981
0.0773453
0.0769689
0.0764702
0.0758505
0.0751108
0.074252
0.0732752
0.0721829
0.0709785
0.0696658
0.0682476
0.0667256
0.0651013
0.0633762
0.0615516
0.0596421
0.0576605
0.0554283
0.0527946
0.0228576
0.0199688
0.0175439
0.0154151
0.0133852
0.0114647
0.00966596
0.00798732
0.0064277
0.00498721
0.0036666
0.00246737
0.00139092
0.000437683
-0.000392289
-0.00109899
-0.00168255
-0.00214394
-0.00248513
-0.00270778
-0.00281233
-0.00279895
-0.00266885
-0.0024239
-0.00206511
-0.00159252
-0.00100656
-0.000309044
0.000497099
0.00140871
0.00242272
0.00353574
0.00474384
0.00604256
0.00742749
0.00889491
0.0104416
0.012064
0.0137583
0.0155198
0.0173434
0.0192242
0.0211568
0.0231358
0.0251558
0.0272114
0.0292979
0.0314109
0.033546
0.0356976
0.0378597
0.0400251
0.0421868
0.0443387
0.0464756
0.0485923
0.0506832
0.0527419
0.0547611
0.0567335
0.0586531
0.060514
0.0623103
0.0640363
0.0656863
0.0672547
0.068736
0.0701255
0.0714186
0.0726102
0.0736952
0.0746691
0.0755284
0.0762701
0.0768921
0.0773925
0.0777693
0.0780197
0.0781412
0.0781323
0.0779933
0.0777253
0.0773295
0.0768065
0.0761572
0.0753821
0.0744821
0.0734585
0.072314
0.0710517
0.0696743
0.068184
0.0665822
0.0648709
0.0630517
0.0611266
0.0591109
0.0570178
0.0546587
0.0518742
0.0234516
0.0204145
0.0178658
0.0156287
0.0134963
0.0114802
0.00959318
0.00783319
0.00619925
0.00469168
0.00331085
0.00205765
0.000933076
-6.25619e-05
-0.000929292
-0.00166728
-0.00227745
-0.00276162
-0.0031218
-0.00335913
-0.00347414
-0.00346799
-0.00334277
-0.00310007
-0.00274008
-0.00226287
-0.00166993
-0.000964068
-0.000148181
0.000775215
0.00180326
0.00293206
0.00415698
0.00547338
0.00687707
0.0083645
0.00993213
0.011576
0.0132919
0.0150753
0.0169218
0.0188266
0.0207841
0.0227885
0.0248343
0.026916
0.0290293
0.0311701
0.0333338
0.0355145
0.0377059
0.0399007
0.0420922
0.0442746
0.0464428
0.048591
0.0507133
0.0528034
0.0548542
0.0568587
0.0588108
0.0607044
0.0625331
0.0642905
0.0659708
0.0675685
0.0690784
0.0704956
0.071815
0.073031
0.074138
0.0751316
0.0760085
0.076766
0.0774015
0.0779124
0.0782957
0.0785485
0.0786682
0.0786535
0.0785048
0.0782229
0.077808
0.0772604
0.0765804
0.0757686
0.0748262
0.0737549
0.0725569
0.0712349
0.0697909
0.0682261
0.0665425
0.0647423
0.0628277
0.0608008
0.0586775
0.0564718
0.0539851
0.0510492
0.0239173
0.0207325
0.0180596
0.0157143
0.0134791
0.0113663
0.00938993
0.00754782
0.00583875
0.00426305
0.00282088
0.00151253
0.000338717
-0.00069989
-0.00160366
-0.0023736
-0.00301129
-0.00351861
-0.00389712
-0.00414809
-0.00427304
-0.00427399
-0.00415276
-0.00391012
-0.00354629
-0.00306245
-0.00246121
-0.00174536
-0.000917039
2.15094e-05
0.00106688
0.00221442
0.00345929
0.0047971
0.00622386
0.00773572
0.00932853
0.010998
0.0127399
0.0145505
0.0164255
0.01836
0.0203479
0.0223831
0.02446
0.0265738
0.0287203
0.0308953
0.0330938
0.0353098
0.0375365
0.039767
0.0419949
0.0442146
0.0464202
0.0486059
0.0507654
0.0528926
0.0549808
0.0570234
0.0590139
0.0609456
0.0628116
0.0646055
0.0663213
0.0679537
0.0694973
0.0709468
0.0722968
0.0735409
0.0746737
0.0756909
0.0765894
0.0773661
0.078018
0.0785417
0.0789336
0.0791908
0.0793107
0.0792925
0.0791361
0.0788415
0.0784082
0.0778357
0.0771242
0.0762751
0.0752899
0.0741702
0.0729178
0.0715344
0.0700213
0.0683801
0.0666128
0.0647223
0.0627109
0.0605806
0.0583482
0.0560284
0.0534127
0.0503241
0.0242493
0.0209162
0.0181187
0.0156644
0.0133254
0.0111151
0.00904861
0.00712375
0.00533886
0.00369402
0.00218932
0.000825085
-0.000398121
-0.00148003
-0.00242145
-0.00322403
-0.0038894
-0.00441914
-0.004815
-0.00507914
-0.00521384
-0.00522093
-0.00510148
-0.00485625
-0.00448662
-0.00399492
-0.00338381
-0.00265531
-0.00181124
-0.000854365
0.000211061
0.00138016
0.00264846
0.00401182
0.00546591
0.00700614
0.00862791
0.0103271
0.0121
0.0139432
0.0158523
0.0178217
0.0198451
0.0219163
0.0240302
0.0261823
0.0283684
0.0305838
0.0328232
0.0350803
0.0373487
0.0396218
0.041893
0.0441564
0.0464058
0.0486349
0.0508376
0.0530081
0.05514
0.0572267
0.0592613
0.0612364
0.0631449
0.0649803
0.0667371
0.0684096
0.0699922
0.0714788
0.0728635
0.07414
0.0753029
0.076348
0.0772721
0.0780716
0.0787427
0.0792815
0.0796844
0.0799485
0.0800715
0.0800522
0.07989
0.0795839
0.0791327
0.0785355
0.0777928
0.0769066
0.0758785
0.07471
0.0734019
0.0719552
0.0703714
0.068652
0.0667996
0.0648173
0.0627074
0.060472
0.0581286
0.055693
0.0529461
0.0497032
0.0244414
0.0209588
0.0180356
0.0154712
0.0130278
0.0107192
0.00856181
0.00655335
0.00469178
0.00297709
0.00140943
-1.09762e-05
-0.00128375
-0.00240936
-0.00338896
-0.00422412
-0.00491641
-0.00546767
-0.00588045
-0.00615754
-0.006301
-0.006312
-0.00619169
-0.00594194
-0.00556529
-0.0050642
-0.00444056
-0.00369604
-0.00283305
-0.00185526
-0.00076714
0.000426841
0.00172256
0.00311556
0.00460072
0.00617285
0.00782746
0.00956093
0.0113701
0.0132513
0.0151994
0.0172085
0.0192724
0.0213853
0.0235423
0.025739
0.0279707
0.0302323
0.0325184
0.0348228
0.0371395
0.039462
0.0417834
0.044097
0.0463963
0.0486751
0.0509275
0.0531479
0.05533
0.0574669
0.0595511
0.061575
0.0635313
0.0654139
0.0672173
0.0689355
0.0705623
0.0720909
0.0735149
0.0748284
0.0760261
0.0771038
0.0780577
0.0788836
0.079577
0.0801338
0.0805507
0.0808248
0.080954
0.0809362
0.0807699
0.0804533
0.0799849
0.079364
0.0785913
0.0776687
0.076598
0.07538
0.074015
0.0725037
0.0708477
0.069049
0.0671102
0.0650346
0.0628244
0.0604818
0.0580254
0.0554715
0.0525911
0.0491914
0.0244867
0.0208534
0.017803
0.0151273
0.0125786
0.0101712
0.00792179
0.00582884
0.0038901
0.00210521
0.000474416
-0.00100228
-0.00232504
-0.00349455
-0.00451208
-0.00537913
-0.00609753
-0.00666989
-0.0070993
-0.00738829
-0.00753834
-0.00755072
-0.00742765
-0.00717216
-0.00678694
-0.00627377
-0.00563419
-0.00487049
-0.00398602
-0.00298474
-0.00187067
-0.000647822
0.000679358
0.00210557
0.00362507
0.00523275
0.00692466
0.00869754
0.0105481
0.012472
0.0144637
0.0165173
0.018627
0.0207874
0.0229937
0.0252408
0.0275237
0.0298371
0.0321758
0.034534
0.0369057
0.0392843
0.0416622
0.0440323
0.046388
0.0487232
0.0510324
0.0533097
0.0555486
0.0577415
0.059881
0.0619593
0.0639695
0.0659053
0.0677612
0.0695308
0.0712069
0.0727826
0.0742513
0.0756071
0.0768448
0.0779599
0.0789479
0.0798039
0.0805232
0.0811018
0.0815363
0.081824
0.0819623
0.0819485
0.08178
0.0814544
0.0809702
0.0803271
0.0795259
0.0785681
0.077455
0.076187
0.0747641
0.0731872
0.0714583
0.0695792
0.0675526
0.065382
0.0630697
0.0606177
0.0580457
0.055371
0.0523545
0.0487947
0.0243788
0.020593
0.0174141
0.0146256
0.0119704
0.00946303
0.00712095
0.00494273
0.00292644
0.00107127
-0.000622931
-0.00215617
-0.00352895
-0.00474204
-0.00579679
-0.00669504
-0.0074392
-0.00803227
-0.00847717
-0.00877594
-0.00893018
-0.00894214
-0.00881509
-0.00855226
-0.00815575
-0.00762708
-0.00696839
-0.00618296
-0.00527447
-0.00424643
-0.00310236
-0.00184655
-0.000484339
0.000978271
0.00253561
0.00418319
0.00591742
0.00773482
0.00963145
0.0116024
0.0136423
0.0157455
0.0179067
0.0201206
0.0223818
0.0246847
0.0270241
0.0293951
0.0317926
0.0342111
0.0366444
0.0390852
0.0415258
0.0439587
0.0463775
0.0487764
0.0511495
0.0534908
0.0557929
0.0580481
0.0602488
0.0623878
0.0644583
0.0664539
0.0683685
0.070195
0.071926
0.0735543
0.0750734
0.0764773
0.0777606
0.0789181
0.0799447
0.0808352
0.0815848
0.0821893
0.0826457
0.0829507
0.0831012
0.0830937
0.0829249
0.0825924
0.0820946
0.0814312
0.0806031
0.0796111
0.0784557
0.0771373
0.075656
0.0740131
0.0722103
0.0702497
0.0681341
0.0658669
0.0634504
0.0608867
0.0581965
0.0553981
0.0522426
0.0485189
0.0241114
0.0201707
0.0168618
0.0139589
0.0111954
0.00858715
0.0061518