/*--------------------------------*- C++ -*----------------------------------*\
  =========                 |
  \\      /  F ield         | OpenFOAM: The Open Source CFD Toolbox
   \\    /   O peration     | Website:  https://openfoam.org
    \\  /    A nd           | Version:  11
     \\/     M anipulation  |
\*---------------------------------------------------------------------------*/
FoamFile
{
    format      ascii;
    class       volScalarField;
    location    "8.8";
    object      p;
}
// * * * * * * * * * * * * * * * * * * * * * * * * * * * * * * * * * * * * * //

dimensions      [0 2 -2 0 0 0 0];

internalField   nonuniform List<scalar> 
10100
(
-4.53205e-08
9.30256e-05
-0.000126144
-0.000706198
-0.00159857
-0.00274643
-0.00409264
-0.00558238
-0.0071668
-0.0088027
-0.0104522
-0.0120824
-0.0136643
-0.015173
-0.0165871
-0.0178883
-0.0190608
-0.0200911
-0.020968
-0.0216819
-0.0222254
-0.0225925
-0.0227788
-0.0227808
-0.0225966
-0.0222251
-0.0216663
-0.0209215
-0.0199926
-0.0188826
-0.0175949
-0.0161336
-0.0145036
-0.01271
-0.0107588
-0.00865641
-0.00640985
-0.00402657
-0.00151451
0.00111794
0.0038621
0.00670897
0.00964928
0.0126734
0.0157712
0.0189327
0.0221474
0.0254045
0.0286931
0.0320023
0.0353212
0.0386388
0.041944
0.0452253
0.0484717
0.0516717
0.0548142
0.0578882
0.0608826
0.0637867
0.0665904
0.0692835
0.0718559
0.0742979
0.0766004
0.0787546
0.0807524
0.0825862
0.0842492
0.0857352
0.0870386
0.0881548
0.08908
0.0898111
0.0903461
0.0906844
0.0908264
0.0907737
0.0905292
0.0900972
0.0894836
0.088696
0.0877436
0.0866375
0.0853907
0.0840187
0.082539
0.080972
0.0793407
0.0776717
0.0759949
0.0743442
0.0727577
0.0712784
0.0699543
0.0688375
0.067981
0.0674356
0.0672433
0.0673517
-9.01644e-05
-1.28287e-06
-0.000217488
-0.000737737
-0.00151203
-0.00250082
-0.00366204
-0.00495282
-0.0063326
-0.00776447
-0.009215
-0.0106543
-0.0120556
-0.0133956
-0.0146539
-0.0158128
-0.016857
-0.0177734
-0.0185506
-0.0191793
-0.0196519
-0.0199621
-0.0201053
-0.0200779
-0.0198774
-0.0195026
-0.0189531
-0.0182297
-0.017334
-0.0162681
-0.0150354
-0.0136394
-0.0120845
-0.0103755
-0.00851786
-0.00651759
-0.00438112
-0.00211539
0.000272163
0.00277355
0.00538065
0.00808499
0.0108776
0.0137496
0.0166914
0.0196935
0.0227459
0.0258383
0.0289604
0.0321018
0.0352523
0.0384014
0.0415384
0.0446528
0.0477338
0.0507707
0.0537528
0.0566698
0.0595113
0.0622673
0.0649281
0.0674843
0.0699262
0.0722449
0.0744317
0.0764788
0.0783784
0.0801235
0.081708
0.0831262
0.084373
0.0854443
0.0863368
0.087048
0.0875764
0.0879214
0.0880839
0.0880661
0.0878708
0.0875026
0.0869675
0.0862731
0.0854286
0.0844448
0.0833344
0.0821124
0.0807957
0.0794035
0.0779578
0.076483
0.0750069
0.0735598
0.0721756
0.0708909
0.0697455
0.0687805
0.0680344
0.0675426
0.0673512
0.0674599
0.000130496
0.000210824
-7.64739e-06
-0.000497656
-0.00120501
-0.00209695
-0.00313971
-0.00429765
-0.00553653
-0.00682416
-0.00813105
-0.00943006
-0.0106969
-0.0119097
-0.0130494
-0.014099
-0.015044
-0.0158716
-0.0165709
-0.0171326
-0.0175491
-0.0178143
-0.0179233
-0.0178724
-0.0176589
-0.0172814
-0.0167394
-0.0160332
-0.0151642
-0.0141343
-0.0129462
-0.0116033
-0.0101095
-0.00846941
-0.0066881
-0.00477111
-0.0027245
-0.000554869
0.00173081
0.00412502
0.00661997
0.00920767
0.0118796
0.014627
0.0174412
0.0203128
0.0232324
0.0261901
0.029176
0.0321801
0.0351929
0.0382043
0.0412041
0.0441821
0.0471282
0.050032
0.0528834
0.0556725
0.0583895
0.061025
0.0635698
0.0660147
0.0683508
0.0705694
0.0726627
0.074623
0.0764432
0.0781168
0.0796379
0.0810014
0.0822026
0.0832378
0.0841041
0.0847992
0.0853219
0.0856721
0.0858508
0.0858602
0.0857036
0.0853854
0.0849116
0.0842899
0.083529
0.0826396
0.081634
0.0805263
0.0793329
0.078072
0.0767638
0.0754314
0.0740998
0.0727967
0.0715519
0.0703974
0.069367
0.068495
0.0678127
0.0673499
0.067159
0.0672684
0.000704477
0.000723223
0.000471592
-1.96998e-05
-0.000701067
-0.00154282
-0.0025159
-0.00358959
-0.00473426
-0.00592184
-0.00712587
-0.00832205
-0.00948819
-0.0106043
-0.0116525
-0.0126171
-0.013484
-0.0142412
-0.0148782
-0.0153861
-0.0157576
-0.0159864
-0.0160677
-0.0159977
-0.0157739
-0.0153944
-0.0148588
-0.0141673
-0.0133209
-0.0123214
-0.0111711
-0.00987331
-0.0084315
-0.0068499
-0.00513336
-0.00328714
-0.00131692
0.000770962
0.00296985
0.00527273
0.00767215
0.0101604
0.0127294
0.0153708
0.0180762
0.0208367
0.023643
0.0264858
0.0293557
0.0322431
0.0351388
0.0380331
0.0409162
0.0437783
0.0466097
0.0494006
0.0521411
0.0548219
0.0574336
0.0599671
0.0624137
0.0647647
0.0670114
0.0691458
0.0711602
0.0730476
0.0748011
0.0764145
0.0778825
0.0792001
0.0803631
0.081368
0.0822121
0.0828935
0.0834111
0.083765
0.0839565
0.0839877
0.083862
0.0835837
0.0831588
0.0825947
0.0818999
0.0810846
0.0801605
0.0791412
0.0780422
0.0768803
0.0756746
0.0744461
0.0732178
0.0720146
0.070863
0.0697912
0.0688287
0.0680053
0.0673484
0.0668855
0.0666669
0.0667254
0.00158463
0.00148756
0.00116791
0.000647829
-3.53642e-05
-0.00085568
-0.00178751
-0.00280464
-0.00388146
-0.00499343
-0.00611728
-0.00723118
-0.00831515
-0.00935097
-0.0103224
-0.0112146
-0.0120147
-0.0127112
-0.0132941
-0.0137551
-0.014087
-0.0142838
-0.0143409
-0.0142544
-0.0140217
-0.0136412
-0.013112
-0.0124344
-0.0116092
-0.010638
-0.00952293
-0.00826695
-0.00687342
-0.00534629
-0.00369002
-0.00190961
-1.0519e-05
0.0020013
0.00411947
0.00633729
0.00864773
0.0110433
0.0135164
0.0160592
0.0186633
0.0213203
0.0240212
0.0267571
0.029519
0.0322979
0.0350847
0.0378702
0.0406448
0.0433993
0.0461243
0.0488103
0.051448
0.0540284
0.0565427
0.058982
0.0613379
0.063602
0.0657662
0.0678228
0.0697647
0.0715848
0.0732769
0.074835
0.076254
0.0775294
0.0786572
0.0796341
0.0804575
0.0811259
0.0816382
0.0819949
0.0821971
0.0822472
0.0821481
0.0819045
0.081522
0.0810077
0.0803698
0.0796178
0.078763
0.0778183
0.076798
0.0757179
0.0745955
0.0734499
0.0723019
0.071174
0.0700895
0.0690734
0.0681512
0.0673488
0.0666903
0.0662008
0.0659196
0.0658719
0.00272035
0.00246824
0.00205159
0.00147823
0.00076811
-5.58603e-05
-0.000971707
-0.00195688
-0.00298948
-0.00404815
-0.00511252
-0.00616333
-0.00718264
-0.00815398
-0.00906255
-0.009895
-0.0106392
-0.0112845
-0.0118218
-0.0122429
-0.012541
-0.0127105
-0.0127468
-0.0126464
-0.0124066
-0.0120258
-0.0115032
-0.0108389
-0.0100336
-0.00908868
-0.00800623
-0.00678892
-0.00543995
-0.00396305
-0.00236242
-0.000642756
0.00119064
0.00313217
0.00517586
0.00731518
0.00954338
0.0118535
0.014238
0.0166896
0.0192002
0.0217616
0.0243652
0.0270025
0.0296649
0.0323437
0.0350302
0.0377153
0.0403901
0.0430456
0.0456727
0.0482623
0.0508056
0.053294
0.0557189
0.0580718
0.0603445
0.0625292
0.064618
0.0666035
0.068479
0.0702379
0.0718738
0.0733814
0.0747557
0.0759926
0.0770881
0.0780391
0.0788434
0.0794994
0.0800064
0.0803647
0.0805756
0.0806412
0.0805647
0.0803504
0.0800037
0.0795314
0.0789412
0.0782421
0.0774447
0.0765611
0.0756046
0.0745897
0.0735324
0.07245
0.0713613
0.0702862
0.0692455
0.0682608
0.0673544
0.0665483
0.065864
0.0653235
0.0649503
0.0647561
0.00406102
0.00362858
0.00309267
0.00244501
0.00168632
0.000836148
-8.5966e-05
-0.00106139
-0.0020713
-0.00309727
-0.00412158
-0.00512736
-0.00609865
-0.00702082
-0.00788045
-0.00866535
-0.00936456
-0.00996834
-0.0104681
-0.0108563
-0.0111265
-0.0112735
-0.0112929
-0.0111813
-0.0109362
-0.0105562
-0.0100403
-0.00938856
-0.00860178
-0.00768118
-0.00662867
-0.0054468
-0.00413857
-0.00270748
-0.00115762
0.000506558
0.00228006
0.00415746
0.00613311
0.0082008
0.010354
0.012586
0.0148899
0.0172583
0.0196836
0.0221577
0.0246726
0.0272201
0.0297919
0.0323796
0.0349747
0.0375687
0.0401527
0.0427182
0.0452565
0.0477587
0.0502164
0.0526214
0.0549654
0.0572402
0.0594378
0.0615507
0.0635714
0.0654929
0.0673087
0.0690122
0.0705976
0.0720597
0.0733938
0.0745958
0.075662
0.0765895
0.0773762
0.0780205
0.0785219
0.0788807
0.0790981
0.0791762
0.079118
0.0789275
0.0786101
0.0781719
0.0776203
0.0769637
0.076212
0.0753764
0.0744691
0.0735035
0.0724939
0.071456
0.0704068
0.0693638
0.0683453
0.0673702
0.0664574
0.0656257
0.0648942
0.064282
0.0637943
0.0634271
0.00555898
0.00493045
0.00425934
0.00352072
0.00269555
0.00180064
0.000853234
-0.000131185
-0.00113691
-0.00214814
-0.00314949
-0.00412619
-0.0050644
-0.00595112
-0.0067743
-0.00752305
-0.00818743
-0.00875851
-0.00922844
-0.00959032
-0.00983826
-0.00996724
-0.00997322
-0.0098531
-0.00960459
-0.00922617
-0.00871717
-0.00807759
-0.00730809
-0.00640994
-0.0053849
-0.00423539
-0.00296431
-0.00157495
-7.12321e-05
0.0015425
0.00326155
0.00508074
0.00699457
0.00899711
0.0110822
0.0132434
0.015474
0.0177669
0.0201146
0.0225096
0.024944
0.0274101
0.0298998
0.032405
0.0349174
0.0374289
0.0399309
0.0424151
0.0448731
0.0472965
0.0496772
0.0520072
0.0542784
0.0564829
0.058613
0.0606616
0.0626213
0.0644855
0.0662477
0.0679017
0.0694418
0.0708631
0.0721611
0.0733318
0.0743717
0.0752778
0.0760482
0.0766816
0.0771773
0.0775355
0.0777573
0.0778448
0.0778009
0.0776293
0.0773349
0.0769237
0.0764022
0.0757785
0.0750617
0.074262
0.0733908
0.0724599
0.0714825
0.0704727
0.0694455
0.0684165
0.0674017
0.0664172
0.0654793
0.0646036
0.0638073
0.0631068
0.0624882
0.0619316
0.00717102
0.00633785
0.00552059
0.00467849
0.00377265
0.00281781
0.00182946
0.000820182
-0.000197077
-0.0012089
-0.00220208
-0.00316389
-0.00408223
-0.00494573
-0.00574379
-0.00646669
-0.00710543
-0.00765199
-0.00809925
-0.00844095
-0.00867169
-0.00878686
-0.00878279
-0.00865666
-0.00840638
-0.00803058
-0.00752869
-0.00690078
-0.00614745
-0.00526996
-0.00427006
-0.00315002
-0.00191263
-0.000561118
0.000900777
0.0024689
0.00413871
0.00590527
0.00776322
0.00970688
0.0117304
0.0138277
0.0159921
0.0182167
0.0204945
0.022818
0.0251799
0.0275726
0.0299883
0.0324192
0.0348573
0.0372946
0.0397229
0.0421341
0.0445202
0.046873
0.0491848
0.0514478
0.0536539
0.0557957
0.0578657
0.059857
0.0617625
0.0635757
0.0652902
0.0669002
0.0684002
0.0697852
0.0710512
0.0721939
0.0732101
0.074097
0.0748527
0.0754758
0.0759655
0.076322
0.0765464
0.0766406
0.0766073
0.0764499
0.076173
0.0757819
0.0752829
0.0746834
0.0739916
0.073217
0.0723698
0.0714608
0.0705019
0.0695056
0.0684852
0.0674545
0.0664273
0.0654175
0.0644387
0.0635039
0.0626286
0.0618271
0.0610666
0.0603114
0.00885958
0.00781797
0.00684771
0.00589283
0.00489556
0.0038687
0.00282651
0.00177903
0.00073687
-0.000288712
-0.00128662
-0.00224595
-0.00315616
-0.00400741
-0.00479048
-0.00549676
-0.00611822
-0.00664769
-0.00707884
-0.00740602
-0.0076243
-0.00772958
-0.00771858
-0.00758876
-0.00733826
-0.00696593
-0.00647132
-0.00585459
-0.00511638
-0.00425789
-0.00328086
-0.0021875
-0.00098053
0.000336898
0.00176118
0.00328835
0.00491396
0.00663321
0.00844101
0.0103319
0.0123003
0.0143402
0.0164452
0.0186087
0.0208237
0.0230834
0.0253804
0.0277075
0.0300571
0.0324216
0.0347934
0.0371646
0.0395272
0.0418735
0.0441957
0.046486
0.0487367
0.0509402
0.0530888
0.0551752
0.0571922
0.059133
0.0609908
0.062759
0.0644317
0.0660031
0.0674678
0.0688211
0.0700587
0.0711769
0.0721721
0.0730419
0.0737842
0.0743976
0.0748813
0.0752353
0.0754607
0.0755592
0.0755331
0.0753857
0.075121
0.074744
0.0742605
0.0736771
0.0730014
0.0722421
0.0714082
0.0705097
0.069557
0.0685613
0.0675345
0.0664885
0.0654351
0.0643863
0.0633535
0.0623474
0.0613821
0.0604702
0.0595605
0.0586027
0.0105922
0.00934165
0.00821441
0.0071403
0.00604335
0.00493508
0.00382862
0.00273193
0.00165362
0.000602927
-0.000410835
-0.00137843
-0.00229087
-0.00313966
-0.00391679
-0.00461469
-0.00522639
-0.00574554
-0.00616651
-0.00648428
-0.00669446
-0.00679344
-0.00677835
-0.00664696
-0.00639765
-0.00602954
-0.00554233
-0.00493627
-0.00421205
-0.00337089
-0.00241453
-0.0013452
-0.000165495
0.00112154
0.00251232
0.00400298
0.00558923
0.0072664
0.00902961
0.0108736
0.012793
0.014782
0.0168343
0.0189434
0.0211029
0.0233059
0.0255454
0.0278144
0.0301056
0.0324115
0.0347247
0.0370376
0.0393424
0.0416316
0.0438977
0.0461331
0.0483302
0.0504817
0.0525801
0.0546181
0.056589
0.0584859
0.0603022
0.0620315
0.0636679
0.0652059
0.0666401
0.0679659
0.0691791
0.0702759
0.071253
0.0721077
0.0728381
0.0734425
0.0739202
0.0742711
0.0744961
0.0745966
0.0745748
0.0744335
0.0741764
0.073808
0.0733336
0.0727591
0.0720915
0.0713386
0.0705086
0.0696104
0.0686532
0.067647
0.0666021
0.0655289
0.0644376
0.0633385
0.062241
0.0611538
0.0600899
0.0590608
0.0579979
0.0568367
0.0123408
0.010883
0.00959714
0.00839939
0.00719671
0.00599965
0.00482063
0.00366579
0.00254186
0.00145644
0.000417301
-0.000567921
-0.00149165
-0.00234656
-0.00312572
-0.00382266
-0.00443132
-0.00494621
-0.00536233
-0.00567527
-0.00588128
-0.00597723
-0.00596057
-0.00582943
-0.00558258
-0.00521933
-0.00473955
-0.00414355
-0.00343218
-0.00260674
-0.00166891
-0.000620907
0.000534654
0.00179481
0.00315606
0.00461458
0.00616617
0.00780633
0.00953037
0.0113333
0.0132097
0.0151539
0.0171598
0.0192214
0.0213322
0.0234856
0.0256749
0.0278931
0.0301332
0.032388
0.0346502
0.0369123
0.0391669
0.0414066
0.0436242
0.0458121
0.047963
0.0500696
0.0521248
0.0541213
0.0560527
0.0579121
0.0596929
0.0613891
0.0629947
0.0645044
0.0659128
0.0672154
0.0684079
0.0694866
0.0704481
0.0712899
0.0720099
0.0726063
0.0730783
0.0734256
0.073649
0.0737497
0.0737296
0.073591
0.0733374
0.0729727
0.0725017
0.0719297
0.0712631
0.0705088
0.0696743
0.0687674
0.0677962
0.0667696
0.0656967
0.0645863
0.0634473
0.0622885
0.0611174
0.0599412
0.0587724
0.0576215
0.0564033
0.0550402
0.0140814
0.0124193
0.0109746
0.0096505
0.00833766
0.00704612
0.00578797
0.00456764
0.00339026
0.00226207
0.0011894
0.000178494
-0.000764284
-0.00163273
-0.00242093
-0.00312344
-0.00373507
-0.00425101
-0.004667
-0.0049793
-0.00518465
-0.00528036
-0.00526435
-0.00513514
-0.00489178
-0.00453383
-0.00406134
-0.00347481
-0.00277513
-0.00196369
-0.00104226
-1.29859e-05
0.00112152
0.0023583
0.00369388
0.00512449
0.00664602
0.00825415
0.00994433
0.0117116
0.0135508
0.0154563
0.0174223
0.0194428
0.0215117
0.0236224
0.0257684
0.027943
0.0301393
0.0323502
0.0345687
0.0367874
0.0389992
0.0411968
0.0433731
0.0455207
0.0476325
0.0497013
0.05172
0.0536818
0.05558
0.0574081
0.0591596
0.0608282
0.0624085
0.0638948
0.065282
0.0665655
0.0677411
0.0688049
0.0697538
0.0705848
0.071296
0.0718855
0.0723522
0.0726957
0.0729167
0.0730161
0.0729954
0.0728567
0.0726029
0.0722376
0.0717649
0.0711898
0.070518
0.0697555
0.0689091
0.0679855
0.0669921
0.0659367
0.064827
0.0636709
0.062476
0.0612495
0.0599979
0.0587266
0.0574481
0.0561724
0.0547985
0.0532362
0.0157929
0.0139302
0.0123274
0.0108756
0.00944967
0.00805938
0.00671677
0.005425
0.0041878
0.00301006
0.00189692
0.000853518
-0.000114921
-0.0010033
-0.0018067
-0.00252043
-0.00314019
-0.00366192
-0.00408197
-0.00439722
-0.00460496
-0.00470296
-0.00468953
-0.0045636
-0.00432458
-0.00397224
-0.00350678
-0.00292892
-0.00223972
-0.00144061
-0.000533381
0.000479798
0.00159631
0.00281313
0.00412681
0.00553366
0.00702969
0.00861066
0.0102721
0.0120092
0.0138169
0.0156896
0.0176219
0.0196078
0.0216412
0.023716
0.0258255
0.0279634
0.0301229
0.0322971
0.034479
0.0366616
0.0388377
0.0410004
0.0431425
0.0452569
0.0473365
0.0493742
0.0513633
0.0532968
0.0551682
0.0569711
0.0586989
0.0603456
0.0619057
0.0633736
0.0647443
0.0660128
0.0671751
0.0682275
0.0691664
0.0699891
0.0706932
0.071277
0.071739
0.072079
0.072297
0.072394
0.0723709
0.0722296
0.0719725
0.0716028
0.0711242
0.0705411
0.0698585
0.0690819
0.0682169
0.0672699
0.0662471
0.0651555
0.0640019
0.0627929
0.061535
0.0602345
0.0588965
0.0575256
0.056134
0.0547317
0.0532025
0.0514443
0.0174573
0.0153978
0.0136384
0.0120583
0.0105172
0.00902514
0.00759401
0.00622604
0.00492373
0.00369084
0.00253148
0.00144979
0.000449986
-0.000463777
-0.00128759
-0.00201752
-0.0026499
-0.00318144
-0.00360919
-0.00393058
-0.00414331
-0.00424564
-0.00423644
-0.00411499
-0.0038809
-0.00353421
-0.0030754
-0.0025054
-0.00182538
-0.00103682
-0.000141544
0.000858185
0.00195968
0.00315993
0.00445548
0.00584272
0.00731773
0.00887632
0.0105141
0.0122263
0.014008
0.0158539
0.0177585
0.019716
0.0217205
0.0237657
0.0258456
0.0279536
0.0300831
0.0322275
0.0343798
0.0365333
0.0386808
0.0408156
0.0429306
0.0450186
0.0470727
0.0490861
0.0510521
0.0529637
0.0548145
0.056598
0.0583079
0.0599382
0.0614834
0.0629378
0.0642963
0.0655541
0.066707
0.0677511
0.0686831
0.0694998
0.0701989
0.0707784
0.0712367
0.0715734
0.0717883
0.071882
0.0718552
0.0717092
0.0714463
0.0710691
0.0705809
0.0699856
0.0692875
0.0684913
0.0676023
0.0666258
0.0655676
0.0644337
0.0632299
0.0619619
0.0606353
0.0592554
0.0578266
0.0563524
0.0548453
0.0533153
0.0516319
0.0496815
0.0190582
0.0168061
0.0148919
0.0131833
0.011526
0.00992991
0.00840722
0.00695926
0.00558758
0.00429495
0.00308462
0.00195986
0.000923885
-2.00468e-05
-0.000868673
-0.00161889
-0.00226777
-0.00281269
-0.00325125
-0.00358135
-0.00380126
-0.00390977
-0.00390616
-0.00378998
-0.00356114
-0.00322002
-0.00276738
-0.00220427
-0.00153198
-0.000752077
0.000133509
0.00112243
0.00221193
0.00339898
0.00468017
0.00605192
0.00751032
0.00905122
0.0106703
0.0123628
0.0141241
0.0159489
0.0178317
0.0197669
0.0217487
0.023771
0.0258276
0.0279124
0.0300188
0.0321401
0.0342698
0.036401
0.0385269
0.0406406
0.0427352
0.0448036
0.046839
0.0488347
0.050784
0.05268
0.0545162
0.0562863
0.057984
0.0596034
0.0611388
0.0625845
0.0639354
0.0651866
0.0663339
0.0673733
0.0683014
0.0691148
0.0698109
0.0703877
0.0708435
0.0711775
0.0713894
0.0714794
0.0714477
0.0712956
0.0710248
0.0706376
0.0701368
0.0695256
0.0688079
0.0679878
0.0670698
0.0660589
0.0649601
0.0637785
0.0625193
0.0611872
0.0597871
0.0583236
0.0568003
0.0552201
0.0535958
0.0519376
0.0501014
0.0479624
0.0205814
0.0181407
0.0160736
0.0142369
0.0124627
0.0107611
0.00914457
0.00761361
0.00616913
0.00481319
0.00354801
0.00237604
0.00129987
0.000321945
-0.00055524
-0.00132931
-0.00199797
-0.00255918
-0.00301107
-0.00335207
-0.00358103
-0.00369719
-0.00370012
-0.00358974
-0.00336631
-0.00303051
-0.00258334
-0.002026
-0.00135985
-0.000586629
0.000291591
0.00127236
0.0023529
0.0035302
0.00480083
0.00616115
0.00760728
0.00913508
0.0107403
0.0124184
0.0141647
0.015974
0.0178409
0.0197598
0.0217251
0.0237307
0.0257706
0.0278386
0.0299284
0.0320334
0.0341472
0.036263
0.0383741
0.0404735
0.0425544
0.0446099
0.0466332
0.0486178
0.0505567
0.0524433
0.0542711
0.0560337
0.0577249
0.0593387
0.0608693
0.0623113
0.0636591
0.0649079
0.0660536
0.067092
0.0680192
0.068832
0.0695275
0.0701035
0.0705581
0.0708904
0.0710998
0.0711858
0.0711488
0.0709894
0.0707091
0.0703099
0.0697939
0.069164
0.0684231
0.0675753
0.0666244
0.0655749
0.064431
0.0631974
0.0618782
0.0604778
0.0590002
0.0574496
0.055829
0.0541407
0.052398
0.0506115
0.0486238
0.0462998
0.022014
0.0193884
0.0171706
0.0152066
0.0133152
0.0115069
0.00979475
0.00817866
0.00665872
0.00523636
0.00391317
0.00269079
0.00157109
0.000555934
-0.000352941
-0.00115378
-0.00184492
-0.00242481
-0.0028921
-0.00324582
-0.0034853
-0.00361016
-0.00362028
-0.00351596
-0.00329786
-0.00296697
-0.00252439
-0.00197146
-0.00130975
-0.000541197
0.000332008
0.00130737
0.00238211
0.00355314
0.00481696
0.00616988
0.00760801
0.00912732
0.0107236
0.0123925
0.0141291
0.0159284
0.0177851
0.0196936
0.0216484
0.0236436
0.0256731
0.0277309
0.0298106
0.031906
0.0340105
0.0361176
0.0382204
0.0403122
0.0423861
0.0444354
0.0464533
0.0484331
0.050368
0.0522514
0.0540767
0.0558377
0.057528
0.0591417
0.0606729
0.0621158
0.0634652
0.0647162
0.0658643
0.0669051
0.0678349
0.0686499
0.0693473
0.0699247
0.0703799
0.0707117
0.0709191
0.0710015
0.0709589
0.0707917
0.0705009
0.070088
0.0695549
0.0689036
0.0681369
0.0672582
0.0662712
0.0651795
0.0639869
0.0626974
0.0613146
0.0598422
0.058284
0.0566436
0.0549234
0.0531254
0.0512633
0.0493485
0.0472109
0.0447048
0.0233443
0.0205374
0.0181709
0.0160804
0.0140718
0.0121562
0.0103473
0.00864427
0.00704679
0.00555564
0.00417183
0.00289641
0.00173055
0.000675514
-0.000267594
-0.0010976
-0.00181333
-0.00241377
-0.00289817
-0.00326605
-0.00351713
-0.00365133
-0.00366898
-0.00357081
-0.00335781
-0.0030311
-0.00259196
-0.00204196
-0.00138293
-0.00061695
0.000253729
0.00122658
0.00229873
0.00346694
0.00472765
0.00607717
0.00751166
0.00902712
0.0106194
0.012284
0.0140162
0.015811
0.0176631
0.0195672
0.0215176
0.0235084
0.0255337
0.0275875
0.0296637
0.031756
0.0338579
0.0359628
0.038064
0.0401547
0.0422283
0.044278
0.0462969
0.0482784
0.0502156
0.052102
0.0539309
0.0556962
0.0573915
0.0590104
0.0605473
0.0619963
0.0633521
0.0646096
0.0657642
0.0668114
0.067747
0.0685675
0.0692696
0.0698507
0.0703084
0.0706412
0.0708477
0.0709271
0.0708791
0.0707038
0.0704019
0.0699743
0.0694223
0.0687478
0.0679531
0.0670412
0.0660153
0.0648785
0.0636342
0.0622856
0.0608361
0.0592889
0.0576473
0.0559148
0.0540932
0.0521841
0.0502021
0.0481591
0.0458728
0.0431874
0.0245619
0.0215767
0.0190634
0.0168473
0.0147218
0.0126985
0.0107919
0.00900077
0.00732412
0.00576231
0.00431585
0.00298528
0.00177117
0.000674101
-0.000305251
-0.00116624
-0.00190821
-0.00253072
-0.00303355
-0.00341657
-0.00367984
-0.00382376
-0.00384911
-0.00375695
-0.00354845
-0.00322491
-0.00278791
-0.00223929
-0.00158106
-0.00081539
5.54316e-05
0.00102874
0.00210148
0.00327033
0.00453168
0.00588188
0.0073171
0.00883332
0.0104264
0.0120917
0.0138248
0.0156205
0.0174737
0.0193791
0.0213309
0.0233234
0.0253507
0.027407
0.029486
0.0315816
0.0336874
0.0357967
0.0379028
0.0399992
0.042079
0.0441356
0.046162
0.0481515
0.0500974
0.051993
0.0538318
0.0556073
0.0573131
0.0589429
0.0604908
0.0619511
0.0633182
0.0645868
0.0657522
0.0668096
0.0677548
0.068584
0.0692938
0.0698812
0.0703437
0.0706792
0.0708862
0.0709637
0.0709109
0.0707277
0.0704143
0.0699712
0.0693995
0.0687004
0.0678761
0.0669291
0.0658621
0.0646778
0.0633791
0.0619689
0.0604501
0.0588257
0.0570987
0.0552722
0.0533477
0.0513264
0.0492238
0.0470528
0.0446189
0.0417564
0.0256571
0.0224962
0.0198376
0.0174967
0.0152547
0.0131237
0.0111189
0.00923866
0.00748165
0.00584782
0.0043372
0.00294981
0.00168572
0.000545039
-0.000472041
-0.00136539
-0.00213492
-0.00278066
-0.00330276
-0.00370145
-0.00397725
-0.00413105
-0.00416399
-0.00407731
-0.0038724
-0.00355086
-0.00311458
-0.00256564
-0.00190613
-0.00113828
-0.00026456
0.000712177
0.00178873
0.00296172
0.00422757
0.00558259
0.00702293
0.00854448
0.010143
0.0118142
0.0135533
0.0153554
0.0172153
0.0191276
0.0210868
0.023087
0.0251226
0.0271875
0.0292758
0.0313811
0.0334971
0.0356172
0.0377349
0.0398435
0.0419361
0.044006
0.0460464
0.0480504
0.0500114
0.0519225
0.0537772
0.0555689
0.0572911
0.0589374
0.0605019
0.0619787
0.0633621
0.0646466
0.0658271
0.0668989
0.0678576
0.0686991
0.0694198
0.0700165
0.0704861
0.0708265
0.0710357
0.0711126
0.071056
0.0708654
0.0705406
0.0700818
0.0694897
0.0687652
0.0679101
0.0669266
0.0658168
0.0645831
0.063228
0.061754
0.0601639
0.0584604
0.0566462
0.054724
0.0526953
0.050561
0.0483374
0.0460384
0.0434577
0.0404198
0.0266207
0.0232864
0.0204839
0.018019
0.0156609
0.0134222
0.0113187
0.0093488
0.00751062
0.00580372
0.00422775
0.0027823
0.00146702
0.000281582
-0.00077435
-0.00170113
-0.00249913
-0.00316877
-0.00371056
-0.00412518
-0.00441364
-0.00457719
-0.0046172
-0.00453515
-0.00433272
-0.00401188
-0.00357475
-0.00302353
-0.00236039
-0.00158777
-0.000708351
0.000274819
0.00135849
0.00253927
0.00381355
0.00517758
0.00662739
0.00815883
0.00976772
0.0114497
0.0132001
0.0150139
0.0168861
0.0188111
0.0207834
0.0227974
0.0248473
0.0269272
0.029031
0.0311524
0.0332851
0.0354226
0.0375584
0.0396856
0.0417976
0.0438874
0.0459482
0.0479732
0.0499556
0.0518886
0.0537654
0.0555793
0.0573238
0.0589926
0.0605793
0.062078
0.0634828
0.0647879
0.0659883
0.0670789
0.0680551
0.0689128
0.0696479
0.0702569
0.0707364
0.0710841
0.0712977
0.0713756
0.0713165
0.0711194
0.0707837
0.0703094
0.0696967
0.0689465
0.06806
0.0670388
0.065885
0.0646003
0.0631872
0.0616479
0.0599848
0.0582006
0.0562976
0.0542784
0.0521442
0.049896
0.0475511
0.045124
0.042397
0.0391849
0.0274438
0.0239381
0.0209931
0.0184047
0.0159308
0.0135846
0.0113824
0.00932234
0.00740236
0.00562166
0.0039795
0.00247514
0.00110782
-0.000123219
-0.0012188
-0.00217972
-0.0030067
-0.00370051
-0.00426212
-0.0046927
-0.00499363
-0.00516641
-0.00521264
-0.00513413
-0.00493294
-0.0046113
-0.00417148
-0.00361574
-0.0029465
-0.00216645
-0.0012785
-0.000285763
0.000808492
0.00200083
0.00328753
0.00466473
0.00612838
0.00767434
0.00929844
0.0109963
0.0127632
0.0145941
0.016484
0.0184274
0.0204189
0.0224527
0.0245231
0.0266241
0.0287496
0.0308935
0.0330494
0.0352108
0.0373711
0.0395236
0.0416614
0.0437776
0.0458654
0.0479179
0.0499283
0.0518894
0.0537945
0.0556369
0.0574098
0.0591069
0.0607216
0.0622478
0.0636793
0.0650102
0.0662352
0.0673493
0.0683475
0.0692254
0.0699786
0.0706032
0.0710958
0.0714535
0.0716739
0.0717549
0.0716949
0.0714925
0.0711469
0.0706576
0.0700248
0.0692487
0.0683304
0.067271
0.0660722
0.0647356
0.0632632
0.0616573
0.05992
0.0580536
0.0560605
0.0539431
0.0517025
0.0493396
0.0468727
0.0443174
0.0414443
0.0380584
0.0281184
0.0244426
0.0213561
0.018645
0.0160556
0.013602
0.011301
0.00915055
0.00714834
0.00529333
0.00358447
0.00202064
0.000600713
-0.00067651
-0.00181221
-0.00280755
-0.00366365
-0.00438166
-0.00496301
-0.00540928
-0.0057221
-0.00590322
-0.00595459
-0.00587839
-0.00567699
-0.00535277
-0.0049081
-0.00434547
-0.00366758
-0.00287739
-0.00197791
-0.000972284
0.000136174
0.0013439
0.00264702
0.00404158
0.00552354
0.00708874
0.00873297
0.0104517
0.0122404
0.0140938
0.016007
0.0179746
0.019991
0.0220507
0.0241476
0.0262759
0.0284295
0.0306022
0.0327878
0.0349796
0.0371711
0.0393553
0.0415255
0.0436747
0.0457961
0.0478827
0.0499274
0.0519231
0.0538629
0.05574
0.0575476
0.0592791
0.0609277
0.0624871
0.0639507
0.0653128
0.0665677
0.0677101
0.0687349
0.0696372
0.0704125
0.0710565
0.0715655
0.0719364
0.0721663
0.0722528
0.0721939
0.0719879
0.0716336
0.0711304
0.0704781
0.0696765
0.0687264
0.0676286
0.0663843
0.0649951
0.0634627
0.0617891
0.0599765
0.0580268
0.0559425
0.0537257
0.0513776
0.0488992
0.0463098
0.0436259
0.0406064
0.0370469
0.0286366
0.0247916
0.0215642
0.0187311
0.0160265
0.0134655
0.0110657
0.00882476
0.0067401
0.00481048
0.00303459
0.00141095
-6.19079e-05
-0.00138556
-0.00256151
-0.00359126
-0.00447632
-0.00521832
-0.00581905
-0.00628034
-0.00660412
-0.00679248
-0.00684776
-0.00677245
-0.00656908
-0.00624017
-0.00578831
-0.00521632
-0.00452718
-0.00372396
-0.00280975
-0.00178773
-0.00066137
0.00056559
0.00188919
0.00330545
0.0048103
0.00639952
0.0080688
0.00981359
0.0116291
0.0135106
0.0154527
0.0174502
0.0194976
0.0215889
0.0237185
0.0258803
0.0280684
0.0302764
0.0324982
0.0347269
0.0369559
0.0391785
0.0413877
0.0435767
0.0457383
0.0478655
0.0499511
0.0519879
0.0539689
0.0558872
0.0577358
0.0595079
0.0611965
0.0627949
0.0642966
0.0656954
0.0669856
0.0681614
0.0692176
0.070149
0.0709506
0.071618
0.0721472
0.0725346
0.0727771
0.0728718
0.0728164
0.0726088
0.0722476
0.0717319
0.071061
0.0702347
0.0692532
0.068117
0.0668272
0.0653851
0.0637922
0.0620503
0.0601615
0.0581276
0.0559509
0.0536339
0.0511773
0.0485825
0.0458697
0.0430565
0.0398901
0.0361563
0.0289907
0.024977
0.0216092
0.0186543
0.0158348
0.0131664
0.0106678
0.00833636
0.00616916
0.00416482
0.00232174
0.000638175
-0.000887696
-0.00225771
-0.00347375
-0.00453765
-0.00545135
-0.00621685
-0.00683621
-0.00731154
-0.00764512
-0.00783945
-0.00789719
-0.00782102
-0.00761362
-0.00727772
-0.00681625
-0.00623234
-0.00552913
-0.00470976
-0.00377739
-0.00273538
-0.00158739
-0.000337248
0.00101103
0.00245345
0.00398585
0.00560389
0.00730316
0.00907908
0.0109269
0.0128418
0.0148186
0.0168518
0.0189359
0.021065
0.0232334
0.025435
0.0276639
0.0299137
0.032178
0.0344502
0.0367235
0.038991
0.041246
0.0434814
0.0456899
0.0478644
0.0499975
0.0520821
0.054111
0.056077
0.0579731
0.0597921
0.0615269
0.0631705
0.0647162
0.0661577
0.0674887
0.0687035
0.0697962
0.0707614
0.0715939
0.0722891
0.0728425
0.0732502
0.0735087
0.0736147
0.0735655
0.0733587
0.0729927
0.0724662
0.0717783
0.0709283
0.0699161
0.0687421
0.0674071
0.065912
0.0642584
0.0624478
0.0604822
0.0583634
0.0560935
0.0536751
0.0511092
0.0483969
0.0455598
0.0426163
0.039302
0.0353928
0.0291732
0.0249909
0.0214828
0.0184061
0.0154718
0.0126962
0.0100988
0.00767678
0.00542704
0.00334796
0.00143774
-0.00030566
-0.00188434
-0.00330044
-0.00455616
-0.00565376
-0.0065955
-0.00738367
-0.0080206
-0.00850877
-0.00885084
-0.00904965
-0.00910809
-0.00902898
-0.00881524
-0.00846995
-0.00799636
-0.00739778
-0.00667743
-0.00583857
-0.00488452
-0.00381887
-0.00264539
-0.00136798
9.33241e-06
0.00148246
0.0030471
0.00469879
0.00643306
0.00824536
0.010131
0.0120849
0.0141019
0.0161767
0.0183034
0.0204763
0.0226897
0.0249375
0.0272136
0.0295116
0.031825
0.0341471
0.0364713
0.0387907
0.0410982
0.0433867
0.0456489
0.0478775
0.050065
0.0522041
0.0542876
0.0563081
0.0582582
0.0601306
0.061918
0.0636132
0.0652092
0.0666994
0.0680772
0.0693364
0.070471
0.0714753
0.0723438
0.0730714
0.0736534
0.0740855
0.0743637
0.0744845
0.0744447
0.0742416
0.0738733
0.0733381
0.0726348
0.0717625
0.0707209
0.06951
0.0681302
0.0665826
0.0648683
0.0629889
0.060946
0.0587416
0.0563778
0.0538571
0.0511807
0.0483499
0.0453873
0.0423122
0.0388485
0.0347624
0.0291762
0.0248252
0.0211766
0.0179781
0.014929
0.0120461
0.00934991
0.00683738
0.00450521
0.00235153
0.000374351
-0.0014286
-0.00305968
-0.00452137
-0.00581623
-0.0069468
-0.00791565
-0.00872535
-0.00937858
-0.0098782
-0.0102272
-0.0104287
-0.0104858
-0.0104014
-0.0101789
-0.00982177
-0.00933333
-0.00871704
-0.00797624
-0.0071144
-0.00613509
-0.00504202
-0.00383905
-0.0025301
-0.00111929
0.000389138
0.00199075
0.00368101
0.00545542
0.00730943
0.00923825
0.0112368
0.0132998
0.0154218
0.0175972
0.0198201
0.0220847
0.024385
0.0267147
0.0290673
0.0314364
0.0338153
0.0361972
0.0385752
0.0409421
0.0432906
0.0456133
0.0479029
0.0501517
0.0523523
0.0544973
0.056579
0.0585899
0.0605224
0.062369
0.0641223
0.0657751
0.0673203
0.068751
0.0700607
0.071243
0.0722918
0.0732015
0.0739665
0.0745819
0.0750429
0.075345
0.0754844
0.0754575
0.0752613
0.0748935
0.0743522
0.0736358
0.0727431
0.0716735
0.0704268
0.0690032
0.0674036
0.065629
0.0636807
0.0615604
0.0592699
0.0568113
0.0541875
0.0513995
0.0484489
0.0453594
0.0421513
0.0385364