/*--------------------------------*- C++ -*----------------------------------*\
  =========                 |
  \\      /  F ield         | OpenFOAM: The Open Source CFD Toolbox
   \\    /   O peration     | Website:  https://openfoam.org
    \\  /    A nd           | Version:  11
     \\/     M anipulation  |
\*---------------------------------------------------------------------------*/
FoamFile
{
    format      ascii;
    class       surfaceScalarField;
    location    "8.8";
    object      phi;
}
// * * * * * * * * * * * * * * * * * * * * * * * * * * * * * * * * * * * * * //

dimensions      [0 3 -1 0 0 0 0];

internalField   nonuniform List<scalar> 
19980
(
7.0188e-07
-7.01887e-07
2.42589e-06
-1.7238e-06
4.33838e-06
-1.91256e-06
5.84928e-06
-1.51094e-06
6.61821e-06
-7.68983e-07
6.45913e-06
1.59245e-07
5.27871e-06
1.18024e-06
3.04432e-06
2.2346e-06
-2.40625e-07
3.28497e-06
-4.54843e-06
4.30773e-06
-9.83578e-06
5.28749e-06
-1.60494e-05
6.21356e-06
-2.31286e-05
7.07931e-06
-3.1009e-05
7.88038e-06
-3.96232e-05
8.61423e-06
-4.89026e-05
9.2794e-06
-5.87779e-05
9.87534e-06
-6.918e-05
1.0402e-05
-8.00398e-05
1.08598e-05
-9.12896e-05
1.12497e-05
-0.000102863
1.15729e-05
-0.000114693
1.18307e-05
-0.000126718
1.20247e-05
-0.000138875
1.21566e-05
-0.000151103
1.2228e-05
-0.000163344
1.22408e-05
-0.000175541
1.21971e-05
-0.000187639
1.20988e-05
-0.000199588
1.1948e-05
-0.000211335
1.1747e-05
-0.000222832
1.14977e-05
-0.000234034
1.12022e-05
-0.000244897
1.08628e-05
-0.000255379
1.04814e-05
-0.000265439
1.00602e-05
-0.00027504
9.60138e-06
-0.000284147
9.107e-06
-0.000292727
8.57928e-06
-0.000300747
8.02036e-06
-0.00030818
7.43251e-06
-0.000314998
6.81802e-06
-0.000321177
6.17899e-06
-0.000326694
5.51767e-06
-0.000331531
4.83638e-06
-0.000335668
4.13739e-06
-0.000339091
3.42313e-06
-0.000341787
2.69578e-06
-0.000343745
1.95766e-06
-0.000344956
1.21142e-06
-0.000345415
4.59501e-07
-0.00034512
-2.9576e-07
-0.000344068
-1.05171e-06
-0.000342262
-1.80583e-06
-0.000339707
-2.55574e-06
-0.000336408
-3.2987e-06
-0.000332376
-4.03193e-06
-0.000327623
-4.75294e-06
-0.000322164
-5.45904e-06
-0.000316017
-6.14723e-06
-0.000309202
-6.81472e-06
-0.000301743
-7.45902e-06
-0.000293665
-8.0774e-06
-0.000284999
-8.66683e-06
-0.000275774
-9.22437e-06
-0.000266027
-9.74736e-06
-0.000255794
-1.0233e-05
-0.000245115
-1.06784e-05
-0.000234035
-1.10808e-05
-0.000222597
-1.14379e-05
-0.000210849
-1.17471e-05
-0.000198844
-1.20056e-05
-0.000186633
-1.22109e-05
-0.000174272
-1.23608e-05
-0.000161819
-1.2453e-05
-0.000149334
-1.24852e-05
-0.000136879
-1.24553e-05
-0.000124517
-1.23619e-05
-0.000112313
-1.22035e-05
-0.000100335
-1.19785e-05
-8.86493e-05
-1.16856e-05
-7.73252e-05
-1.1324e-05
-6.64322e-05
-1.08931e-05
-5.60398e-05
-1.03925e-05
-4.62176e-05
-9.8222e-06
-3.70346e-05
-9.18295e-06
-2.85585e-05
-8.47608e-06
-2.08551e-05
-7.70348e-06
-1.39871e-05
-6.86797e-06
-8.01342e-06
-5.97364e-06
-2.98713e-06
-5.02631e-06
1.04704e-06
-4.03421e-06
4.05606e-06
-3.00898e-06
6.02363e-06
-1.96749e-06
6.95836e-06
-9.34718e-07
6.90679e-06
5.15103e-08
5.97405e-06
9.3269e-07
4.35626e-06
1.6178e-06
2.39539e-06
1.96087e-06
6.72595e-07
1.72278e-06
6.72568e-07
1.7031e-06
-2.40481e-06
4.70056e-06
-4.72152e-06
7.59771e-06
-4.80953e-06
9.36229e-06
-3.27556e-06
9.27783e-06
-6.84566e-07
6.88517e-06
2.55189e-06
1.9183e-06
6.14717e-06
-5.7527e-06
9.90538e-06
-1.61596e-05
1.36918e-05
-2.92658e-05
1.74139e-05
-4.49862e-05
2.10077e-05
-6.3201e-05
2.44283e-05
-8.37664e-05
2.76447e-05
-0.000106522
3.06358e-05
-0.000131295
3.33872e-05
-0.000157905
3.589e-05
-0.000186169
3.81391e-05
-0.000215899
4.01322e-05
-0.000246908
4.18691e-05
-0.00027901
4.33516e-05
-0.000312019
4.45826e-05
-0.000345755
4.55663e-05
-0.000380038
4.63079e-05
-0.000414694
4.68128e-05
-0.000449554
4.70871e-05
-0.00048445
4.71377e-05
-0.000519225
4.69714e-05
-0.000553722
4.65956e-05
-0.000587792
4.60181e-05
-0.000621292
4.52466e-05
-0.000654083
4.42891e-05
-0.000686034
4.31533e-05
-0.000717018
4.18473e-05
-0.000746916
4.03793e-05
-0.000775613
3.87573e-05
-0.000803002
3.69897e-05
-0.00082898
3.50849e-05
-0.000853452
3.30512e-05
-0.000876329
3.0897e-05
-0.000897527
2.86309e-05
-0.00091697
2.62614e-05
-0.000934588
2.37972e-05
-0.000950318
2.1247e-05
-0.000964101
1.86197e-05
-0.000975888
1.59241e-05
-0.000985634
1.31692e-05
-0.000993302
1.03644e-05
-0.000998864
7.51864e-06
-0.00100229
4.64146e-06
-0.00100358
1.7426e-06
-0.0010027
-1.16858e-06
-0.000999673
-4.08242e-06
-0.00099449
-6.98886e-06
-0.000987167
-9.87791e-06
-0.000977727
-1.27396e-05
-0.000966195
-1.55634e-05
-0.000952609
-1.83391e-05
-0.000937012
-2.10561e-05
-0.000919455
-2.37038e-05
-0.000899999
-2.62715e-05
-0.000878709
-2.87487e-05
-0.000855662
-3.11246e-05
-0.00083094
-3.33885e-05
-0.000804635
-3.55294e-05
-0.000776846
-3.75365e-05
-0.000747679
-3.93991e-05
-0.000717251
-4.1107e-05
-0.000685681
-4.26501e-05
-0.000653101
-4.4018e-05
-0.000619647
-4.52012e-05
-0.000585463
-4.61899e-05
-0.000550699
-4.6975e-05
-0.000515512
-4.75476e-05
-0.000480066
-4.78993e-05
-0.000444528
-4.80224e-05
-0.000409074
-4.79098e-05
-0.000373881
-4.75552e-05
-0.000339131
-4.6953e-05
-0.000305011
-4.60985e-05
-0.000271709
-4.49878e-05
-0.000239415
-4.36183e-05
-0.00020832
-4.19883e-05
-0.000178614
-4.0098e-05
-0.000150487
-3.79493e-05
-0.000124124
-3.5546e-05
-9.97052e-05
-3.2895e-05
-7.74027e-05
-3.0006e-05
-5.73777e-05
-2.68929e-05
-3.97768e-05
-2.35746e-05
-2.47257e-05
-2.00773e-05
-1.23231e-05
-1.64368e-05
-2.62995e-06
-1.27021e-05
4.34378e-06
-8.94129e-06
8.6587e-06
-5.24973e-06
1.04729e-05
-1.76272e-06
1.00796e-05
1.32604e-06
7.95766e-06
3.73977e-06
4.83165e-06
5.08685e-06
1.72094e-06
4.83344e-06
2.39352e-06
1.87106e-06
-4.27594e-06
4.74275e-06
-7.59317e-06
6.9022e-06
-6.96874e-06
7.11152e-06
-3.48496e-06
4.47374e-06
1.95336e-06
-1.62242e-06
8.64798e-06
-1.15589e-05
1.60836e-05
-2.55409e-05
2.38876e-05
-4.36401e-05
3.17908e-05
-6.58262e-05
3.96002e-05
-9.19939e-05
4.71756e-05
-0.000121982
5.44166e-05
-0.000155588
6.12505e-05
-0.000192578
6.76262e-05
-0.000232699
7.35078e-05
-0.00027568
7.88709e-05
-0.000321241
8.37004e-05
-0.000369097
8.79876e-05
-0.000418957
9.17296e-05
-0.000470534
9.49278e-05
-0.000523537
9.75863e-05
-0.000577684
9.97124e-05
-0.000632691
0.000101315
-0.000688284
0.000102406
-0.000744195
0.000102997
-0.00080016
0.000103102
-0.000855924
0.000102736
-0.000911242
0.000101913
-0.000965874
0.00010065
-0.00101959
9.89633e-05
-0.00107217
9.68696e-05
-0.0011234
9.43862e-05
-0.00117309
9.15304e-05
-0.00122103
8.83196e-05
-0.00126704
8.47718e-05
-0.00131096
8.09049e-05
-0.00135261
7.67373e-05
-0.00139185
7.22872e-05
-0.00142852
6.7573e-05
-0.0014625
6.26136e-05
-0.00149367
5.74278e-05
-0.00152191
5.20345e-05
-0.00154711
4.64528e-05
-0.0015692
4.07023e-05
-0.00158807
3.48026e-05
-0.00160368
2.87734e-05
-0.00161595
2.26348e-05
-0.00162484
1.64073e-05
-0.00163031
1.01115e-05
-0.00163233
3.76833e-06
-0.0016309
-2.60109e-06
-0.00162601
-8.97531e-06
-0.00161766
-1.53327e-05
-0.00160589
-2.16512e-05
-0.00159072
-2.79087e-05
-0.0015722
-3.40824e-05
-0.00155039
-4.01497e-05
-0.00152536
-4.60877e-05
-0.00149719
-5.1873e-05
-0.00146598
-5.74824e-05
-0.00143184
-6.28927e-05
-0.00139488
-6.80805e-05
-0.00135525
-7.30222e-05
-0.00131308
-7.76943e-05
-0.00126854
-8.20737e-05
-0.00122181
-8.61374e-05
-0.00117305
-8.98627e-05
-0.00112247
-9.32273e-05
-0.00107028
-9.621e-05
-0.00101669
-9.87894e-05
-0.000961938
-0.000100945
-0.000906256
-0.000102657
-0.000849896
-0.000103907
-0.000793118
-0.000104678
-0.000736188
-0.000104952
-0.000679382
-0.000104716
-0.000622981
-0.000103956
-0.000567274
-0.000102661
-0.000512551
-0.000100821
-0.00045911
-9.84296e-05
-0.000407246
-9.54821e-05
-0.000357257
-9.1977e-05
-0.000309439
-8.79162e-05
-0.000264082
-8.3306e-05
-0.000221471
-7.81574e-05
-0.000181878
-7.24878e-05
-0.000145563
-6.63216e-05
-0.000112763
-5.96927e-05
-8.3691e-05
-5.26465e-05
-5.85242e-05
-4.52441e-05
-3.73939e-05
-3.75671e-05
-2.03714e-05
-2.97246e-05
-7.44933e-06
-2.18634e-05
1.48274e-06
-1.41818e-05
6.66942e-06
-6.94943e-06
8.52925e-06
-5.33884e-07
7.70265e-06
4.5663e-06
5.10258e-06
7.68697e-06
1.96357e-06
7.97246e-06
4.35706e-06
1.47749e-06
-5.7534e-06
3.23357e-06
-9.34934e-06
3.45996e-06
-7.19523e-06
8.40422e-07
-8.65563e-07
-5.59263e-06
8.3866e-06
-1.65183e-05
1.95738e-05
-3.23778e-05
3.19432e-05
-5.34201e-05
4.49299e-05
-7.97416e-05
5.81122e-05
-0.000111318
7.11759e-05
-0.000148029
8.38874e-05
-0.000189686
9.6073e-05
-0.00023604
0.000107605
-0.000286803
0.000118389
-0.000341654
0.000128359
-0.00040025
0.000137467
-0.000462232
0.000145682
-0.000527229
0.000152985
-0.000594866
0.000159366
-0.000664762
0.000164824
-0.00073654
0.000169364
-0.000809823
0.000172995
-0.000884238
0.000175731
-0.000959421
0.000177589
-0.00103501
0.000178588
-0.00111066
0.000178751
-0.00118603
0.000178102
-0.00126078
0.000176666
-0.0013346
0.00017447
-0.00140718
0.000171541
-0.00147822
0.000167909
-0.00154743
0.000163601
-0.00161455
0.000158648
-0.00167931
0.00015308
-0.00174147
0.000146928
-0.00180079
0.000140223
-0.00185705
0.000132997
-0.00191004
0.00012528
-0.00195957
0.000117105
-0.00200546
0.000108504
-0.00204754
9.95113e-05
-0.00208567
9.01583e-05
-0.00211969
8.04789e-05
-0.0021495
7.05068e-05
-0.00217497
6.02762e-05
-0.00219602
4.98216e-05
-0.00221256
3.91779e-05
-0.00222454
2.83805e-05
-0.00223189
1.74655e-05
-0.00223459
6.46915e-06
-0.00223262
-4.57178e-06
-0.00222598
-1.56201e-05
-0.00221467
-2.66379e-05
-0.00219873
-3.75869e-05
-0.00217821
-4.84287e-05
-0.00215317
-5.91243e-05
-0.00212369
-6.96339e-05
-0.00208986
-7.99177e-05
-0.00205179
-8.99359e-05
-0.00200963
-9.96482e-05
-0.00196351
-0.000109014
-0.0019136
-0.000117993
-0.00186007
-0.000126545
-0.00180314
-0.000134629
-0.001743
-0.000142206
-0.00167991
-0.000149236
-0.00161409
-0.000155681
-0.00154581
-0.000161502
-0.00147536
-0.000166662
-0.00140302
-0.000171126
-0.00132911
-0.000174858
-0.00125394
-0.000177826
-0.00117785
-0.000179997
-0.00110119
-0.000181343
-0.0010243
-0.000181836
-0.000947568
-0.000181452
-0.000871355
-0.000180169
-0.000796046
-0.000177969
-0.00072203
-0.000174838
-0.000649695
-0.000170765
-0.000579433
-0.000165744
-0.000511636
-0.000159775
-0.000446688
-0.000152864
-0.000384969
-0.000145025
-0.000326845
-0.000136281
-0.000272669
-0.000126665
-0.000222768
-0.000116222
-0.000177443
-0.000105017
-0.000136959
-9.31311e-05
-0.000101529
-8.06736e-05
-7.13095e-05
-6.7787e-05
-4.63765e-05
-5.46577e-05
-2.67097e-05
-4.15302e-05
-1.21657e-05
-2.87258e-05
-2.44786e-06
-1.66673e-05
2.92977e-06
-5.91158e-06
4.68455e-06
2.81156e-06
3.81057e-06
8.56101e-06
1.63729e-06
1.01457e-05
5.9943e-06
7.66919e-07
-6.52035e-06
7.20299e-07
-9.30276e-06
-1.85477e-06
-4.62003e-06
-8.24533e-06
5.52519e-06
-1.94122e-05
1.95532e-05
-3.60412e-05
3.62027e-05
-5.85872e-05
5.44892e-05
-8.73123e-05
7.3655e-05
-0.000122319
9.31188e-05
-0.000163579
0.000112436
-0.00021096
0.000131268
-0.000264244
0.000149358
-0.000323149
0.00016651
-0.00038734
0.00018258
-0.000456441
0.00019746
-0.000530048
0.000211074
-0.000607735
0.000223369
-0.000689059
0.00023431
-0.00077357
0.000243877
-0.00086081
0.000252065
-0.000950322
0.000258875
-0.00104165
0.00026432
-0.00113433
0.000268417
-0.00122793
0.000271189
-0.00132201
0.000272663
-0.00141613
0.000272872
-0.00150988
0.00027185
-0.00160284
0.000269634
-0.00169464
0.000266263
-0.00178487
0.000261778
-0.00187319
0.000256222
-0.00195923
0.000249639
-0.00204265
0.000242073
-0.00212314
0.00023357
-0.00220039
0.000224176
-0.0022741
0.000213938
-0.00234401
0.000202905
-0.00240985
0.000191124
-0.00247139
0.000178644
-0.0025284
0.000165516
-0.00258068
0.000151787
-0.00262803
0.00013751
-0.00267029
0.000122735
-0.0027073
0.000107515
-0.00273892
9.18995e-05
-0.00276504
7.59433e-05
-0.00278556
5.96995e-05
-0.00280041
4.32223e-05
-0.00280951
2.65666e-05
-0.00281283
9.78793e-06
-0.00281034
-7.05743e-06
-0.00280205
-2.39124e-05
-0.00278797
-4.07194e-05
-0.00276813
-5.742e-05
-0.00274261
-7.39553e-05
-0.00271146
-9.02654e-05
-0.00267481
-0.00010629
-0.00263276
-0.00012197
-0.00258545
-0.000137242
-0.00253305
-0.000152046
-0.00247574
-0.000166321
-0.00241373
-0.000180005
-0.00234724
-0.000193037
-0.00227651
-0.000205356
-0.00220182
-0.000216902
-0.00212344
-0.000227614
-0.00204169
-0.000237436
-0.00195688
-0.000246308
-0.00186937
-0.000254175
-0.00177951
-0.000260984
-0.00168769
-0.000266682
-0.00159429
-0.000271219
-0.00149974
-0.00027455
-0.00140445
-0.00027663
-0.00130887
-0.000277419
-0.00121344
-0.000276883
-0.00111862
-0.000274989
-0.00102488
-0.000271712
-0.000932683
-0.000267031
-0.000842514
-0.000260934
-0.000754842
-0.000253415
-0.000670141
-0.000244475
-0.000588876
-0.000234129
-0.0005115
-0.000222401
-0.000438452
-0.000209329
-0.000370149
-0.000194967
-0.00030698
-0.000179392
-0.000249295
-0.000162701
-0.000197402
-0.000145025
-0.000151546
-0.000126529
-0.000111903
-0.00010743
-7.85587e-05
-8.8002e-05
-5.14895e-05
-6.85995e-05
-3.05389e-05
-4.96764e-05
-1.53904e-05
-3.18159e-05
-5.53639e-06
-1.57656e-05
-2.42853e-07
-2.48196e-06
1.49012e-06
6.82804e-06
9.81833e-07
1.0654e-05
6.97612e-06
-1.20238e-07
-6.39998e-06
-2.41445e-06
-7.0086e-06
-8.39528e-06
1.36069e-06
-1.92377e-05
1.63677e-05
-3.58348e-05
3.61503e-05
-5.88326e-05
5.92004e-05
-8.86628e-05
8.43195e-05
-0.000125572
0.000110565
-0.000169651
0.000137198
-0.000220856
0.000163641
-0.000279035
0.000189447
-0.000343943
0.000214266
-0.000415264
0.000237831
-0.000492624
0.000259939
-0.000575599
0.000280436
-0.000663733
0.000299208
-0.000756541
0.000316177
-0.00085352
0.000331288
-0.000954152
0.000344509
-0.00105791
0.000355825
-0.00116427
0.000365235
-0.0012727
0.000372752
-0.00138268
0.000378394
-0.00149369
0.000382193
-0.00160521
0.000384183
-0.00171674
0.000384407
-0.0018278
0.000382909
-0.00193791
0.000379741
-0.0020466
0.000374957
-0.00215343
0.000368611
-0.00225797
0.000360762
-0.00235981
0.000351472
-0.00245853
0.000340801
-0.00255378
0.000328814
-0.00264518
0.000315575
-0.00273239
0.00030115
-0.00281509
0.000285606
-0.00289298
0.000269011
-0.00296577
0.000251433
-0.00303319
0.000232941
-0.00309501
0.000213607
-0.003151
0.000193501
-0.00320096
0.000172695
-0.00324471
0.000151262
-0.00328208
0.000129275
-0.00331295
0.000106809
-0.00333719
8.39389e-05
-0.00335471
6.07422e-05
-0.00336544
3.72956e-05
-0.00336933
1.36777e-05
-0.00336635
-1.00323e-05
-0.00335651
-3.37542e-05
-0.00333982
-5.74065e-05
-0.00331634
-8.09071e-05
-0.00328612
-0.000104173
-0.00324926
-0.000127121
-0.00320589
-0.000149665
-0.00315614
-0.000171721
-0.00310018
-0.000193203
-0.0030382
-0.000214026
-0.00297041
-0.000234103
-0.00289707
-0.000253348
-0.00281843
-0.000271675
-0.00273479
-0.000289
-0.00264645
-0.000305239
-0.00255376
-0.000320307
-0.00245707
-0.000334124
-0.00235677
-0.000346609
-0.00225326
-0.000357686
-0.00214696
-0.00036728
-0.00203833
-0.000375317
-0.00192782
-0.000381731
-0.00181591
-0.000386457
-0.0017031
-0.000389436
-0.00158991
-0.000390613
-0.00147685
-0.000389941
-0.00136446
-0.000387377
-0.00125328
-0.000382889
-0.00114386
-0.000376449
-0.00103676
-0.000368044
-0.000932503
-0.000357667
-0.000831651
-0.000345327
-0.000734735
-0.000331046
-0.000642274
-0.000314862
-0.00055477
-0.000296833
-0.000472695
-0.000277042
-0.000396491
-0.000255596
-0.000326553
-0.000232639
-0.000263224
-0.000208353
-0.000206783
-0.000182971
-0.000157425
-0.000156788
-0.000115253
-0.000130174
-8.02516e-05
-0.000103601
-5.22723e-05
-7.76558e-05
-3.10064e-05
-5.30818e-05
-1.59615e-05
-3.08106e-05
-6.43328e-06
-1.20103e-05
-1.47498e-06
1.86974e-06
1.41003e-07
9.03797e-06
7.11716e-06
-1.09914e-06
-5.30102e-06
-5.91237e-06
-2.19529e-06
-1.56961e-05
1.11443e-05
-3.14608e-05
3.21325e-05
-5.39874e-05
5.86769e-05
-8.38453e-05
8.90583e-05
-0.000121413
0.000121887
-0.000166898
0.00015605
-0.00022036
0.00019066
-0.000281729
0.000225009
-0.000350822
0.00025854
-0.000427366
0.000290811
-0.000511012
0.000321477
-0.000601344
0.000350271
-0.000697899
0.00037699
-0.000800171
0.00040148
-0.000907625
0.000423631
-0.0010197
0.000443365
-0.00113583
0.000460634
-0.00125542
0.000475413
-0.00137788
0.000487695
-0.00150261
0.000497491
-0.00162904
0.000504824
-0.00175658
0.000509728
-0.00188464
0.000512248
-0.00201267
0.000512435
-0.00214011
0.000510347
-0.00226642
0.00050605
-0.00239107
0.000499611
-0.00251357
0.000491104
-0.00263341
0.000480604
-0.00275013
0.00046819
-0.00286327
0.000453944
-0.00297241
0.00043795
-0.00307712
0.000420293
-0.00317703
0.000401059
-0.00327176
0.000380338
-0.00336097
0.000358219
-0.00344433
0.000334793
-0.00352154
0.000310153
-0.00359233
0.000284392
-0.00365643
0.000257604
-0.00371362
0.000229887
-0.0037637
0.000201335
-0.00380647
0.000172048
-0.00384179
0.000142125
-0.00386951
0.000111666
-0.00388955
8.07733e-05
-0.0039018
4.95502e-05
-0.00390622
1.81009e-05
-0.00390279
-1.34689e-05
-0.00389149
-4.50521e-05
-0.00387235
-7.65408e-05
-0.00384544
-0.000107825
-0.00381081
-0.000138796
-0.00376859
-0.00016934
-0.00371891
-0.000199346
-0.00366193
-0.000228701
-0.00359785
-0.000257291
-0.00352687
-0.000285001
-0.00344925
-0.00031172
-0.00336527
-0.000337331
-0.00327522
-0.000361722
-0.00317944
-0.000384781
-0.00307828
-0.000406396
-0.00297213
-0.000426458
-0.0028614
-0.000444859
-0.00274651
-0.000461494
-0.00262794
-0.000476261
-0.00250616
-0.000489062
-0.00238167
-0.000499803
-0.00225501
-0.000508395
-0.00212671
-0.000514756
-0.00199734
-0.000518806
-0.00186748
-0.000520478
-0.00173771
-0.000519709
-0.00160864
-0.000516447
-0.00148088
-0.00051065
-0.00135504
-0.000502287
-0.00123174
-0.000491341
-0.0011116
-0.00047781
-0.00099522
-0.000461707
-0.000883199
-0.000443067
-0.000776115
-0.000421945
-0.000674526
-0.000398423
-0.000578955
-0.000372613
-0.000489888
-0.000344663
-0.000407765
-0.000314763
-0.000332963
-0.000283155
-0.000265792
-0.000250142
-0.000206476
-0.000216104
-0.00015514
-0.000181511
-0.000111793
-0.000146948
-7.63106e-05
-0.000113138
-4.84176e-05
-8.09749e-05
-2.76659e-05
-5.15623e-05
-1.34171e-05
-2.62591e-05
-4.82155e-06
-6.72572e-06
-7.98015e-07
5.01447e-06
6.31918e-06
-2.11879e-06
-3.18206e-06
-9.60126e-06
5.28704e-06
-2.34315e-05
2.49748e-05
-4.44258e-05
5.31267e-05
-7.3223e-05
8.74741e-05
-0.000110289
0.000126125
-0.000155924
0.000167523
-0.000210278
0.000210404
-0.000273362
0.000253744
-0.000345065
0.000296713
-0.00042517
0.000338645
-0.000513367
0.000379007
-0.000609269
0.000417378
-0.000712422
0.000453425
-0.000822322
0.00048689
-0.000938419
0.000517577
-0.00106013
0.000545342
-0.00118685
0.000570083
-0.00131794
0.00059173
-0.00145278
0.000610248
-0.00159071
0.000625623
-0.00173108
0.000637861
-0.00187324
0.000646989
-0.00201656
0.000653045
-0.00216039
0.000656081
-0.00230412
0.00065616
-0.00244712
0.000653354
-0.00258881
0.00064774
-0.0027286
0.000639404
-0.00286594
0.000628437
-0.00300027
0.000614934
-0.00313107
0.000598994
-0.00325785
0.000580719
-0.00338011
0.000560216
-0.00349741
0.000537592
-0.00360931
0.000512957
-0.0037154
0.000486425
-0.00381529
0.000458109
-0.00390862
0.000428125
-0.00399506
0.000396592
-0.00407429
0.000363628
-0.00414604
0.000329355
-0.00421005
0.000293894
-0.00426609
0.000257369
-0.00431394
0.000219907
-0.00435345
0.000181634
-0.00438447
0.000142678
-0.00440686
0.000103171
-0.00442056
6.32432e-05
-0.00442549
2.30288e-05
-0.00442162
-1.73372e-05
-0.00440895
-5.77182e-05
-0.00438752
-9.79758e-05
-0.00435737
-0.000137971
-0.0043186
-0.000177561
-0.00427134
-0.000216606
-0.00421572
-0.000254962
-0.00415194
-0.000292484
-0.0040802
-0.000329027
-0.00400076
-0.000364448
-0.00391388
-0.0003986
-0.00381987
-0.00043134
-0.00371907
-0.000462522
-0.00361184
-0.000492005
-0.00349859
-0.000519648
-0.00337974
-0.00054531
-0.00325574
-0.000568857
-0.00312708
-0.000590155
-0.00299426
-0.000609077
-0.00285783
-0.000625497
-0.00271833
-0.000639299
-0.00257636
-0.000650371
-0.0024325
-0.000658608
-0.0022874
-0.000663914
-0.00214167
-0.000666204
-0.00199598
-0.0006654
-0.00185099
-0.00066144
-0.00170736
-0.000654274
-0.00156578
-0.000643865
-0.00142693
-0.000630196
-0.00129147
-0.000613268
-0.00116007
-0.000593103
-0.00103339
-0.000569748
-0.000912059
-0.000543279
-0.000796678
-0.000513803
-0.000687824
-0.000481468
-0.000586025
-0.000446462
-0.00049176
-0.000409028
-0.000405445
-0.000369469
-0.000327425
-0.000328163
-0.000257955
-0.000285573
-0.000197195
-0.000242271
-0.000145189
-0.000198953
-0.000101855
-0.000156471
-6.69703e-05
-0.00011586
-4.01548e-05
-7.83778e-05
-2.08632e-05
-4.55507e-05
-8.3734e-06
-1.92155e-05
-1.78167e-06
-1.57723e-06
4.53752e-06
-3.14821e-06
-3.38799e-08
-1.33692e-05
1.5508e-05
-3.13788e-05
4.29843e-05
-5.77857e-05
7.95336e-05
-9.30703e-05
0.000122759
-0.000137575
0.000170629
-0.000191506
0.000221453
-0.000254935
0.000273834
-0.000327814
0.000326622
-0.000409979
0.000378878
-0.000501167
0.000429833
-0.000601027
0.000478867
-0.00070913
0.000525481
-0.000824984
0.000569278
-0.00094804
0.000609946
-0.00107771
0.000647244
-0.00121336
0.000680993
-0.00135434
0.000711061
-0.00149997
0.000737362
-0.00164956
0.000759844
-0.00180242
0.000778484
-0.00195785
0.000793287
-0.00211514
0.000804278
-0.0022736
0.000811501
-0.00243253
0.000815016
-0.00259127
0.000814897
-0.00274914
0.000811227
-0.0029055
0.0008041
-0.00305972
0.00079362
-0.00321118
0.000779896
-0.00335928
0.000763042
-0.00350347
0.000743181
-0.00364319
0.000720437
-0.00377791
0.00069494
-0.00390714
0.000666822
-0.00403041
0.000636219
-0.00414725
0.00060327
-0.00425726
0.000568115
-0.00436003
0.000530899
-0.0044552
0.000491765
-0.00454244
0.000450862
-0.00462142
0.000408339
-0.00469188
0.000364349
-0.00475355
0.000319043
-0.00480622
0.000272578
-0.0048497
0.000225111
-0.00488382
0.000176802
-0.00490846
0.000127811
-0.00492352
7.83021e-05
-0.00492893
2.84409e-05
-0.00492467
-2.16055e-05
-0.00491072
-7.1668e-05
-0.00488712
-0.000121575
-0.00485393
-0.000171155
-0.00481126
-0.000220232
-0.00475924
-0.000268632
-0.00469802
-0.000316176
-0.00462782
-0.000362687
-0.00454886
-0.000407987
-0.00446141
-0.000451895
-0.00436578
-0.000494235
-0.00426229
-0.000534826
-0.00415132
-0.000573492
-0.00403327
-0.000610058
-0.00390857
-0.000644349
-0.00377768
-0.000676195
-0.00364111
-0.000705429
-0.00349938
-0.000731888
-0.00335304
-0.000755416
-0.00320268
-0.00077586
-0.0030489
-0.000793076
-0.00289234
-0.00080693
-0.00273366
-0.000817293
-0.00257352
-0.000824051
-0.00241262
-0.000827098
-0.00225168
-0.000826346
-0.0020914
-0.000821717
-0.00193252
-0.000813154
-0.00177577
-0.000800616
-0.00162188
-0.000784086
-0.00147158
-0.000763568
-0.00132559
-0.000739094
-0.00118461
-0.000710727
-0.00104933
-0.000678564
-0.000920388
-0.000642741
-0.000798416
-0.00060344
-0.000683983
-0.000560896
-0.000577607
-0.000515404
-0.000479746
-0.000467331
-0.000390781
-0.000417128
-0.000311009
-0.000365345
-0.000240632
-0.000312649
-0.000179741
-0.000259844
-0.000128311
-0.000207902
-8.61863e-05
-0.000157985
-5.30751e-05
-0.000111489
-2.85434e-05
-7.00824e-05
-1.2015e-05
-3.57438e-05
-2.77772e-06
-1.08145e-05
1.75979e-06
-4.16911e-06
4.13517e-06
-1.71443e-05
2.8483e-05
-3.93868e-05
6.5227e-05
-7.12983e-05
0.000111445
-0.000113191
0.000164651
-0.000165273
0.000222711
-0.000227642
0.000283822
-0.000300281
0.000346473
-0.000383069
0.00040941
-0.000475781
0.000471589
-0.000578099
0.000532151
-0.000689623
0.000590391
-0.000809879
0.000645738
-0.000938332
0.000697731
-0.00107439
0.000746004
-0.00121742
0.000790272
-0.00136674
0.00083032
-0.00152167
0.000865989
-0.00168148
0.000897168
-0.00184543
0.000923793
-0.00201277
0.000945831
-0.00218277
0.000963282
-0.00235467
0.000976173
-0.00252772
0.00098455
-0.00270118
0.000988483
-0.00287434
0.000988054
-0.00304647
0.000983362
-0.00321689
0.000974517
-0.00338491
0.000961639
-0.00354987
0.000944857
-0.00371114
0.00092431
-0.0038681
0.00090014
-0.00402016
0.000872497
-0.00416675
0.000841535
-0.00430734
0.000807415
-0.00444142
0.000770298
-0.0045685
0.00073035
-0.00468813
0.000687742
-0.00479988
0.000642646
-0.00490335
0.000595238
-0.00499818
0.000545695
-0.00508404
0.000494198
-0.00516062
0.000440929
-0.00522765
0.000386074
-0.0052849
0.000329822
-0.00533215
0.000272361
-0.00536923
0.000213884
-0.00539601
0.000154588
-0.00541237
9.46678e-05
-0.00541826
3.43246e-05
-0.00541362
-2.62398e-05
-0.00539847
-8.68211e-05
-0.00537283
-0.000147213
-0.00533678
-0.000207206
-0.00529042
-0.000266591
-0.0052339
-0.000325155
-0.00516739
-0.000382685
-0.00509111
-0.000438967
-0.00500531
-0.000493785
-0.00491028
-0.000546923
-0.00480635
-0.000598167
-0.00469387
-0.000647302
-0.00457325
-0.000694115
-0.00444491
-0.000738395
-0.00430933
-0.000779933
-0.004167
-0.000818525
-0.00401846
-0.000853971
-0.00386427
-0.000886076
-0.00370503
-0.000914652
-0.00354138
-0.000939518
-0.00337395
-0.000960503
-0.00320344
-0.000977444
-0.00303054
-0.000990192
-0.00285598
-0.000998609
-0.0026805
-0.00100257
-0.00250487
-0.00100198
-0.00232985
-0.000996737
-0.00215622
-0.000986781
-0.00198477
-0.000972067
-0.00181628
-0.000952577
-0.00165153
-0.00092832
-0.00149128
-0.000899339
-0.0013363
-0.000865712
-0.0011873
-0.00082756
-0.00104499
-0.000785049
-0.000910035
-0.000738398
-0.000783043
-0.000687887
-0.000664581
-0.000633866
-0.000555147
-0.000576765
-0.000455168
-0.000517107
-0.000364988
-0.000455525
-0.000284858
-0.000392779
-0.000214928
-0.000329774
-0.000155241
-0.000267589
-0.000105722
-0.000207504
-6.61797e-05
-0.000151032
-3.63035e-05
-9.99587e-05
-1.5672e-05
-5.63752e-05
-3.76712e-06
-2.27193e-05
-2.00733e-06
-5.17094e-06
9.30627e-06
-2.08816e-05
4.41934e-05
-4.73573e-05
9.17029e-05
-8.47983e-05
0.000148886
-0.000133348
0.000213201
-0.000193074
0.000282437
-0.000263956
0.000354703
-0.000345881
0.000428398
-0.000438643
0.000502173
-0.000541949
0.000574894
-0.000655418
0.00064562
-0.000778596
0.000713569
-0.000910959
0.000778101
-0.00105192
0.000838694
-0.00120085
0.000894933
-0.00135707
0.000946488
-0.00151985
0.000993107
-0.00168847
0.0010346
-0.00186215
0.00107085
-0.00204011
0.00110176
-0.00222157
0.00112729
-0.00240573
0.00114744
-0.00259179
0.00116224
-0.00277897
0.00117173
-0.00296648
0.00117599
-0.00315356
0.00117513
-0.00333943
0.00116924
-0.00352338
0.00115846
-0.00370466
0.00114292
-0.00388259
0.00112278
-0.00405648
0.0010982
-0.00422568
0.00106934
-0.00438955
0.00103637
-0.00454751
0.00099949
-0.00469896
0.000958872
-0.00484338
0.000914712
-0.00498024
0.000867207
-0.00510905
0.000816555
-0.00522936
0.000762961
-0.00534076
0.000706632
-0.00544284
0.000647779
-0.00553526
0.000586614
-0.00561768
0.000523354
-0.00568983
0.000458219
-0.00575144
0.000391431
-0.00580229
0.000323215
-0.0058422
0.000253799
-0.00587103
0.000183414
-0.00588866
0.000112294
-0.00589501
4.06748e-05
-0.00589004
-3.12038e-05
-0.00587376
-0.0001031
-0.00584621
-0.00017477
-0.00580745
-0.000245966
-0.0057576
-0.00031644
-0.00569681
-0.000385941
-0.00562528
-0.000454216
-0.00554324
-0.000521014
-0.00545094
-0.000586078
-0.00534871
-0.000649156
-0.00523688
-0.000709992
-0.00511585
-0.000768335
-0.00498603
-0.000823932
-0.00484789
-0.000876536
-0.00470192
-0.000925901
-0.00454866
-0.000971785
-0.00438868
-0.00101395
-0.00422257
-0.00105218
-0.00405098
-0.00108624
-0.00387458
-0.00111593
-0.00369404
-0.00114103
-0.00351011
-0.00116138
-0.00332353
-0.00117678
-0.00313506
-0.00118707
-0.00294551
-0.00119213
-0.00275566
-0.00119182
-0.00256635
-0.00118605
-0.0023784
-0.00117473
-0.00219264
-0.00115783
-0.00200991
-0.00113531
-0.00183102
-0.00110721
-0.0016568
-0.00107356
-0.00148804
-0.00103447
-0.00132552
-0.000990079
-0.00116999
-0.000940584
-0.00102214
-0.000886242
-0.000882653
-0.000827378
-0.000752124
-0.000764395
-0.000631103
-0.000697786
-0.000520063
-0.000628146
-0.000419404
-0.000556185
-0.000329434
-0.000482749
-0.000250371
-0.000408837
-0.000182333
-0.000335627
-0.000125337
-0.000264499
-7.92998e-05
-0.000197069
-4.40415e-05
-0.000135217
-1.92978e-05
-8.11189e-05
-4.73888e-06
-3.72783e-05
-6.7462e-06
-6.14845e-06
1.54547e-05
-2.45542e-05
6.25991e-05
-5.52274e-05
0.000122376
-9.8177e-05
0.000191835
-0.00015338
0.000268404
-0.000220762
0.000349819
-0.00030018
0.000434122
-0.000391418
0.000519636
-0.000494181
0.000604935
-0.000608095
0.000688809
-0.000732715
0.00077024
-0.000867525
0.000848379
-0.00101194
0.000922521
-0.00116534
0.000992091
-0.00132703
0.00105662
-0.00149629
0.00111575
-0.00167235
0.00116917
-0.00185444
0.00121669
-0.00204175
0.00125815
-0.00223344
0.00129345
-0.00242869
0.00132254
-0.00262667
0.00134542
-0.00282653
0.0013621
-0.00302745
0.00137264
-0.00322859
0.00137714
-0.00342915
0.00137569
-0.00362833
0.00136842
-0.00382534
0.00135548
-0.00401944
0.00133702
-0.00420986
0.00131321
-0.00439591
0.00128425
-0.00457689
0.00125031
-0.00475213
0.00121161
-0.004921
0.00116836
-0.00508289
0.00112076
-0.00523722
0.00106905
-0.00538346
0.00101344
-0.00552108
0.000954175
-0.0056496
0.000891487
-0.00576859
0.000825617
-0.00587762
0.00075681
-0.00597632
0.000685314
-0.00606434
0.000611381
-0.00614139
0.000535266
-0.00620719
0.000457229
-0.00626151
0.000377531
-0.00630414
0.000296438
-0.00633495
0.000214218
-0.0063538
0.000131145
-0.00636062
4.74931e-05
-0.00635536
-3.64589e-05
-0.00633803
-0.00012043
-0.00630867
-0.000204134
-0.00626735
-0.000287287
-0.00621419
-0.000369596
-0.00614936
-0.000450772
-0.00607305
-0.000530522
-0.00598552
-0.000608549
-0.00588704
-0.00068456
-0.00577793
-0.000758259
-0.00565858
-0.00082935
-0.00552937
-0.000897541
-0.00539076
-0.000962541
-0.00524324
-0.00102406
-0.00508733
-0.00108181
-0.00492359
-0.00113553
-0.00475262
-0.00118492
-0.00457506
-0.00122974
-0.00439159
-0.00126972
-0.0042029
-0.00130462
-0.00400973
-0.00133421
-0.00381284
-0.00135827
-0.00361302
-0.00137659
-0.00341109
-0.00138901
-0.00320786
-0.00139535
-0.00300421
-0.00139548
-0.00280098
-0.00138927
-0.00259906
-0.00137666
-0.00239931
-0.00135757
-0.00220262
-0.00133201
-0.00200985
-0.00129997
-0.00182187
-0.00126154
-0.00163953
-0.00121681
-0.00146364
-0.00116597
-0.00129499
-0.00110923
-0.00113435
-0.00104689
-0.000982405
-0.000979319
-0.000839828
-0.000906972
-0.000707211
-0.000830403
-0.000585085
-0.000750272
-0.000473905
-0.000667365
-0.000374047
-0.000582607
-0.000285801
-0.000497083
-0.000209369
-0.000412058
-0.000144868
-0.000329001