/*--------------------------------*- C++ -*----------------------------------*\
  =========                 |
  \\      /  F ield         | OpenFOAM: The Open Source CFD Toolbox
   \\    /   O peration     | Website:  https://openfoam.org
    \\  /    A nd           | Version:  11
     \\/     M anipulation  |
\*---------------------------------------------------------------------------*/
FoamFile
{
    format      ascii;
    class       volVectorField;
    location    "8.8";
    object      U;
}
// * * * * * * * * * * * * * * * * * * * * * * * * * * * * * * * * * * * * * //

dimensions      [0 1 -1 0 0 0 0];

internalField   nonuniform List<vector> 
10100
(
(2.98277e-06 -3.01334e-06 0)
(1.49292e-05 -7.81802e-06 0)
(3.40729e-05 -9.10189e-06 0)
(5.22095e-05 -7.90446e-06 0)
(6.42093e-05 -5.37938e-06 0)
(6.75839e-05 -2.21138e-06 0)
(6.10512e-05 1.22317e-06 0)
(4.40344e-05 4.70524e-06 0)
(1.642e-05 8.11602e-06 0)
(-2.16105e-05 1.13844e-05 0)
(-6.96881e-05 1.44797e-05 0)
(-0.000127317 1.73665e-05 0)
(-0.00019392 2.00391e-05 0)
(-0.000268866 2.24932e-05 0)
(-0.000351497 2.47221e-05 0)
(-0.000441126 2.67325e-05 0)
(-0.00053706 2.85245e-05 0)
(-0.000638612 3.00977e-05 0)
(-0.000745083 3.14612e-05 0)
(-0.000855788 3.2619e-05 0)
(-0.000970062 3.35743e-05 0)
(-0.00108724 3.43352e-05 0)
(-0.00120666 3.49071e-05 0)
(-0.00132772 3.52934e-05 0)
(-0.00144979 3.54996e-05 0)
(-0.00157227 3.55333e-05 0)
(-0.00169459 3.54011e-05 0)
(-0.0018162 3.51095e-05 0)
(-0.00193656 3.46665e-05 0)
(-0.00205515 3.40794e-05 0)
(-0.00217149 3.33533e-05 0)
(-0.0022851 3.24942e-05 0)
(-0.00239553 3.15084e-05 0)
(-0.00250235 3.04009e-05 0)
(-0.00260516 2.91779e-05 0)
(-0.00270356 2.78455e-05 0)
(-0.00279718 2.64112e-05 0)
(-0.00288569 2.48825e-05 0)
(-0.00296876 2.32633e-05 0)
(-0.00304609 2.15606e-05 0)
(-0.00311741 1.97821e-05 0)
(-0.00318245 1.79312e-05 0)
(-0.00324099 1.60155e-05 0)
(-0.0032928 1.40431e-05 0)
(-0.00333771 1.20189e-05 0)
(-0.00337555 9.95151e-06 0)
(-0.00340617 7.84772e-06 0)
(-0.00342946 5.71056e-06 0)
(-0.00344532 3.54798e-06 0)
(-0.00345369 1.36975e-06 0)
(-0.00345451 -8.1834e-07 0)
(-0.00344777 -3.00929e-06 0)
(-0.00343348 -5.19428e-06 0)
(-0.00341166 -7.3672e-06 0)
(-0.00338236 -9.52205e-06 0)
(-0.00334568 -1.16501e-05 0)
(-0.00330172 -1.37433e-05 0)
(-0.00325062 -1.57947e-05 0)
(-0.00319255 -1.77956e-05 0)
(-0.00312768 -1.97368e-05 0)
(-0.00305625 -2.16111e-05 0)
(-0.0029785 -2.3412e-05 0)
(-0.00289471 -2.51308e-05 0)
(-0.00280517 -2.67581e-05 0)
(-0.00271023 -2.82856e-05 0)
(-0.00261023 -2.97046e-05 0)
(-0.00250557 -3.10067e-05 0)
(-0.00239667 -3.21845e-05 0)
(-0.00228396 -3.32316e-05 0)
(-0.00216792 -3.41397e-05 0)
(-0.00204903 -3.48995e-05 0)
(-0.00192781 -3.55034e-05 0)
(-0.00180482 -3.59455e-05 0)
(-0.00168061 -3.62181e-05 0)
(-0.00155577 -3.63131e-05 0)
(-0.00143092 -3.62241e-05 0)
(-0.00130667 -3.59473e-05 0)
(-0.00118369 -3.54776e-05 0)
(-0.00106262 -3.4809e-05 0)
(-0.000944137 -3.39365e-05 0)
(-0.000828924 -3.28571e-05 0)
(-0.000717673 -3.15679e-05 0)
(-0.000611081 -3.00654e-05 0)
(-0.000509845 -2.83472e-05 0)
(-0.000414659 -2.64136e-05 0)
(-0.000326209 -2.42669e-05 0)
(-0.000245164 -2.19095e-05 0)
(-0.00017217 -1.93452e-05 0)
(-0.000107837 -1.65808e-05 0)
(-5.27315e-05 -1.36277e-05 0)
(-7.34941e-06 -1.05044e-05 0)
(2.79093e-05 -7.23873e-06 0)
(5.27825e-05 -3.87486e-06 0)
(6.72101e-05 -4.85779e-07 0)
(7.14361e-05 2.80567e-06 0)
(6.6169e-05 5.78748e-06 0)
(5.28056e-05 8.09334e-06 0)
(3.38985e-05 9.07501e-06 0)
(1.45343e-05 7.63651e-06 0)
(2.80272e-06 2.80433e-06 0)
(7.61439e-06 -1.48609e-05 0)
(3.11314e-05 -3.14071e-05 0)
(6.28639e-05 -3.38027e-05 0)
(8.84658e-05 -2.60013e-05 0)
(9.82867e-05 -1.18715e-05 0)
(8.67447e-05 5.88767e-06 0)
(5.04231e-05 2.55481e-05 0)
(-1.25637e-05 4.59628e-05 0)
(-0.000102952 6.63961e-05 0)
(-0.000220658 8.63643e-05 0)
(-0.000365032 0.000105541 0)
(-0.000535025 0.000123712 0)
(-0.000729287 0.000140731 0)
(-0.000946296 0.000156501 0)
(-0.00118436 0.000170968 0)
(-0.00144172 0.000184095 0)
(-0.00171655 0.000195864 0)
(-0.00200697 0.000206275 0)
(-0.00231112 0.000215333 0)
(-0.00262714 0.000223051 0)
(-0.00295314 0.000229453 0)
(-0.00328731 0.000234564 0)
(-0.00362784 0.000238414 0)
(-0.00397296 0.000241034 0)
(-0.00432095 0.000242458 0)
(-0.00467013 0.000242721 0)
(-0.00501887 0.000241862 0)
(-0.0053656 0.000239921 0)
(-0.0057088 0.000236941 0)
(-0.006047 0.000232961 0)
(-0.00637879 0.000228025 0)
(-0.00670282 0.000222172 0)
(-0.0070178 0.000215445 0)
(-0.0073225 0.000207885 0)
(-0.00761575 0.000199532 0)
(-0.00789644 0.000190433 0)
(-0.00816352 0.000180628 0)
(-0.00841599 0.000170161 0)
(-0.00865295 0.000159076 0)
(-0.00887352 0.000147415 0)
(-0.00907691 0.000135225 0)
(-0.00926238 0.000122548 0)
(-0.00942927 0.000109428 0)
(-0.00957697 9.59103e-05 0)
(-0.00970493 8.20435e-05 0)
(-0.0098127 6.78713e-05 0)
(-0.00989985 5.34405e-05 0)
(-0.00996607 3.87993e-05 0)
(-0.0100111 2.39953e-05 0)
(-0.0100347 9.07721e-06 0)
(-0.0100367 -5.90481e-06 0)
(-0.0100172 -2.09008e-05 0)
(-0.00997612 -3.58614e-05 0)
(-0.00991354 -5.07354e-05 0)
(-0.00982967 -6.54697e-05 0)
(-0.00972473 -8.00117e-05 0)
(-0.00959904 -9.43097e-05 0)
(-0.00945301 -0.000108309 0)
(-0.00928711 -0.000121953 0)
(-0.00910188 -0.000135188 0)
(-0.00889797 -0.00014796 0)
(-0.00867609 -0.000160214 0)
(-0.00843703 -0.000171893 0)
(-0.00818166 -0.000182941 0)
(-0.00791093 -0.000193301 0)
(-0.00762588 -0.000202919 0)
(-0.00732762 -0.00021174 0)
(-0.00701732 -0.00021971 0)
(-0.00669624 -0.000226779 0)
(-0.00636572 -0.000232896 0)
(-0.00602717 -0.000238009 0)
(-0.00568205 -0.000242069 0)
(-0.0053319 -0.000245029 0)
(-0.00497832 -0.000246846 0)
(-0.00462298 -0.000247476 0)
(-0.00426759 -0.000246882 0)
(-0.00391391 -0.00024503 0)
(-0.00356374 -0.00024189 0)
(-0.00321894 -0.000237434 0)
(-0.00288136 -0.00023164 0)
(-0.00255291 -0.000224491 0)
(-0.0022355 -0.000215974 0)
(-0.00193103 -0.000206085 0)
(-0.00164141 -0.000194828 0)
(-0.00136852 -0.000182219 0)
(-0.00111418 -0.000168286 0)
(-0.000880167 -0.000153071 0)
(-0.000668159 -0.000136634 0)
(-0.000479704 -0.000119064 0)
(-0.000316176 -0.000100482 0)
(-0.00017872 -8.10612e-05 0)
(-6.81622e-05 -6.10438e-05 0)
(1.51029e-05 -4.07764e-05 0)
(7.12765e-05 -2.07633e-05 0)
(0.000101384 -1.75173e-06 0)
(0.000107591 1.51374e-05 0)
(9.3559e-05 2.82159e-05 0)
(6.50199e-05 3.49394e-05 0)
(3.16154e-05 3.16252e-05 0)
(7.61981e-06 1.45205e-05 0)
(8.75251e-06 -3.36625e-05 0)
(3.31933e-05 -6.29492e-05 0)
(6.13186e-05 -6.19928e-05 0)
(7.60481e-05 -3.90899e-05 0)
(6.57735e-05 -1.52677e-06 0)
(2.32795e-05 4.52493e-05 0)
(-5.61731e-05 9.7273e-05 0)
(-0.000175433 0.000151804 0)
(-0.000335788 0.000206886 0)
(-0.000537382 0.000261165 0)
(-0.00077948 0.000313681 0)
(-0.0010607 0.000363757 0)
(-0.00137921 0.000410914 0)
(-0.00173279 0.000454825 0)
(-0.00211899 0.000495264 0)
(-0.00253518 0.000532082 0)
(-0.00297858 0.000565196 0)
(-0.00344637 0.000594562 0)
(-0.00393567 0.000620167 0)
(-0.00444357 0.000642036 0)
(-0.00496718 0.000660204 0)
(-0.00550363 0.000674727 0)
(-0.00605009 0.00068568 0)
(-0.00660376 0.00069314 0)
(-0.00716194 0.000697195 0)
(-0.00772196 0.000697944 0)
(-0.00828123 0.000695489 0)
(-0.00883724 0.000689933 0)
(-0.00938757 0.000681391 0)
(-0.00992987 0.000669976 0)
(-0.0104619 0.000655805 0)
(-0.0109815 0.000638994 0)
(-0.0114865 0.000619661 0)
(-0.0119751 0.000597927 0)
(-0.0124453 0.000573912 0)
(-0.0128954 0.000547739 0)
(-0.0133236 0.000519533 0)
(-0.0137285 0.000489414 0)
(-0.0141084 0.000457509 0)
(-0.014462 0.000423947 0)
(-0.014788 0.000388853 0)
(-0.0150853 0.000352355 0)
(-0.0153528 0.000314584 0)
(-0.0155894 0.000275669 0)
(-0.0157944 0.000235742 0)
(-0.015967 0.00019494 0)
(-0.0161065 0.000153397 0)
(-0.0162124 0.000111247 0)
(-0.0162843 6.8635e-05 0)
(-0.0163218 2.5702e-05 0)
(-0.0163248 -1.74134e-05 0)
(-0.0162931 -6.0565e-05 0)
(-0.0162269 -0.000103604 0)
(-0.0161263 -0.000146385 0)
(-0.0159914 -0.000188758 0)
(-0.0158229 -0.000230567 0)
(-0.0156211 -0.00027166 0)
(-0.0153867 -0.000311883 0)
(-0.0151204 -0.000351076 0)
(-0.0148233 -0.000389082 0)
(-0.0144962 -0.000425743 0)
(-0.0141404 -0.000460903 0)
(-0.0137571 -0.0004944 0)
(-0.0133477 -0.000526073 0)
(-0.0129138 -0.000555765 0)
(-0.012457 -0.00058332 0)
(-0.0119791 -0.000608581 0)
(-0.0114819 -0.000631399 0)
(-0.0109675 -0.000651627 0)
(-0.0104381 -0.00066912 0)
(-0.00989576 -0.000683736 0)
(-0.00934297 -0.000695339 0)
(-0.00878213 -0.000703803 0)
(-0.00821578 -0.000709003 0)
(-0.00764657 -0.000710827 0)
(-0.0070772 -0.000709171 0)
(-0.00651046 -0.000703944 0)
(-0.00594921 -0.000695064 0)
(-0.00539633 -0.000682465 0)
(-0.00485478 -0.000666092 0)
(-0.00432751 -0.000645909 0)
(-0.00381752 -0.000621897 0)
(-0.00332776 -0.000594063 0)
(-0.00286118 -0.000562439 0)
(-0.00242065 -0.000527091 0)
(-0.00200897 -0.000488124 0)
(-0.00162882 -0.000445693 0)
(-0.00128269 -0.000400012 0)
(-0.000972854 -0.000351375 0)
(-0.000701282 -0.000300181 0)
(-0.000469547 -0.000246975 0)
(-0.000278704 -0.000192495 0)
(-0.000129124 -0.000137754 0)
(-2.02847e-05 -8.41485e-05 0)
(4.95114e-05 -3.36283e-05 0)
(8.34854e-05 1.10793e-05 0)
(8.67268e-05 4.61727e-05 0)
(6.66712e-05 6.64458e-05 0)
(3.50276e-05 6.50444e-05 0)
(9.06937e-06 3.38692e-05 0)
(7.57529e-06 -5.13843e-05 0)
(2.55308e-05 -8.83093e-05 0)
(3.87549e-05 -7.67278e-05 0)
(2.98243e-05 -3.00058e-05 0)
(-1.33865e-05 4.10331e-05 0)
(-9.88293e-05 0.000127926 0)
(-0.000231921 0.00022436 0)
(-0.000416005 0.000325647 0)
(-0.000652748 0.000428376 0)
(-0.000942416 0.000530037 0)
(-0.00128424 0.000628804 0)
(-0.00167663 0.000723336 0)
(-0.00211734 0.000812667 0)
(-0.00260368 0.000896097 0)
(-0.00313258 0.000973129 0)
(-0.00370068 0.00104343 0)
(-0.00430447 0.00110678 0)
(-0.00494029 0.00116305 0)
(-0.0056044 0.00121219 0)
(-0.00629301 0.00125421 0)
(-0.00700232 0.00128914 0)
(-0.00772855 0.00131709 0)
(-0.00846795 0.00133816 0)
(-0.00921684 0.00135249 0)
(-0.00997159 0.00136025 0)
(-0.0107286 0.0013616 0)
(-0.0114846 0.00135674 0)
(-0.012236 0.00134586 0)
(-0.0129796 0.00132917 0)
(-0.0137124 0.0013069 0)
(-0.0144312 0.00127925 0)
(-0.0151331 0.00124645 0)
(-0.0158155 0.00120873 0)
(-0.0164755 0.00116633 0)
(-0.0171107 0.00111948 0)
(-0.0177186 0.00106841 0)
(-0.018297 0.00101336 0)
(-0.0188438 0.000954589 0)
(-0.0193569 0.000892324 0)
(-0.0198344 0.000826818 0)
(-0.0202747 0.000758321 0)
(-0.0206761 0.000687082 0)
(-0.0210372 0.000613355 0)
(-0.0213566 0.0005374 0)
(-0.0216332 0.000459474 0)
(-0.0218661 0.000379837 0)
(-0.0220542 0.000298758 0)
(-0.0221969 0.000216506 0)
(-0.0222937 0.000133352 0)
(-0.022344 4.95766e-05 0)
(-0.0223477 -3.45416e-05 0)
(-0.0223046 -0.000118722 0)
(-0.0222148 -0.000202677 0)
(-0.0220785 -0.000286113 0)
(-0.0218961 -0.000368738 0)
(-0.0216681 -0.000450255 0)
(-0.0213952 -0.000530362 0)
(-0.0210784 -0.000608753 0)
(-0.0207186 -0.000685126 0)
(-0.0203171 -0.000759173 0)
(-0.0198753 -0.000830585 0)
(-0.0193947 -0.000899053 0)
(-0.0188771 -0.00096427 0)
(-0.0183243 -0.00102593 0)
(-0.0177384 -0.00108371 0)
(-0.0171216 -0.00113733 0)
(-0.0164764 -0.00118648 0)
(-0.0158053 -0.00123088 0)
(-0.0151109 -0.00127023 0)
(-0.0143962 -0.00130426 0)
(-0.0136642 -0.0013327 0)
(-0.012918 -0.00135529 0)
(-0.0121608 -0.0013718 0)
(-0.0113962 -0.00138199 0)
(-0.0106276 -0.00138565 0)
(-0.00985854 -0.00138258 0)
(-0.00909285 -0.00137263 0)
(-0.00833429 -0.00135563 0)
(-0.0075867 -0.00133148 0)
(-0.00685397 -0.00130009 0)
(-0.00614001 -0.0012614 0)
(-0.00544876 -0.00121539 0)
(-0.00478408 -0.00116212 0)
(-0.00414982 -0.00110166 0)
(-0.00354972 -0.00103417 0)
(-0.00298738 -0.000959896 0)
(-0.00246621 -0.000879172 0)
(-0.00198938 -0.000792458 0)
(-0.00155975 -0.000700371 0)
(-0.00117972 -0.000603732 0)
(-0.000851181 -0.000503629 0)
(-0.000575342 -0.000401503 0)
(-0.00035254 -0.000299273 0)
(-0.000182022 -0.0001995 0)
(-6.16632e-05 -0.000105616 0)
(1.23624e-05 -2.22219e-05 0)
(4.58897e-05 4.45454e-05 0)
(4.71734e-05 8.6654e-05 0)
(2.86272e-05 9.38442e-05 0)
(8.1487e-06 5.28609e-05 0)
(5.19754e-06 -6.31764e-05 0)
(1.19443e-05 -9.82316e-05 0)
(2.18365e-06 -6.6805e-05 0)
(-3.97454e-05 1.30285e-05 0)
(-0.000125486 0.000126999 0)
(-0.000263079 0.000263804 0)
(-0.000458072 0.000414718 0)
(-0.000713991 0.000573126 0)
(-0.00103256 0.000734011 0)
(-0.0014141 0.000893597 0)
(-0.00185775 0.00104903 0)
(-0.0023617 0.0011982 0)
(-0.00292341 0.00133949 0)
(-0.00353977 0.00147174 0)
(-0.0042072 0.0015941 0)
(-0.00492178 0.00170595 0)
(-0.00567932 0.0018069 0)
(-0.00647549 0.00189669 0)
(-0.0073058 0.00197517 0)
(-0.00816569 0.00204232 0)
(-0.00905059 0.00209818 0)
(-0.0099559 0.00214285 0)
(-0.0108771 0.0021765 0)
(-0.0118096 0.00219933 0)
(-0.0127491 0.00221157 0)
(-0.0136911 0.00221348 0)
(-0.0146315 0.00220536 0)
(-0.015566 0.00218752 0)
(-0.0164908 0.00216029 0)
(-0.0174019 0.00212399 0)
(-0.0182955 0.00207898 0)
(-0.0191682 0.00202563 0)
(-0.0200163 0.00196429 0)
(-0.0208366 0.00189533 0)
(-0.0216261 0.00181915 0)
(-0.0223816 0.00173611 0)
(-0.0231004 0.00164662 0)
(-0.0237797 0.00155105 0)
(-0.0244172 0.00144982 0)
(-0.0250105 0.00134332 0)
(-0.0255575 0.00123195 0)
(-0.0260561 0.00111612 0)
(-0.0265045 0.000996256 0)
(-0.0269012 0.000872767 0)
(-0.0272446 0.00074608 0)
(-0.0275336 0.00061662 0)
(-0.0277671 0.000484819 0)
(-0.0279441 0.000351121 0)
(-0.0280639 0.00021597 0)
(-0.0281261 7.98142e-05 0)
(-0.0281303 -5.68894e-05 0)
(-0.0280764 -0.000193677 0)
(-0.0279644 -0.000330082 0)
(-0.0277947 -0.000465633 0)
(-0.0275678 -0.000599848 0)
(-0.0272842 -0.000732244 0)
(-0.026945 -0.000862334 0)
(-0.0265511 -0.000989624 0)
(-0.0261039 -0.00111362 0)
(-0.025605 -0.00123382 0)
(-0.025056 -0.00134972 0)
(-0.0244588 -0.00146084 0)
(-0.0238157 -0.00156666 0)
(-0.023129 -0.0016667 0)
(-0.0224012 -0.00176045 0)
(-0.0216351 -0.00184744 0)
(-0.0208336 -0.00192718 0)
(-0.02 -0.00199921 0)
(-0.0191375 -0.00206306 0)
(-0.0182498 -0.0021183 0)
(-0.0173404 -0.0021645 0)
(-0.0164133 -0.00220126 0)
(-0.0154725 -0.00222818 0)
(-0.0145223 -0.0022449 0)
(-0.0135668 -0.00225111 0)
(-0.0126106 -0.00224649 0)
(-0.0116582 -0.00223079 0)
(-0.0107142 -0.00220379 0)
(-0.00978337 -0.00216531 0)
(-0.00887037 -0.00211524 0)
(-0.00797999 -0.00205351 0)
(-0.00711696 -0.00198013 0)
(-0.00628599 -0.00189519 0)
(-0.00549167 -0.00179888 0)
(-0.00473849 -0.00169149 0)
(-0.00403073 -0.00157344 0)
(-0.00337245 -0.00144533 0)
(-0.00276736 -0.00130794 0)
(-0.00221878 -0.00116233 0)
(-0.00172951 -0.00100983 0)
(-0.00130169 -0.000852225 0)
(-0.000936668 -0.000691793 0)
(-0.000634817 -0.000531506 0)
(-0.000395295 -0.000375228 0)
(-0.000215806 -0.00022798 0)
(-9.23071e-05 -9.62967e-05 0)
(-1.87313e-05 1.1366e-05 0)
(1.33819e-05 8.42179e-05 0)
(1.61062e-05 0.000108655 0)
(5.95733e-06 6.65438e-05 0)
(2.23806e-06 -6.67238e-05 0)
(-5.11177e-06 -8.73645e-05 0)
(-4.32757e-05 -2.52207e-05 0)
(-0.00012488 9.78061e-05 0)
(-0.000260161 0.000264353 0)
(-0.000456809 0.000460506 0)
(-0.000720124 0.000675284 0)
(-0.00105341 0.000900163 0)
(-0.0014583 0.00112853 0)
(-0.00193497 0.00135527 0)
(-0.00248239 0.00157645 0)
(-0.00309853 0.00178906 0)
(-0.00378054 0.00199081 0)
(-0.00452494 0.00217995 0)
(-0.00532771 0.00235519 0)
(-0.00618443 0.00251562 0)
(-0.00709037 0.00266056 0)
(-0.00804057 0.00278959 0)
(-0.00902992 0.00290246 0)
(-0.0100532 0.00299906 0)
(-0.0111051 0.00307942 0)
(-0.0121804 0.00314364 0)
(-0.0132737 0.00319192 0)
(-0.0143799 0.00322454 0)
(-0.0154938 0.0032418 0)
(-0.0166103 0.00324406 0)
(-0.0177245 0.00323173 0)
(-0.0188315 0.00320525 0)
(-0.0199266 0.00316507 0)
(-0.0210054 0.00311167 0)
(-0.0220633 0.00304556 0)
(-0.0230962 0.00296725 0)
(-0.0240999 0.00287726 0)
(-0.0250707 0.00277615 0)
(-0.0260048 0.00266445 0)
(-0.0268987 0.00254274 0)
(-0.027749 0.00241156 0)
(-0.0285527 0.0022715 0)
(-0.0293068 0.00212314 0)
(-0.0300085 0.00196707 0)
(-0.0306553 0.00180387 0)
(-0.0312449 0.00163414 0)
(-0.0317751 0.00145851 0)
(-0.032244 0.00127757 0)
(-0.03265 0.00109195 0)
(-0.0329915 0.000902284 0)
(-0.0332673 0.000709202 0)
(-0.0334763 0.000513349 0)
(-0.0336177 0.000315381 0)
(-0.0336909 0.000115957 0)
(-0.0336955 -8.42528e-05 0)
(-0.0336314 -0.000284572 0)
(-0.0334987 -0.000484312 0)
(-0.0332977 -0.000682779 0)
(-0.0330289 -0.000879275 0)
(-0.0326933 -0.00107309 0)
(-0.0322918 -0.0012635 0)
(-0.0318258 -0.0014498 0)
(-0.0312968 -0.00163126 0)
(-0.0307066 -0.00180716 0)
(-0.0300572 -0.00197675 0)
(-0.029351 -0.00213932 0)
(-0.0285904 -0.00229414 0)
(-0.0277782 -0.00244049 0)
(-0.0269175 -0.00257765 0)
(-0.0260115 -0.00270492 0)
(-0.0250637 -0.0028216 0)
(-0.0240777 -0.00292702 0)
(-0.0230576 -0.00302052 0)
(-0.0220075 -0.00310145 0)
(-0.0209317 -0.00316921 0)
(-0.0198348 -0.00322321 0)
(-0.0187215 -0.0032629 0)
(-0.0175967 -0.00328777 0)
(-0.0164654 -0.00329736 0)
(-0.0153328 -0.00329124 0)
(-0.0142042 -0.00326906 0)
(-0.013085 -0.00323052 0)
(-0.0119807 -0.00317539 0)
(-0.0108967 -0.00310352 0)
(-0.00983851 -0.00301486 0)
(-0.00881164 -0.00290946 0)
(-0.00782149 -0.00278747 0)
(-0.00687334 -0.00264922 0)
(-0.0059723 -0.00249517 0)
(-0.00512326 -0.00232599 0)
(-0.00433082 -0.0021426 0)
(-0.00359919 -0.00194618 0)
(-0.00293208 -0.00173828 0)
(-0.00233264 -0.00152087 0)
(-0.00180326 -0.00129651 0)
(-0.0013455 -0.0010684 0)
(-0.000959826 -0.000840664 0)
(-0.000645483 -0.00061851 0)
(-0.000400239 -0.000408577 0)
(-0.000220159 -0.00021929 0)
(-9.93461e-05 -6.1316e-05 0)
(-2.96138e-05 5.19877e-05 0)
(-3.15147e-08 0.000103983 0)
(3.13652e-06 7.2488e-05 0)
(-9.68008e-07 -6.07989e-05 0)
(-2.40464e-05 -5.23307e-05 0)
(-9.40981e-05 5.2832e-05 0)
(-0.000219834 0.000229892 0)
(-0.000409626 0.00045895 0)
(-0.000670366 0.000723748 0)
(-0.00100677 0.00101131 0)
(-0.00142172 0.00131129 0)
(-0.00191648 0.00161555 0)
(-0.00249095 0.00191765 0)
(-0.00314383 0.00221254 0)
(-0.0038728 0.00249629 0)
(-0.00467471 0.00276583 0)
(-0.0055457 0.00301883 0)
(-0.00648134 0.00325349 0)
(-0.00747677 0.00346851 0)
(-0.00852677 0.00366294 0)
(-0.00962584 0.00383612 0)
(-0.0107683 0.00398767 0)
(-0.0119483 0.00411738 0)
(-0.01316 0.00422523 0)
(-0.0143975 0.00431132 0)
(-0.0156548 0.00437589 0)
(-0.0169261 0.00441925 0)
(-0.0182055 0.00444179 0)
(-0.0194874 0.004444 0)
(-0.0207661 0.00442638 0)
(-0.0220361 0.00438951 0)
(-0.0232922 0.00433399 0)
(-0.0245292 0.00426047 0)
(-0.0257421 0.00416962 0)
(-0.026926 0.00406212 0)
(-0.0280764 0.0039387 0)
(-0.0291889 0.00380007 0)
(-0.0302592 0.00364699 0)
(-0.0312832 0.00348021 0)
(-0.0322573 0.00330051 0)
(-0.0331779 0.00310867 0)
(-0.0340415 0.00290547 0)
(-0.0348451 0.00269173 0)
(-0.0355857 0.00246824 0)
(-0.0362608 0.00223585 0)
(-0.0368678 0.00199536 0)
(-0.0374046 0.00174764 0)
(-0.0378693 0.00149352 0)
(-0.0382601 0.00123387 0)
(-0.0385756 0.000969569 0)
(-0.0388146 0.000701491 0)
(-0.0389762 0.000430534 0)
(-0.0390597 0.000157604 0)
(-0.0390647 -0.000116382 0)
(-0.038991 -0.000390495 0)
(-0.0388387 -0.000663797 0)
(-0.0386083 -0.000935338 0)
(-0.0383003 -0.00120416 0)
(-0.0379158 -0.00146929 0)
(-0.0374559 -0.00172975 0)
(-0.0369222 -0.00198457 0)
(-0.0363164 -0.00223275 0)
(-0.0356405 -0.00247331 0)
(-0.0348968 -0.00270524 0)
(-0.0340881 -0.00292757 0)
(-0.0332172 -0.0031393 0)
(-0.0322872 -0.00333944 0)
(-0.0313016 -0.00352704 0)
(-0.030264 -0.00370114 0)
(-0.0291786 -0.00386079 0)
(-0.0280494 -0.00400508 0)
(-0.0268809 -0.00413312 0)
(-0.0256779 -0.00424405 0)
(-0.0244452 -0.00433705 0)
(-0.0231882 -0.00441133 0)
(-0.021912 -0.00446616 0)
(-0.0206222 -0.00450086 0)
(-0.0193246 -0.00451482 0)
(-0.0180249 -0.00450748 0)
(-0.0167292 -0.00447839 0)
(-0.0154436 -0.00442716 0)
(-0.014174 -0.00435351 0)
(-0.0129268 -0.00425727 0)
(-0.0117081 -0.0041384 0)
(-0.010524 -0.00399702 0)
(-0.00938052 -0.00383338 0)
(-0.00828358 -0.00364796 0)
(-0.00723887 -0.00344146 0)
(-0.0062518 -0.00321482 0)
(-0.00532746 -0.00296932 0)
(-0.00447049 -0.00270662 0)
(-0.003685 -0.00242882 0)
(-0.00297447 -0.00213861 0)
(-0.00234159 -0.00183933 0)
(-0.00178815 -0.00153521 0)
(-0.00131487 -0.00123151 0)
(-0.000921216 -0.000934801 0)
(-0.000605231 -0.000653296 0)
(-0.00036336 -0.000397203 0)
(-0.000190197 -0.000179217 0)
(-7.8209e-05 -1.4973e-05 0)
(-1.81715e-05 7.63189e-05 0)
(3.91823e-08 6.93874e-05 0)
(-4.2437e-06 -4.47893e-05 0)
(-4.38817e-05 8.87498e-06 0)
(-0.000147833 0.000170442 0)
(-0.00032056 0.000413094 0)
(-0.000568167 0.000714878 0)
(-0.000896508 0.00105767 0)
(-0.00130946 0.00142664 0)
(-0.00180922 0.00180988 0)
(-0.00239654 0.00219778 0)
(-0.0030709 0.00258264 0)
(-0.0038306 0.00295833 0)
(-0.00467298 0.00331997 0)
(-0.00559452 0.00366373 0)
(-0.006591 0.00398661 0)
(-0.00765758 0.0042863 0)
(-0.00878898 0.00456108 0)
(-0.00997951 0.00480966 0)
(-0.0112232 0.00503115 0)
(-0.0125138 0.00522498 0)
(-0.0138451 0.00539083 0)
(-0.0152105 0.00552863 0)
(-0.0166036 0.00563844 0)
(-0.0180179 0.00572053 0)
(-0.0194469 0.00577525 0)
(-0.0208842 0.0058031 0)
(-0.0223236 0.00580463 0)
(-0.0237587 0.0057805 0)
(-0.0251837 0.00573142 0)
(-0.0265925 0.00565816 0)
(-0.0279795 0.00556153 0)
(-0.0293392 0.00544239 0)
(-0.0306661 0.00530162 0)
(-0.0319553 0.00514014 0)
(-0.0332016 0.00495888 0)
(-0.0344006 0.00475881 0)
(-0.0355476 0.00454092 0)
(-0.0366385 0.0043062 0)
(-0.0376693 0.00405567 0)
(-0.0386363 0.00379036 0)
(-0.039536 0.0035113 0)
(-0.0403651 0.00321956 0)
(-0.0411207 0.00291622 0)
(-0.0418001 0.00260234 0)
(-0.0424008 0.00227904 0)
(-0.0429208 0.00194742 0)
(-0.043358 0.00160861 0)
(-0.043711 0.00126374 0)
(-0.0439783 0.000913972 0)
(-0.0441589 0.000560472 0)
(-0.0442521 0.000204421 0)
(-0.0442575 -0.000152984 0)
(-0.0441748 -0.000510531 0)
(-0.0440041 -0.000866998 0)
(-0.0437461 -0.00122115 0)
(-0.0434012 -0.00157173 0)
(-0.0429707 -0.00191748 0)
(-0.0424559 -0.00225713 0)
(-0.0418584 -0.0025894 0)
(-0.0411803 -0.00291301 0)
(-0.0404237 -0.00322667 0)
(-0.0395913 -0.00352909 0)
(-0.0386861 -0.00381899 0)
(-0.0377112 -0.00409509 0)
(-0.0366701 -0.00435611 0)
(-0.0355667 -0.00460081 0)
(-0.0344051 -0.00482794 0)
(-0.0331896 -0.0050363 0)
(-0.0319251 -0.00522471 0)
(-0.0306164 -0.00539201 0)
(-0.0292688 -0.0055371 0)
(-0.0278877 -0.00565893 0)
(-0.0264789 -0.0057565 0)
(-0.0250482 -0.00582886 0)
(-0.0236018 -0.00587518 0)
(-0.0221461 -0.00589465 0)
(-0.0206873 -0.00588661 0)
(-0.0192323 -0.00585046 0)
(-0.0177875 -0.00578575 0)
(-0.0163598 -0.00569215 0)
(-0.0149559 -0.00556948 0)
(-0.0135827 -0.00541772 0)
(-0.0122468 -0.00523707 0)
(-0.0109548 -0.00502791 0)
(-0.00971317 -0.0047909 0)
(-0.00852813 -0.00452698 0)
(-0.00740558 -0.00423743 0)
(-0.00635105 -0.00392394 0)
(-0.00536961 -0.00358866 0)
(-0.00446576 -0.00323432 0)
(-0.00364333 -0.00286431 0)
(-0.00290535 -0.00248284 0)
(-0.00225394 -0.00209513 0)
(-0.00169015 -0.00170761 0)
(-0.00121383 -0.00132815 0)
(-0.000823477 -0.000966435 0)
(-0.000516142 -0.000634317 0)
(-0.000287161 -0.000346283 0)
(-0.000129929 -0.000119908 0)
(-3.72876e-05 2.35396e-05 0)
(-3.13938e-06 5.65787e-05 0)
(-7.48917e-06 -1.84766e-05 0)
(-6.39978e-05 9.72759e-05 0)
(-0.000202878 0.000329414 0)
(-0.000424211 0.000649758 0)
(-0.000731687 0.00103488 0)
(-0.00112991 0.00146506 0)
(-0.00162175 0.00192402 0)
(-0.00220853 0.00239838 0)
(-0.00289034 0.00287724 0)
(-0.0036661 0.00335172 0)
(-0.00453364 0.00381465 0)
(-0.00548986 0.00426024 0)
(-0.00653082 0.00468388 0)
(-0.00765191 0.00508192 0)
(-0.00884788 0.00545151 0)
(-0.010113 0.00579048 0)
(-0.0114412 0.00609719 0)
(-0.012826 0.00637049 0)
(-0.0142608 0.00660961 0)
(-0.0157386 0.0068141 0)
(-0.0172527 0.00698379 0)
(-0.0187959 0.00711874 0)
(-0.0203612 0.00721921 0)
(-0.0219416 0.0072856 0)
(-0.0235303 0.00731848 0)
(-0.0251203 0.00731853 0)
(-0.026705 0.00728653 0)
(-0.0282778 0.00722333 0)
(-0.0298322 0.00712988 0)
(-0.0313621 0.00700717 0)
(-0.0328614 0.00685625 0)
(-0.0343243 0.00667822 0)
(-0.0357451 0.00647421 0)
(-0.0371186 0.0062454 0)
(-0.0384396 0.00599298 0)
(-0.0397032 0.00571819 0)
(-0.0409048 0.00542226 0)
(-0.0420401 0.00510648 0)
(-0.043105 0.00477213 0)
(-0.0440956 0.00442052 0)
(-0.0450084 0.00405298 0)
(-0.0458403 0.00367086 0)
(-0.0465881 0.00327552 0)
(-0.0472494 0.00286834 0)
(-0.0478216 0.00245071 0)
(-0.0483028 0.00202407 0)
(-0.0486911 0.00158983 0)
(-0.0489852 0.00114945 0)
(-0.0491839 0.000704396 0)
(-0.0492864 0.000256163 0)
(-0.0492922 -0.000193749 0)
(-0.049201 -0.000643816 0)
(-0.0490132 -0.0010925 0)
(-0.0487291 -0.00153824 0)
(-0.0483495 -0.00197948 0)
(-0.0478756 -0.00241462 0)
(-0.047309 -0.00284207 0)
(-0.0466514 -0.00326024 0)
(-0.0459049 -0.0036675 0)
(-0.0450722 -0.00406225 0)
(-0.044156 -0.00444287 0)
(-0.0431595 -0.00480776 0)
(-0.0420863 -0.00515531 0)
(-0.0409401 -0.00548394 0)
(-0.0397252 -0.00579208 0)
(-0.0384461 -0.0060782 0)
(-0.0371075 -0.00634077 0)
(-0.0357146 -0.00657833 0)
(-0.0342729 -0.00678946 0)
(-0.0327879 -0.00697278 0)
(-0.0312656 -0.00712699 0)
(-0.0297123 -0.00725086 0)
(-0.0281345 -0.00734323 0)
(-0.0265386 -0.00740304 0)
(-0.0249317 -0.00742935 0)
(-0.0233208 -0.00742133 0)
(-0.0217128 -0.00737829 0)
(-0.0201152 -0.00729967 0)
(-0.0185352 -0.0071851 0)
(-0.0169802 -0.0070344 0)
(-0.0154575 -0.00684759 0)
(-0.0139742 -0.00662495 0)
(-0.0125376 -0.00636702 0)
(-0.0111547 -0.00607466 0)
(-0.00983196 -0.00574909 0)
(-0.00857593 -0.00539193 0)
(-0.00739254 -0.00500532 0)
(-0.00628727 -0.00459194 0)
(-0.00526504 -0.00415513 0)
(-0.00433005 -0.00369903 0)
(-0.00348574 -0.00322873 0)
(-0.00273462 -0.00275042 0)
(-0.00207819 -0.00227162 0)
(-0.0015168 -0.00180147 0)
(-0.00104958 -0.00135099 0)
(-0.000674338 -0.0009335 0)
(-0.000387344 -0.00056503 0)
(-0.000183114 -0.000264741 0)
(-5.67405e-05 -5.54739e-05 0)
(-6.29478e-06 3.38095e-05 0)
(-1.06582e-05 1.81237e-05 0)
(-8.402e-05 0.000213248 0)
(-0.000258166 0.000530601 0)
(-0.000528848 0.000941207 0)
(-0.000897277 0.00142056 0)
(-0.00136672 0.00194775 0)
(-0.00193887 0.00250524 0)
(-0.00261409 0.00307846 0)
(-0.00339167 0.00365535 0)
(-0.00426985 0.00422595 0)
(-0.0052459 0.0047821 0)
(-0.00631621 0.00531718 0)
(-0.00747637 0.0058258 0)
(-0.00872133 0.00630369 0)
(-0.0100454 0.00674744 0)
(-0.0114425 0.00715443 0)
(-0.012906 0.00752268 0)
(-0.014429 0.00785074 0)
(-0.0160045 0.00813763 0)
(-0.0176251 0.00838276 0)
(-0.0192835 0.00858586 0)
(-0.0209721 0.00874696 0)
(-0.0226834 0.00886632 0)
(-0.02441 0.00894439 0)
(-0.0261444 0.00898181 0)
(-0.0278793 0.00897937 0)
(-0.0296075 0.00893797 0)
(-0.031322 0.00885864 0)
(-0.0330158 0.00874249 0)
(-0.0346823 0.00859071 0)
(-0.0363151 0.00840457 0)
(-0.0379077 0.00818537 0)
(-0.0394542 0.0079345 0)
(-0.0409489 0.00765337 0)
(-0.0423861 0.00734343 0)
(-0.0437607 0.00700617 0)
(-0.0450677 0.00664312 0)
(-0.0463023 0.00625581 0)
(-0.0474602 0.00584582 0)
(-0.0485373 0.00541476 0)
(-0.0495297 0.00496425 0)
(-0.0504339 0.00449592 0)
(-0.0512468 0.00401145 0)
(-0.0519655 0.00351252 0)
(-0.0525875 0.00300084 0)
(-0.0531104 0.00247815 0)
(-0.0535325 0.00194621 0)
(-0.0538521 0.00140677 0)
(-0.054068 0.000861652 0)
(-0.0541794 0.000312665 0)
(-0.0541857 -0.000238349 0)
(-0.0540867 -0.000789528 0)
(-0.0538826 -0.00133899 0)
(-0.0535739 -0.00188483 0)
(-0.0531616 -0.00242514 0)
(-0.0526468 -0.00295798 0)
(-0.0520311 -0.00348141 0)
(-0.0513166 -0.00399347 0)
(-0.0505055 -0.00449219 0)
(-0.0496006 -0.00497562 0)
(-0.048605 -0.00544178 0)
(-0.047522 -0.00588872 0)
(-0.0463554 -0.00631449 0)
(-0.0451095 -0.00671716 0)
(-0.0437887 -0.00709484 0)
(-0.0423978 -0.00744565 0)
(-0.0409421 -0.00776775 0)
(-0.039427 -0.00805938 0)
(-0.0378584 -0.00831879 0)
(-0.0362423 -0.00854435 0)
(-0.0345852 -0.00873447 0)
(-0.0328938 -0.00888768 0)
(-0.0311749 -0.00900258 0)
(-0.0294358 -0.00907791 0)
(-0.0276838 -0.00911256 0)
(-0.0259263 -0.00910553 0)
(-0.0241711 -0.00905601 0)
(-0.0224259 -0.00896336 0)
(-0.0206986 -0.00882719 0)
(-0.0189969 -0.00864728 0)
(-0.0173288 -0.00842373 0)
(-0.0157019 -0.0081569 0)
(-0.0141239 -0.0078475 0)
(-0.0126022 -0.00749661 0)
(-0.011144 -0.00710573 0)
(-0.00975602 -0.00667688 0)
(-0.0084448 -0.00621262 0)
(-0.0072162 -0.00571618 0)
(-0.00607556 -0.00519156 0)
(-0.00502753 -0.00464361 0)
(-0.00407598 -0.00407827 0)
(-0.00322392 -0.00350268 0)
(-0.00247338 -0.00292542 0)
(-0.00182533 -0.00235675 0)
(-0.00127963 -0.00180892 0)
(-0.000834994 -0.00129653 0)
(-0.000488759 -0.000836895 0)
(-0.000236671 -0.000450446 0)
(-7.61396e-05 -0.000161163 0)
(-9.3735e-06 1.07456e-06 0)
(-1.37194e-05 6.48597e-05 0)
(-0.000103729 0.000356736 0)
(-0.000313025 0.000774232 0)
(-0.000633172 0.00128796 0)
(-0.00106294 0.00187271 0)
(-0.00160419 0.0025067 0)
(-0.00225739 0.00317138 0)
(-0.00302183 0.00385117 0)
(-0.0038959 0.00453299 0)
(-0.00487709 0.00520595 0)
(-0.005962 0.00586102 0)
(-0.00714647 0.00649073 0)
(-0.00842556 0.00708902 0)
(-0.00979371 0.00765098 0)
(-0.0112448 0.00817268 0)
(-0.0127723 0.00865105 0)
(-0.0143691 0.00908375 0)
(-0.016028 0.00946904 0)
(-0.0177414 0.00980574 0)
(-0.0195016 0.0100931 0)
(-0.0213007 0.0103307 0)
(-0.0231308 0.0105187 0)
(-0.0249838 0.0106571 0)
(-0.026852 0.0107466 0)
(-0.0287274 0.0107878 0)
(-0.0306022 0.0107817 0)
(-0.0324689 0.0107292 0)
(-0.0343198 0.0106317 0)
(-0.0361477 0.0104903 0)
(-0.0379455 0.0103064 0)
(-0.0397062 0.0100816 0)
(-0.0414233 0.00981739 0)
(-0.0430902 0.00951541 0)
(-0.0447008 0.00917731 0)
(-0.0462493 0.00880484 0)
(-0.04773 0.00839976 0)
(-0.0491376 0.00796387 0)
(-0.0504671 0.00749902 0)
(-0.0517138 0.00700709 0)
(-0.0528734 0.00648998 0)
(-0.0539417 0.00594964 0)
(-0.054915 0.00538803 0)
(-0.05579 0.00480713 0)
(-0.0565635 0.00420897 0)
(-0.0572329 0.00359559 0)
(-0.0577957 0.00296906 0)
(-0.05825 0.00233149 0)
(-0.058594 0.00168499 0)
(-0.0588265 0.00103171 0)
(-0.0589465 0.000373838 0)
(-0.0589535 -0.000286434 0)
(-0.0588472 -0.000946878 0)
(-0.0586279 -0.00160525 0)
(-0.0582961 -0.00225927 0)
(-0.0578527 -0.00290665 0)
(-0.0572991 -0.00354509 0)
(-0.056637 -0.00417227 0)
(-0.0558685 -0.00478584 0)
(-0.0549961 -0.00538346 0)
(-0.0540227 -0.00596281 0)
(-0.0529514 -0.00652152 0)
(-0.0517861 -0.00705728 0)
(-0.0505308 -0.00756776 0)
(-0.0491898 -0.00805068 0)
(-0.047768 -0.00850377 0)
(-0.0462704 -0.0089248 0)
(-0.0447028 -0.00931161 0)
(-0.0430708 -0.00966209 0)
(-0.0413807 -0.00997419 0)
(-0.039639 -0.010246 0)
(-0.0378525 -0.0104755 0)
(-0.0360284 -0.0106611 0)
(-0.0341739 -0.0108012 0)