/*--------------------------------*- C++ -*----------------------------------*\
  =========                 |
  \\      /  F ield         | OpenFOAM: The Open Source CFD Toolbox
   \\    /   O peration     | Website:  https://openfoam.org
    \\  /    A nd           | Version:  11
     \\/     M anipulation  |
\*---------------------------------------------------------------------------*/
FoamFile
{
    format      ascii;
    class       surfaceScalarField;
    location    "9.2";
    object      phi;
}
// * * * * * * * * * * * * * * * * * * * * * * * * * * * * * * * * * * * * * //

dimensions      [0 3 -1 0 0 0 0];

internalField   nonuniform List<scalar> 
19980
(
7.03237e-07
-7.02772e-07
2.49689e-06
-1.79359e-06
4.54607e-06
-2.04914e-06
6.19075e-06
-1.64473e-06
7.0635e-06
-8.72845e-07
6.9769e-06
8.66632e-08
5.84251e-06
1.13432e-06
3.63286e-06
2.20977e-06
3.56103e-07
3.27673e-06
-3.9566e-06
4.31267e-06
-9.25935e-06
5.30292e-06
-1.54968e-05
6.23736e-06
-2.26068e-05
7.10999e-06
-3.05236e-05
7.91663e-06
-3.91787e-05
8.65521e-06
-4.85029e-05
9.32422e-06
-5.84262e-05
9.92349e-06
-6.88784e-05
1.04521e-05
-7.97902e-05
1.09118e-05
-9.10932e-05
1.13029e-05
-0.00010272
1.16271e-05
-0.000114605
1.18853e-05
-0.000126685
1.20792e-05
-0.000138895
1.22108e-05
-0.000151177
1.22817e-05
-0.000163471
1.22938e-05
-0.000175721
1.22493e-05
-0.000187871
1.21501e-05
-0.000199869
1.19983e-05
-0.000211665
1.17961e-05
-0.000223211
1.15454e-05
-0.000234459
1.12483e-05
-0.000245366
1.09072e-05
-0.00025589
1.05241e-05
-0.000265991
1.0101e-05
-0.000275631
9.64019e-06
-0.000284775
9.1438e-06
-0.000293389
8.61402e-06
-0.000301442
8.05296e-06
-0.000308905
7.46277e-06
-0.000315751
6.84575e-06
-0.000321955
6.20423e-06
-0.000327495
5.54045e-06
-0.000332352
4.85661e-06
-0.000336507
4.15496e-06
-0.000339945
3.43792e-06
-0.000342653
2.70795e-06
-0.00034462
1.96738e-06
-0.000345839
1.21858e-06
-0.000346303
4.63912e-07
-0.000346008
-2.94171e-07
-0.000344955
-1.05301e-06
-0.000343145
-1.80998e-06
-0.000340583
-2.56256e-06
-0.000337275
-3.30808e-06
-0.000333231
-4.04386e-06
-0.000328464
-4.7674e-06
-0.000322987
-5.47606e-06
-0.000316821
-6.16686e-06
-0.000309984
-6.83682e-06
-0.000302501
-7.48314e-06
-0.000294398
-8.1031e-06
-0.000285704
-8.69392e-06
-0.000276451
-9.25288e-06
-0.000266674
-9.77718e-06
-0.00025641
-1.02639e-05
-0.0002457
-1.071e-05
-0.000234587
-1.11131e-05
-0.000223116
-1.14706e-05
-0.000211336
-1.17799e-05
-0.000199298
-1.20384e-05
-0.000187054
-1.22437e-05
-0.000174661
-1.23934e-05
-0.000162175
-1.24854e-05
-0.000149658
-1.25175e-05
-0.00013717
-1.24878e-05
-0.000124775
-1.23945e-05
-0.000112539
-1.2236e-05
-0.000100529
-1.20106e-05
-8.88118e-05
-1.17172e-05
-7.74571e-05
-1.13547e-05
-6.65348e-05
-1.09224e-05
-5.61147e-05
-1.04201e-05
-4.62669e-05
-9.84784e-06
-3.70605e-05
-9.20642e-06
-2.85634e-05
-8.49706e-06
-2.08418e-05
-7.72165e-06
-1.39587e-05
-6.88302e-06
-7.97338e-06
-5.9853e-06
-2.93896e-06
-5.03441e-06
1.09975e-06
-4.03871e-06
4.10978e-06
-3.01001e-06
6.07518e-06
-1.96536e-06
7.00509e-06
-9.29878e-07
6.94657e-06
5.85129e-08
6.00532e-06
9.4124e-07
4.37797e-06
1.62734e-06
2.40721e-06
1.97072e-06
6.75874e-07
1.73134e-06
6.75861e-07
1.64306e-06
-2.34581e-06
4.65102e-06
-4.80176e-06
7.67147e-06
-5.06961e-06
9.59974e-06
-3.57283e-06
9.66995e-06
-9.43054e-07
7.40201e-06
2.35459e-06
2.52437e-06
6.01202e-06
-5.0919e-06
9.82589e-06
-1.54751e-05
1.36599e-05
-2.85846e-05
1.74221e-05
-4.43315e-05
2.10497e-05
-6.25928e-05
2.44986e-05
-8.32216e-05
2.77389e-05
-0.000106055
3.07502e-05
-0.000130919
3.35188e-05
-0.000157631
3.60359e-05
-0.000186005
3.82972e-05
-0.000215852
4.03e-05
-0.000246986
4.20449e-05
-0.000279216
4.35336e-05
-0.000312358
4.47691e-05
-0.000346229
4.57562e-05
-0.00038065
4.64998e-05
-0.000415444
4.70055e-05
-0.000450442
4.72797e-05
-0.000485477
4.73293e-05
-0.000520389
4.71613e-05
-0.000555022
4.67831e-05
-0.000589226
4.62024e-05
-0.000622857
4.54271e-05
-0.000655776
4.44648e-05
-0.000687852
4.33237e-05
-0.000718956
4.20121e-05
-0.00074897
4.0538e-05
-0.000777779
3.89095e-05
-0.000805273
3.71349e-05
-0.000831352
3.52225e-05
-0.000855918
3.31808e-05
-0.000878884
3.10181e-05
-0.000900164
2.8743e-05
-0.000919682
2.63642e-05
-0.000937368
2.38904e-05
-0.000953158
2.13304e-05
-0.000966995
1.8693e-05
-0.000978827
1.59871e-05
-0.000988611
1.32219e-05
-0.000996309
1.04066e-05
-0.00100189
7.55042e-06
-0.00100534
4.66268e-06
-0.00100663
1.75296e-06
-0.00100575
-1.16913e-06
-0.00100271
-4.09385e-06
-0.000997508
-7.01113e-06
-0.00099016
-9.91084e-06
-0.000980685
-1.27828e-05
-0.000969112
-1.56168e-05
-0.000955477
-1.84025e-05
-0.000939824
-2.11293e-05
-0.000922204
-2.37866e-05
-0.000902678
-2.63632e-05
-0.000881313
-2.88485e-05
-0.000858184
-3.12316e-05
-0.000833376
-3.35021e-05
-0.00080698
-3.5649e-05
-0.000779095
-3.76617e-05
-0.00074983
-3.95292e-05
-0.000719299
-4.12411e-05
-0.000687625
-4.27873e-05
-0.000654938
-4.41576e-05
-0.000621375
-4.53425e-05
-0.000587081
-4.63323e-05
-0.000552207
-4.71179e-05
-0.00051691
-4.76906e-05
-0.000481353
-4.8042e-05
-0.000445706
-4.81646e-05
-0.000410142
-4.80513e-05
-0.000374842
-4.76955e-05
-0.000339986
-4.70915e-05
-0.000305762
-4.62343e-05
-0.00027236
-4.512e-05
-0.000239969
-4.37457e-05
-0.000208781
-4.21099e-05
-0.000178988
-4.02127e-05
-0.00015078
-3.8056e-05
-0.000124343
-3.56441e-05
-9.98562e-05
-3.29834e-05
-7.74939e-05
-3.00839e-05
-5.74176e-05
-2.69593e-05
-3.9774e-05
-2.36289e-05
-2.46893e-05
-2.0119e-05
-1.22621e-05
-1.64658e-05
-2.55332e-06
-1.27188e-05
4.42766e-06
-8.94632e-06
8.74213e-06
-5.24432e-06
1.05491e-05
-1.74844e-06
1.0143e-05
1.34736e-06
8.00428e-06
3.76604e-06
4.85951e-06
5.11545e-06
1.731e-06
4.85984e-06
2.40686e-06
1.74823e-06
-4.09398e-06
4.52155e-06
-7.57499e-06
6.69352e-06
-7.24168e-06
6.98585e-06
-3.86523e-06
4.45432e-06
1.58838e-06
-1.54125e-06
8.3501e-06
-1.13993e-05
1.587e-05
-2.5332e-05
2.3759e-05
-4.34131e-05
3.17407e-05
-6.56113e-05
3.96205e-05
-9.18193e-05
4.72578e-05
-0.000121874
5.45528e-05
-0.000155568
6.14338e-05
-0.000192668
6.78504e-05
-0.000232917
7.37668e-05
-0.000276041
7.91606e-05
-0.00032176
8.40158e-05
-0.000369785
8.83251e-05
-0.000419825
9.20851e-05
-0.00047159
9.52981e-05
-0.000524789
9.79682e-05
-0.000579136
0.000100103
-0.000634349
0.000101712
-0.00069015
0.000102807
-0.00074627
0.0001034
-0.000802446
0.000103505
-0.00085842
0.000103136
-0.000913946
0.000102309
-0.000968784
0.000101041
-0.0010227
9.93465e-05
-0.00107548
9.72439e-05
-0.00112691
9.47501e-05
-0.00117678
9.18826e-05
-0.0012249
8.8659e-05
-0.00127109
8.50972e-05
-0.00131517
8.12153e-05
-0.00135698
7.70314e-05
-0.00139636
7.2564e-05
-0.00143317
6.78316e-05
-0.00146728
6.28528e-05
-0.00149857
5.76467e-05
-0.00152691
5.22325e-05
-0.00155221
4.66294e-05
-0.00157437
4.08567e-05
-0.00159332
3.49343e-05
-0.00160898
2.88822e-05
-0.00162129
2.27204e-05
-0.00163021
1.64694e-05
-0.0016357
1.01499e-05
-0.00163773
3.78275e-06
-0.00163629
-2.61072e-06
-0.00163137
-9.00897e-06
-0.00162299
-1.53902e-05
-0.00161117
-2.17322e-05
-0.00159594
-2.80126e-05
-0.00157735
-3.42089e-05
-0.00155545
-4.02984e-05
-0.00153033
-4.62579e-05
-0.00150205
-5.20639e-05
-0.00147072
-5.76928e-05
-0.00143645
-6.31213e-05
-0.00139935
-6.83258e-05
-0.00135957
-7.3283e-05
-0.00131725
-7.79694e-05
-0.00127255
-8.23617e-05
-0.00122564
-8.64368e-05
-0.00117671
-9.01719e-05
-0.00112595
-9.35449e-05
-0.00107358
-9.65341e-05
-0.0010198
-9.91185e-05
-0.000964857
-0.000101278
-0.000908983
-0.000102992
-0.000852431
-0.000104243
-0.00079546
-0.000105013
-0.000738339
-0.000105286
-0.000681344
-0.000105047
-0.000624757
-0.000104282
-0.000568867
-0.000102982
-0.000513967
-0.000101134
-0.000460353
-9.87335e-05
-0.000408325
-9.57744e-05
-0.000358179
-9.22555e-05
-0.000310213
-8.8179e-05
-0.000264718
-8.35511e-05
-0.000221979
-7.83832e-05
-0.00018227
-7.26925e-05
-0.00014585
-6.65037e-05
-0.000112959
-5.98506e-05
-8.38083e-05
-5.27791e-05
-5.85766e-05
-4.53507e-05
-3.73949e-05
-3.76476e-05
-2.03342e-05
-2.97794e-05
-7.38703e-06
-2.18935e-05
1.5579e-06
-1.41892e-05
6.74627e-06
-6.93685e-06
8.59822e-06
-5.04651e-07
7.75631e-06
4.60795e-06
5.13614e-06
7.73561e-06
1.97626e-06
8.0197e-06
4.38313e-06
1.35711e-06
-5.45122e-06
2.9713e-06
-9.18903e-06
3.13132e-06
-7.40175e-06
5.12523e-07
-1.2464e-06
-5.88325e-06
7.98441e-06
-1.67623e-05
1.9229e-05
-3.25841e-05
3.16919e-05
-5.36092e-05
4.47841e-05
-7.99403e-05
5.80716e-05
-0.000111555
7.12349e-05
-0.000148334
8.40373e-05
-0.000190087
9.6305e-05
-0.000236563
0.00010791
-0.000287472
0.00011876
-0.000342492
0.000128787
-0.000401276
0.000137945
-0.000463464
0.000146203
-0.000528682
0.000153543
-0.000596553
0.000159956
-0.000666696
0.000165441
-0.000738729
0.000170002
-0.000812275
0.000173649
-0.00088696
0.000176398
-0.000962417
0.000178264
-0.00103828
0.000179268
-0.00111421
0.000179432
-0.00118986
0.000178781
-0.00126489
0.000177339
-0.00133898
0.000175134
-0.00141183
0.000172194
-0.00148313
0.000168547
-0.0015526
0.000164223
-0.00161997
0.000159251
-0.00168497
0.000153661
-0.00174736
0.000147485
-0.0018069
0.000140754
-0.00186337
0.0001335
-0.00191656
0.000125753
-0.00196627
0.000117546
-0.00201233
0.000108913
-0.00205457
9.98846e-05
-0.00209283
9.04954e-05
-0.00212698
8.07786e-05
-0.00215689
7.0768e-05
-0.00218246
6.04979e-05
-0.00220358
5.00032e-05
-0.00222018
3.93188e-05
-0.00223219
2.84803e-05
-0.00223956
1.75237e-05
-0.00224226
6.48546e-06
-0.00224028
-4.59742e-06
-0.0022336
-1.56875e-05
-0.00222224
-2.67469e-05
-0.00220624
-3.7737e-05
-0.00218563
-4.86191e-05
-0.00216049
-5.93539e-05
-0.00213088
-6.9902e-05
-0.00209692
-8.02233e-05
-0.0020587
-9.02774e-05
-0.00201637
-0.000100024
-0.00197007
-0.000109422
-0.00191997
-0.000118431
-0.00186624
-0.00012701
-0.00180909
-0.00013512
-0.00174873
-0.000142721
-0.0016854
-0.000149772
-0.00161933
-0.000156234
-0.00155081
-0.000162071
-0.0014801
-0.000167244
-0.0014075
-0.000171717
-0.00133332
-0.000175456
-0.00125788
-0.000178429
-0.00118152
-0.000180602
-0.00110459
-0.000181947
-0.00102744
-0.000182437
-0.000950439
-0.000182047
-0.000873965
-0.000180756
-0.000798402
-0.000178545
-0.000724138
-0.000175399
-0.000651564
-0.000171308
-0.000581072
-0.000166266
-0.000513056
-0.000160272
-0.000447901
-0.000153334
-0.000385988
-0.000145464
-0.000327685
-0.000136687
-0.000273343
-0.000127034
-0.000223293
-0.000116553
-0.000177837
-0.000105307
-0.000137237
-9.33789e-05
-0.00010171
-8.08781e-05
-7.14093e-05
-6.79477e-05
-4.64133e-05
-5.47754e-05
-2.67004e-05
-4.16064e-05
-1.21265e-05
-2.87632e-05
-2.39356e-06
-1.66698e-05
2.98605e-06
-5.88428e-06
4.73214e-06
2.86188e-06
3.84197e-06
8.62577e-06
1.64956e-06
1.02121e-05
6.03271e-06
6.73513e-07
-6.12478e-06
4.84336e-07
-8.99987e-06
-2.19706e-06
-4.72044e-06
-8.64705e-06
5.20381e-06
-1.98403e-05
1.91774e-05
-3.64814e-05
3.58703e-05
-5.9042e-05
5.42523e-05
-8.77958e-05
7.3538e-05
-0.000122854
9.31294e-05
-0.000164191
0.000112573
-0.000211678
0.000131524
-0.000265098
0.000149724
-0.000324165
0.000166978
-0.000388545
0.000183139
-0.00045786
0.000198101
-0.000531703
0.000211788
-0.000609646
0.000224146
-0.000691244
0.000235142
-0.000776046
0.000244757
-0.00086359
0.000252985
-0.000953416
0.000259828
-0.00104507
0.000265299
-0.00113808
0.000269416
-0.00123202
0.000272202
-0.00132644
0.000273685
-0.0014209
0.000273896
-0.001515
0.000272872
-0.0016083
0.000270648
-0.00170043
0.000267265
-0.001791
0.000262764
-0.00187964
0.000257187
-0.001966
0.000250579
-0.00204973
0.000242984
-0.00213052
0.000234448
-0.00220805
0.000225018
-0.00228204
0.000214742
-0.00235221
0.000203666
-0.0024183
0.00019184
-0.00248006
0.000179312
-0.00253728
0.000166132
-0.00258975
0.000152351
-0.00263727
0.000138018
-0.00267968
0.000123186
-0.00271682
0.000107906
-0.00274855
9.22311e-05
-0.00277476
7.62134e-05
-0.00279535
5.9907e-05
-0.00281023
4.33665e-05
-0.00281936
2.6647e-05
-0.00282268
9.80413e-06
-0.00282017
-7.10546e-06
-0.00281183
-2.40246e-05
-0.00279768
-4.08952e-05
-0.00277776
-5.76586e-05
-0.00275212
-7.42556e-05
-0.00272085
-9.06262e-05
-0.00268404
-0.00010671
-0.00264182
-0.000122446
-0.00259432
-0.000137774
-0.00254172
-0.00015263
-0.00248418
-0.000166955
-0.00242193
-0.000180685
-0.00235518
-0.000193761
-0.00228418
-0.000206119
-0.0022092
-0.000217701
-0.00213052
-0.000228447
-0.00204846
-0.000238296
-0.00196334
-0.000247193
-0.0018755
-0.000255081
-0.00178531
-0.000261906
-0.00169316
-0.000267615
-0.00159942
-0.000272161
-0.00150453
-0.000275495
-0.0014089
-0.000277574
-0.00131298
-0.000278358
-0.00121722
-0.000277812
-0.00112207
-0.000275905
-0.001028
-0.000272609
-0.000935497
-0.000267906
-0.000845024
-0.000261781
-0.000757061
-0.000254228
-0.000672082
-0.000245251
-0.000590553
-0.000234863
-0.000512929
-0.000223088
-0.00043965
-0.000209965
-0.000371135
-0.000195549
-0.000307772
-0.000179916
-0.000249915
-0.000163165
-0.000197869
-0.000145425
-0.000151881
-0.000126865
-0.000112128
-0.000107701
-7.86939e-05
-8.82093e-05
-5.15555e-05
-6.87449e-05
-3.05551e-05
-4.97636e-05
-1.5375e-05
-3.18499e-05
-5.50555e-06
-1.57537e-05
-2.10183e-07
-2.43345e-06
1.51436e-06
6.90125e-06
9.91973e-07
1.07344e-05
7.02468e-06
-1.87301e-07
-5.93743e-06
-2.6078e-06
-6.57941e-06
-8.71098e-06
1.38274e-06
-1.96522e-05
1.61448e-05
-3.63266e-05
3.5852e-05
-5.93913e-05
5.89348e-05
-8.92897e-05
8.41507e-05
-0.000126279
0.000110527
-0.000170457
0.000137308
-0.000221786
0.000163902
-0.000280116
0.000189854
-0.000345205
0.000214813
-0.000416735
0.000238508
-0.00049433
0.000260734
-0.000577567
0.000281339
-0.000665988
0.000300208
-0.000759104
0.000317263
-0.000856411
0.000332449
-0.000957388
0.000345735
-0.00106151
0.000357106
-0.00116824
0.000366563
-0.00127706
0.000374116
-0.00138743
0.000379787
-0.00149883
0.000383605
-0.00161076
0.000385608
-0.0017227
0.000385836
-0.00183416
0.000384336
-0.00194467
0.000381159
-0.00205377
0.000376358
-0.00216099
0.000369989
-0.00226592
0.000362112
-0.00236813
0.000352787
-0.00246722
0.000342077
-0.00256281
0.000330044
-0.00265455
0.000316755
-0.00274208
0.000302275
-0.00282509
0.000286671
-0.00290326
0.000270012
-0.00297632
0.000252366
-0.00304399
0.000233803
-0.00310603
0.000214394
-0.00316222
0.00019421
-0.00321236
0.000173323
-0.00325626
0.000151807
-0.00329376
0.000129735
-0.00332473
0.000107182
-0.00334905
8.42235e-05
-0.00336662
6.09373e-05
-0.00337737
3.74005e-05
-0.00338126
1.36919e-05
-0.00337825
-1.01088e-05
-0.00336836
-3.39211e-05
-0.00335159
-5.76632e-05
-0.003328
-8.12525e-05
-0.00329765
-0.000104606
-0.00326063
-0.000127638
-0.00321708
-0.000150266
-0.00316712
-0.000172403
-0.00311093
-0.000193962
-0.0030487
-0.000214859
-0.00298065
-0.000235006
-0.00290702
-0.000254317
-0.00282808
-0.000272706
-0.00274411
-0.000290088
-0.00265543
-0.000306378
-0.00256238
-0.000321493
-0.00246533
-0.000335351
-0.00236465
-0.000347872
-0.00226075
-0.000358979
-0.00215406
-0.000368596
-0.00204503
-0.000376651
-0.00193411
-0.000383077
-0.0018218
-0.000387808
-0.00170858
-0.000390786
-0.00159499
-0.000391956
-0.00148153
-0.00039127
-0.00136875
-0.000388687
-0.00125718
-0.000384171
-0.00114739
-0.000377699
-0.00103992
-0.000369254
-0.000935314
-0.000358831
-0.000834127
-0.000346438
-0.000736893
-0.000332097
-0.000644132
-0.000315848
-0.000556348
-0.00029775
-0.000474014
-0.000277883
-0.000397573
-0.000256357
-0.000327421
-0.000233316
-0.000263902
-0.000208944
-0.000207295
-0.000183473
-0.000157795
-0.000157201
-0.000115505
-0.0001305
-8.0409e-05
-0.00010384
-5.23579e-05
-7.78147e-05
-3.10413e-05
-5.31666e-05
-1.59648e-05
-3.08303e-05
-6.42142e-06
-1.19769e-05
-1.46115e-06
1.94103e-06
1.4797e-07
9.12531e-06
7.17265e-06
-1.14586e-06
-4.79161e-06
-6.06658e-06
-1.65865e-06
-1.59765e-05
1.12925e-05
-3.18646e-05
3.20332e-05
-5.45081e-05
5.84952e-05
-8.44797e-05
8.89065e-05
-0.000122166
0.000121837
-0.000167782
0.000156144
-0.000221394
0.000190919
-0.000282936
0.000225443
-0.000352229
0.000259148
-0.000429002
0.000291586
-0.000512905
0.000322411
-0.000603523
0.000351352
-0.00070039
0.000378206
-0.000802999
0.000402818
-0.000910814
0.000425077
-0.00102327
0.000444908
-0.0011398
0.000462261
-0.00125981
0.000477112
-0.0013827
0.000489454
-0.00150788
0.000499298
-0.00163476
0.000506668
-0.00176275
0.000511599
-0.00189128
0.000514135
-0.00201977
0.000514329
-0.00214768
0.000512239
-0.00227445
0.000507929
-0.00239956
0.000501469
-0.0025225
0.000492932
-0.00264278
0.000482394
-0.00275993
0.000469935
-0.00287349
0.000455636
-0.00298303
0.000439582
-0.00308813
0.000421858
-0.00318841
0.000402551
-0.00328349
0.00038175
-0.00337302
0.000359546
-0.00345668
0.00033603
-0.00353418
0.000311295
-0.00360522
0.000285434
-0.00366955
0.000258542
-0.00372694
0.000230717
-0.00377719
0.000202054
-0.00382011
0.000172653
-0.00385554
0.000142614
-0.00388335
0.000112037
-0.00390344
8.10253e-05
-0.00391572
4.96817e-05
-0.00392014
1.81114e-05
-0.00391667
-1.35795e-05
-0.00390531
-4.52834e-05
-0.00388608
-7.68918e-05
-0.00385904
-0.000108295
-0.00382426
-0.000139381
-0.00378186
-0.000170039
-0.00373197
-0.000200156
-0.00367476
-0.000229618
-0.00361041
-0.000258311
-0.00353915
-0.000286121
-0.00346122
-0.000312933
-0.0033769
-0.000338633
-0.0032865
-0.000363107
-0.00319035
-0.000386242
-0.0030888
-0.000407927
-0.00298224
-0.000428051
-0.00287109
-0.000446508
-0.00275577
-0.000463191
-0.00263675
-0.000477998
-0.00251451
-0.000490832
-0.00238957
-0.000501597
-0.00226244
-0.000510206
-0.00213367
-0.000516573
-0.00200383
-0.000520623
-0.00187351
-0.000522286
-0.00174328
-0.000521499
-0.00161375
-0.00051821
-0.00148555
-0.000512377
-0.00135928
-0.000503971
-0.00123556
-0.000492972
-0.00111501
-0.000479379
-0.000998241
-0.000463207
-0.000885849
-0.000444489
-0.000778416
-0.000423282
-0.000676498
-0.000399667
-0.000580623
-0.000373758
-0.000491276
-0.000345704
-0.000408898
-0.000315695
-0.000333868
-0.000283974
-0.000266496
-0.000250846
-0.000207005
-0.000216691
-0.000155522
-0.000181984
-0.000112053
-0.000147309
-7.64757e-05
-0.000113392
-4.85107e-05
-8.11315e-05
-2.77092e-05
-5.16318e-05
-1.34299e-05
-2.62561e-05
-4.82031e-06
-6.66855e-06
-7.9495e-07
5.09993e-06
6.3777e-06
-2.15143e-06
-2.64008e-06
-9.72547e-06
5.91523e-06
-2.36811e-05
2.52485e-05
-4.48154e-05
5.31676e-05
-7.37596e-05
8.74394e-05
-0.000110979
0.000126126
-0.000156778
0.000167636
-0.000211311
0.000210677
-0.000274595
0.000254202
-0.000346521
0.00029737
-0.000426876
0.000339502
-0.000515351
0.000380061
-0.00061156
0.000418619
-0.00071505
0.000454842
-0.000825313
0.000488469
-0.0009418
0.000519304
-0.00106392
0.000547203
-0.00119108
0.000572061
-0.00132263
0.000593812
-0.00145794
0.000612419
-0.00159635
0.000627868
-0.00173722
0.000640167
-0.00187989
0.000649341
-0.00202372
0.000655431
-0.00216808
0.000658488
-0.00231232
0.000658576
-0.00245585
0.000655765
-0.00259806
0.000650136
-0.00273836
0.000641773
-0.0028762
0.000630769
-0.00301102
0.000617217
-0.0031423
0.000601219
-0.00326954
0.000582877
-0.00339226
0.000562297
-0.00350999
0.000539587
-0.0036223
0.000514859
-0.00372877
0.000488225
-0.00382902
0.0004598
-0.00392269
0.000429701
-0.00400945
0.000398046
-0.00408897
0.000364954
-0.00416097
0.000330547
-0.0042252
0.000294948
-0.00428143
0.000258282
-0.00432945
0.000220674
-0.00436909
0.000182252
-0.0044002
0.000143146
-0.00442266
0.000103485
-0.00443638
6.34033e-05
-0.0044413
2.30339e-05
-0.00443739
-1.74871e-05
-0.00442465
-5.80225e-05
-0.00440311
-9.84333e-05
-0.00437283
-0.000138579
-0.00433389
-0.000178319
-0.00428642
-0.000217509
-0.00423057
-0.000256006
-0.00416652
-0.000293666
-0.00409449
-0.000330342
-0.00401472
-0.000365889
-0.00392749
-0.000400162
-0.00383311
-0.000433015
-0.00373192
-0.000464303
-0.00362427
-0.000493884
-0.00351058
-0.000521616
-0.00339128
-0.00054736
-0.00326681
-0.000570978
-0.00313766
-0.000592339
-0.00300434
-0.000611313
-0.0028674
-0.000627776
-0.00272739
-0.00064161
-0.00258489
-0.000652702
-0.00244051
-0.00066095
-0.00229488
-0.000666256
-0.00214863
-0.000668534
-0.00200242
-0.000667708
-0.00185692
-0.000663714
-0.0017128
-0.000656503
-0.00157073
-0.000646038
-0.0014314
-0.000632303
-0.00129548
-0.000615297
-0.00116364
-0.000595043
-0.00103654
-0.00057159
-0.00091481
-0.000545014
-0.000799055
-0.000515422
-0.000689851
-0.000482962
-0.000587729
-0.000447826
-0.000493169
-0.000410254
-0.000406589
-0.000370554
-0.000328331
-0.000329103
-0.000258654
-0.000286368
-0.000197716
-0.000242922
-0.000145561
-0.000199464
-0.000102106
-0.000156847
-6.71269e-05
-0.000116111
-4.02419e-05
-7.85167e-05
-2.09033e-05
-4.55947e-05
-8.38604e-06
-1.91857e-05
-1.78292e-06
-1.5032e-06
4.59479e-06
-3.17167e-06
5.3159e-07
-1.34729e-05
1.62165e-05
-3.1607e-05
4.33822e-05
-5.81663e-05
7.97268e-05
-9.36219e-05
0.000122895
-0.000138314
0.000170818
-0.000192449
0.000221771
-0.000256102
0.00027433
-0.000329227
0.000327327
-0.000411664
0.000379807
-0.000503152
0.00043099
-0.00060334
0.00048025
-0.000711801
0.00052708
-0.000828041
0.000571082
-0.000951512
0.00061194
-0.00108162
0.000649412
-0.00121774
0.000683319
-0.0013592
0.000713528
-0.00150534
0.000739952
-0.00165546
0.00076254
-0.00180887
0.00078127
-0.00196484
0.000796145
-0.0021227
0.000807193
-0.00228172
0.000814456
-0.00244123
0.000817997
-0.00260054
0.000817887
-0.00275899
0.000814211
-0.00291592
0.000807065
-0.0030707
0.000796552
-0.00322271
0.00078278
-0.00337136
0.000765867
-0.00351607
0.000745934
-0.0036563
0.000723106
-0.00379152
0.000697514
-0.00392122
0.00066929
-0.00404493
0.000638571
-0.0041622
0.000605495
-0.00427261
0.000570206
-0.00437575
0.000532845
-0.00447127
0.00049356
-0.00455881
0.000452499
-0.00463808
0.000409811
-0.00470878
0.000365649
-0.00477066
0.000320167
-0.00482351
0.000273522
-0.00486713
0.00022587
-0.00490136
0.000177373
-0.00492606
0.000128193
-0.00494115
7.84925e-05
-0.00494656
2.8439e-05
-0.00494225
-2.17996e-05
-0.00492821
-7.20535e-05
-0.0049045
-0.000122151
-0.00487116
-0.000171918
-0.0048283
-0.00022118
-0.00477605
-0.000269759
-0.00471457
-0.000317479
-0.00464408
-0.000364161
-0.0045648
-0.000409624
-0.004477
-0.00045369
-0.00438098
-0.000496179
-0.00427708
-0.000536911
-0.00416568
-0.000575709
-0.00404716
-0.000612397
-0.00392198
-0.0006468
-0.00379059
-0.000678747
-0.0036535
-0.00070807
-0.00351123
-0.000734608
-0.00336434
-0.000758201
-0.00321342
-0.000778698
-0.00305908
-0.000795954
-0.00290195
-0.000809835
-0.00274268
-0.000820212
-0.00258197
-0.00082697
-0.0024205
-0.000830004
-0.00225898
-0.000829224
-0.00209814
-0.000824555
-0.00193871
-0.000815937
-0.00178141
-0.000803331
-0.001627
-0.000786719
-0.00147619
-0.000766106
-0.00132971
-0.000741525
-0.00118826
-0.000713038
-0.00105253
-0.000680744
-0.000923172
-0.000644779
-0.000800808
-0.000605327
-0.00068601
-0.000562623
-0.0005793
-0.000516965
-0.000481134
-0.00046872
-0.000391897
-0.000418341
-0.000311884
-0.000366381
-0.000241298
-0.000313508
-0.000180229
-0.000260532
-0.000128652
-0.000208424
-8.64095e-05
-0.000158353
-5.32082e-05
-0.000111718
-2.8612e-05
-7.01909e-05
-1.20422e-05
-3.57556e-05
-2.78345e-06
-1.07619e-05
1.81135e-06
-4.18715e-06
4.71869e-06
-1.72359e-05
2.92651e-05
-3.96031e-05
6.57496e-05
-7.16776e-05
0.000111801
-0.000113762
0.00016498
-0.000166062
0.000223117
-0.00022867
0.00028438
-0.000301575
0.000347235
-0.000384654
0.000410406
-0.000477684
0.000472837
-0.000580349
0.000533656
-0.00069225
0.000592151
-0.000812914
0.000647744
-0.000941803
0.00069997
-0.00107832
0.000748462
-0.00122184
0.000792932
-0.00137169
0.000833162
-0.00152715
0.000868994
-0.00168752
0.000900318
-0.00185205
0.000927067
-0.00201999
0.000949209
-0.00219059
0.000966746
-0.0023631
0.000979702
-0.00253677
0.000988127
-0.00271086
0.000992088
-0.00288464
0.000991669
-0.0030574
0.00098697
-0.00322843
0.0009781
-0.00339706
0.000965181
-0.00356262
0.000948342
-0.00372448
0.000927722
-0.00388201
0.000903465
-0.00403462
0.00087572
-0.00418175
0.000844643
-0.00432286
0.000810394
-0.00445742
0.000773136
-0.00458496
0.000733036
-0.00470502
0.000690264
-0.00481717
0.000644995
-0.00492101
0.000597403
-0.00501618
0.000547668
-0.00510234
0.000495971
-0.00517919
0.000442495
-0.00524645
0.000387427
-0.00530388
0.000330955
-0.00535128
0.000273271
-0.00538847
0.000214568
-0.00541532
0.000155041
-0.00543172
9.489e-05
-0.0054376
3.43143e-05
-0.00543291
-2.64826e-05
-0.00541767
-8.72955e-05
-0.00539191
-0.000147917
-0.00535569
-0.000208137
-0.00530912
-0.000267745
-0.00525235
-0.000326527
-0.00518556
-0.00038427
-0.00510897
-0.000440757
-0.00502282
-0.000495773
-0.00492741
-0.000549102
-0.00482306
-0.000600526
-0.00471014
-0.000649832
-0.00458904
-0.000696804
-0.00446021
-0.000741232
-0.0043241
-0.000782906
-0.00418123
-0.000821621
-0.00403212
-0.000857176
-0.00387735
-0.000889376
-0.00371752
-0.000918032
-0.00355326
-0.000942963
-0.00338521
-0.000963997
-0.00321408
-0.000980972
-0.00304055
-0.000993737
-0.00286536
-0.00100216
-0.00268926
-0.00100611
-0.00251301
-0.00100548
-0.00233738
-0.00100019
-0.00216314
-0.000990168
-0.0019911
-0.000975373
-0.00182204
-0.000955785
-0.00165673
-0.000931416
-0.00149594
-0.000902307
-0.00134044
-0.000868539
-0.00119096
-0.000830231
-0.00104818
-0.000787552
-0.000912791
-0.000740721
-0.000785394
-0.00069002
-0.000666558
-0.000635801
-0.000556783
-0.000578495
-0.000456496
-0.000518628
-0.000366041
-0.000456836
-0.000285671
-0.000393879
-0.000215535
-0.000330668
-0.000155674
-0.000268285
-0.000106013
-0.000208014
-6.63597e-05
-0.000151372
-3.64011e-05
-0.000100149
-1.57139e-05
-5.64428e-05
-3.77729e-06
-2.26986e-05
-1.96595e-06
-5.18632e-06
9.90515e-06
-2.09673e-05
4.5046e-05
-4.75705e-05
9.23529e-05
-8.51849e-05
0.000149415
-0.000133945
0.000213741
-0.000193915
0.000283086
-0.00026507
0.000355535
-0.000347298
0.000429463
-0.000440393
0.000503501
-0.000544061
0.000576505
-0.000657923
0.000647518
-0.000781525
0.000715753
-0.000914342
0.000780561
-0.00105579
0.000841419
-0.00120523
0.000897905
-0.00136199
0.000949688
-0.00152534
0.000996515
-0.00169455
0.0010382
-0.00186883
0.00107461
-0.00204743
0.00110566
-0.00222952
0.00113131
-0.00241434
0.00115156
-0.00260106
0.00116643
-0.00278891
0.00117597
-0.00297709
0.00118027
-0.00316484
0.00117942
-0.00335139
0.00117352
-0.003536
0.00116271
-0.00371794
0.00114712
-0.00389651
0.00112691
-0.00407103
0.00110224
-0.00424084
0.00107328
-0.00440531
0.00104019
-0.00456384
0.00100317
-0.00471584
0.000962399
-0.00486078
0.000918072
-0.00499813
0.000870385
-0.0051274
0.000819539
-0.00524814
0.000765738
-0.00535993
0.000709192
-0.00546238
0.000650111
-0.00555511
0.000588709
-0.00563782
0.000525203
-0.00571021
0.000459815
-0.00577202
0.000392767
-0.00582304
0.000324287
-0.00586307
0.000254601
-0.00589197
0.000183944
-0.00590963
0.000112549
-0.00591597
4.06546e-05
-0.00591096
-3.14995e-05
-0.00589458
-0.00010367
-0.00586689
-0.000175612
-0.00582795
-0.000247077
-0.00577788
-0.000317815
-0.00571683
-0.000387575
-0.005645
-0.000456102
-0.00556261
-0.000523144
-0.00546994
-0.000588443
-0.0053673
-0.000651746
-0.00525503
-0.000712797
-0.00513352
-0.000771342
-0.00500319
-0.000827129
-0.00486452
-0.000879908
-0.00471799
-0.000929434
-0.00456415
-0.000975464
-0.00440356
-0.00101776
-0.00423683
-0.0010561
-0.0040646
-0.00109026
-0.00388754
-0.00112002
-0.00370635
-0.00114519
-0.00352175
-0.00116557
-0.00333449
-0.00118099
-0.00314535
-0.0011913
-0.00295512
-0.00119633
-0.00276461
-0.00119599
-0.00257464
-0.00119016
-0.00238604
-0.00117877
-0.00219964
-0.00116177
-0.00201628
-0.00113914
-0.00183679
-0.00111091
-0.00166199
-0.00107711
-0.00149267
-0.00103786
-0.00132962
-0.000993283
-0.00117358
-0.000943592
-0.00102526
-0.00088904
-0.000885327
-0.000829955
-0.000754385
-0.000766742
-0.000632986
-0.000699894
-0.000521603
-0.00063001
-0.000420636
-0.000557803
-0.000330395
-0.000484121
-0.000251096
-0.000409967
-0.000182857
-0.000336524
-0.000125696
-0.000265175
-7.95267e-05
-0.000197541
-4.41682e-05
-0.000135508
-1.93543e-05
-8.12566e-05
-4.75339e-06
-3.72995e-05
-6.71934e-06
-6.16299e-06
1.6068e-05
-2.46392e-05
6.35223e-05
-5.54441e-05
0.000123158
-9.85779e-05
0.000192549
-0.00015401
0.000269173
-0.00022166
0.000350736
-0.000301382
0.000435257
-0.000392957
0.000521038
-0.000496091
0.000606635
-0.000610409
0.000690823
-0.000735466
0.000772575
-0.000870744
0.000851031
-0.00101566
0.000925482
-0.00116959
0.000995346
-0.00133184
0.00106015
-0.00150169
0.00111953
-0.00167837
0.00117319
-0.00186109
0.00122092
-0.00204905
0.00126257
-0.00224142
0.00129802
-0.00243736
0.00132725
-0.00263604
0.00135023
-0.00283661
0.001367
-0.00303824
0.0013776
-0.0032401
0.00138213
-0.00344138
0.00138069
-0.00364127
0.00137341
-0.00383899
0.00136043
-0.00403378
0.00134191
-0.00422489
0.00131803
-0.00441161
0.00128896
-0.00459324
0.0012549
-0.00476911
0.00121606
-0.00493859
0.00117265
-0.00510106
0.00112487
-0.00525595
0.00107296
-0.0054027
0.00101714
-0.00554081
0.000957649
-0.00566979
0.00089472
-0.0057892
0.000828596
-0.00589861
0.000759522
-0.00599765
0.000687749
-0.00608598
0.00061353
-0.00616328
0.00053712
-0.00622929
0.000458779
-0.00628378
0.000378772
-0.00632654
0.000297365
-0.00635743
0.000214828
-0.00637631
0.000131435
-0.00638312
4.74617e-05
-0.00637781
-3.68116e-05
-0.00636038
-0.000121102
-0.00633086
-0.000205124
-0.00628935
-0.00028859
-0.00623596
-0.000371207
-0.00617085
-0.000452685
-0.00609422
-0.000532727
-0.00600633
-0.000611039
-0.00590745
-0.000687324
-0.00579791
-0.000761285
-0.00567808
-0.000832627
-0.00554836
-0.000901054
-0.00540922
-0.000966274
-0.00526113
-0.001028
-0.00510462
-0.00108594
-0.00494026
-0.00113982
-0.00476865
-0.00118937
-0.00459044
-0.00123432
-0.00440629
-0.00127441
-0.0042169
-0.0013094
-0.00402303
-0.00133906
-0.00382543
-0.00136317
-0.0036249
-0.00138153
-0.00342224
-0.00139395
-0.00321831
-0.00140027
-0.00301394
-0.00140036
-0.00281001
-0.00139409
-0.00260739
-0.00138139
-0.00240696
-0.0013622
-0.0022096
-0.0013365
-0.00201619
-0.00130432
-0.00182759
-0.00126571
-0.00164464
-0.0012208
-0.00146817
-0.00116975
-0.00129898
-0.00111278
-0.00113782
-0.0010502
-0.000985395
-0.000982379
-0.000842368
-0.000909768
-0.000709338
-0.000832925
-0.000586834
-0.000752514
-0.000475314
-0.000669323
-0.000375154
-0.000584281
-0.000286643
-0.000498478
-0.000209985
-0.000413182
-0.000145294
-0.000329867
-9.25976e-05
-0.000250237
-5.18485e-05