/*--------------------------------*- C++ -*----------------------------------*\
  =========                 |
  \\      /  F ield         | OpenFOAM: The Open Source CFD Toolbox
   \\    /   O peration     | Website:  https://openfoam.org
    \\  /    A nd           | Version:  11
     \\/     M anipulation  |
\*---------------------------------------------------------------------------*/
FoamFile
{
    format      ascii;
    class       volVectorField;
    location    "9.2";
    object      U;
}
// * * * * * * * * * * * * * * * * * * * * * * * * * * * * * * * * * * * * * //

dimensions      [0 1 -1 0 0 0 0];

internalField   nonuniform List<vector> 
10100
(
(2.88814e-06 -3.11165e-06 0)
(1.51367e-05 -8.46678e-06 0)
(3.5388e-05 -1.00665e-05 0)
(5.49612e-05 -8.75603e-06 0)
(6.82078e-05 -6.00067e-06 0)
(7.24655e-05 -2.63116e-06 0)
(6.65143e-05 9.5841e-07 0)
(4.98406e-05 4.5509e-06 0)
(2.23823e-05 8.04153e-06 0)
(-1.56383e-05 1.13753e-05 0)
(-6.38248e-05 1.45189e-05 0)
(-0.000121652 1.74403e-05 0)
(-0.00018853 2.01438e-05 0)
(-0.000263818 2.26189e-05 0)
(-0.000346835 2.48641e-05 0)
(-0.000436897 2.68932e-05 0)
(-0.000533296 2.86934e-05 0)
(-0.000635339 3.0273e-05 0)
(-0.000742322 3.16414e-05 0)
(-0.000853555 3.28006e-05 0)
(-0.000968369 3.37565e-05 0)
(-0.00108608 3.45145e-05 0)
(-0.00120606 3.50803e-05 0)
(-0.00132766 3.54606e-05 0)
(-0.00145026 3.56621e-05 0)
(-0.00157328 3.56934e-05 0)
(-0.00169613 3.55617e-05 0)
(-0.00181826 3.52709e-05 0)
(-0.00193913 3.48264e-05 0)
(-0.00205822 3.42348e-05 0)
(-0.00217504 3.35017e-05 0)
(-0.00228912 3.26338e-05 0)
(-0.0024 3.16397e-05 0)
(-0.00250726 3.05264e-05 0)
(-0.00261048 2.92993e-05 0)
(-0.00270927 2.79634e-05 0)
(-0.00280328 2.65246e-05 0)
(-0.00289215 2.49895e-05 0)
(-0.00297555 2.33639e-05 0)
(-0.0030532 2.16537e-05 0)
(-0.00312481 1.98665e-05 0)
(-0.00319011 1.80091e-05 0)
(-0.00324889 1.60879e-05 0)
(-0.00330092 1.41091e-05 0)
(-0.00334602 1.20775e-05 0)
(-0.00338402 1.00009e-05 0)
(-0.00341477 7.88842e-06 0)
(-0.00343817 5.74588e-06 0)
(-0.00345412 3.57867e-06 0)
(-0.00346254 1.39359e-06 0)
(-0.0034634 -8.02575e-07 0)
(-0.00345666 -3.00177e-06 0)
(-0.00344234 -5.1952e-06 0)
(-0.00342046 -7.37596e-06 0)
(-0.00339109 -9.5376e-06 0)
(-0.0033543 -1.16723e-05 0)
(-0.00331021 -1.37724e-05 0)
(-0.00325895 -1.5831e-05 0)
(-0.00320069 -1.78395e-05 0)
(-0.00313562 -1.97884e-05 0)
(-0.00306396 -2.16691e-05 0)
(-0.00298596 -2.34737e-05 0)
(-0.0029019 -2.51946e-05 0)
(-0.00281209 -2.68243e-05 0)
(-0.00271685 -2.83547e-05 0)
(-0.00261655 -2.97766e-05 0)
(-0.00251158 -3.10802e-05 0)
(-0.00240235 -3.2258e-05 0)
(-0.00228932 -3.33038e-05 0)
(-0.00217295 -3.42101e-05 0)
(-0.00205373 -3.49688e-05 0)
(-0.00193219 -3.55717e-05 0)
(-0.00180886 -3.60121e-05 0)
(-0.00168433 -3.62834e-05 0)
(-0.00155917 -3.63789e-05 0)
(-0.00143399 -3.62925e-05 0)
(-0.00130942 -3.60182e-05 0)
(-0.00118611 -3.55501e-05 0)
(-0.00106472 -3.48825e-05 0)
(-0.000945917 -3.40105e-05 0)
(-0.000830393 -3.29304e-05 0)
(-0.000718842 -3.16387e-05 0)
(-0.000611965 -3.01322e-05 0)
(-0.000510462 -2.84094e-05 0)
(-0.00041503 -2.64703e-05 0)
(-0.000326357 -2.43163e-05 0)
(-0.000245115 -2.19497e-05 0)
(-0.000171953 -1.93749e-05 0)
(-0.000107486 -1.65993e-05 0)
(-5.22819e-05 -1.36349e-05 0)
(-6.83692e-06 -1.04999e-05 0)
(2.8449e-05 -7.22267e-06 0)
(5.33161e-05 -3.84878e-06 0)
(6.77078e-05 -4.51914e-07 0)
(7.18729e-05 2.84405e-06 0)
(6.65266e-05 5.82755e-06 0)
(5.30711e-05 8.13434e-06 0)
(3.40652e-05 9.1156e-06 0)
(1.46054e-05 7.67137e-06 0)
(2.81865e-06 2.81783e-06 0)
(7.0036e-06 -1.47161e-05 0)
(3.03282e-05 -3.23968e-05 0)
(6.28015e-05 -3.59852e-05 0)
(8.99549e-05 -2.82622e-05 0)
(0.000101489 -1.37071e-05 0)
(9.1376e-05 4.56123e-06 0)
(5.61234e-05 2.46832e-05 0)
(-6.15112e-06 4.5478e-05 0)
(-9.61527e-05 6.62197e-05 0)
(-0.000213767 8.64345e-05 0)
(-0.000358301 0.000105812 0)
(-0.000528664 0.000124149 0)
(-0.000723482 0.0001413 0)
(-0.000941205 0.000157181 0)
(-0.00118012 0.000171742 0)
(-0.00143845 0.000184941 0)
(-0.00171434 0.000196779 0)
(-0.0020059 0.000207233 0)
(-0.00231126 0.000216331 0)
(-0.00262854 0.000224074 0)
(-0.00295585 0.000230496 0)
(-0.00329137 0.000235619 0)
(-0.00363326 0.00023947 0)
(-0.00397976 0.000242087 0)
(-0.00432914 0.000243502 0)
(-0.00467971 0.000243754 0)
(-0.00502983 0.000242882 0)
(-0.00537793 0.000240926 0)
(-0.00572248 0.000237928 0)
(-0.006062 0.000233926 0)
(-0.00639509 0.000228962 0)
(-0.00672038 0.000223078 0)
(-0.00703659 0.000216317 0)
(-0.00734247 0.000208723 0)
(-0.00763686 0.000200336 0)
(-0.00791863 0.000191199 0)
(-0.00818675 0.000181355 0)
(-0.0084402 0.000170847 0)
(-0.00867807 0.000159718 0)
(-0.0088995 0.00014801 0)
(-0.00910367 0.00013577 0)
(-0.00928986 0.000123043 0)
(-0.00945739 0.000109873 0)
(-0.00960565 9.63055e-05 0)
(-0.00973411 8.23853e-05 0)
(-0.0098423 6.81593e-05 0)
(-0.00992979 5.36755e-05 0)
(-0.00999626 3.89822e-05 0)
(-0.0100415 2.41257e-05 0)
(-0.0100651 9.15365e-06 0)
(-0.0100672 -5.88413e-06 0)
(-0.0100476 -2.09367e-05 0)
(-0.0100064 -3.59529e-05 0)
(-0.00994362 -5.08807e-05 0)
(-0.00985945 -6.56675e-05 0)
(-0.00975413 -8.0261e-05 0)
(-0.00962799 -9.46096e-05 0)
(-0.00948143 -0.000108659 0)
(-0.00931493 -0.000122353 0)
(-0.00912904 -0.000135635 0)
(-0.0089244 -0.000148447 0)
(-0.00870173 -0.000160735 0)
(-0.00846183 -0.000172445 0)
(-0.00820558 -0.000183521 0)
(-0.00793392 -0.000193907 0)
(-0.00764789 -0.000203548 0)
(-0.00734862 -0.000212385 0)
(-0.00703728 -0.000220369 0)
(-0.00671514 -0.000227446 0)
(-0.00638355 -0.000233568 0)
(-0.0060439 -0.000238683 0)
(-0.00569768 -0.000242743 0)
(-0.00534643 -0.000245702 0)
(-0.00499175 -0.000247516 0)
(-0.00463531 -0.000248145 0)
(-0.00427882 -0.000247551 0)
(-0.00392405 -0.000245698 0)
(-0.00357282 -0.000242554 0)
(-0.00322696 -0.00023809 0)
(-0.00288836 -0.000232282 0)
(-0.00255892 -0.000225111 0)
(-0.00224056 -0.000216567 0)
(-0.0019352 -0.000206645 0)
(-0.00164473 -0.000195349 0)
(-0.00137106 -0.000182696 0)
(-0.00111601 -0.000168713 0)
(-0.000881358 -0.000153441 0)
(-0.000668794 -0.000136943 0)
(-0.000479867 -0.000119307 0)
(-0.000315958 -0.000100656 0)
(-0.000178211 -8.11663e-05 0)
(-6.74531e-05 -6.10816e-05 0)
(1.59259e-05 -4.07521e-05 0)
(7.21316e-05 -2.06853e-05 0)
(0.000102197 -1.62996e-06 0)
(0.0001083 1.52918e-05 0)
(9.41155e-05 2.83917e-05 0)
(6.53931e-05 3.51229e-05 0)
(3.17985e-05 3.17889e-05 0)
(7.6685e-06 1.4597e-05 0)
(7.84512e-06 -3.25326e-05 0)
(3.12625e-05 -6.34422e-05 0)
(5.89393e-05 -6.48971e-05 0)
(7.42393e-05 -4.26808e-05 0)
(6.50357e-05 -4.79009e-06 0)
(2.36321e-05 4.26809e-05 0)
(-5.49057e-05 9.54673e-05 0)
(-0.000173515 0.00015072 0)
(-0.000333531 0.000206439 0)
(-0.000535102 0.000261265 0)
(-0.000777464 0.000314255 0)
(-0.00105923 0.000364729 0)
(-0.00137852 0.000412228 0)
(-0.00173309 0.000456432 0)
(-0.00212049 0.000497119 0)
(-0.00253803 0.000534149 0)
(-0.00298295 0.000567441 0)
(-0.00345238 0.000596956 0)
(-0.00394343 0.000622679 0)
(-0.00445317 0.000644647 0)
(-0.0049787 0.000662887 0)
(-0.00551714 0.000677466 0)
(-0.00606563 0.000688456 0)
(-0.00662138 0.000695936 0)
(-0.00718165 0.000699995 0)
(-0.00774377 0.000700735 0)
(-0.00830514 0.000698255 0)
(-0.00886325 0.000692666 0)
(-0.00941565 0.000684081 0)
(-0.00996 0.000672614 0)
(-0.010494 0.000658378 0)
(-0.0110156 0.000641493 0)
(-0.0115225 0.000622079 0)
(-0.012013 0.000600256 0)
(-0.012485 0.000576145 0)
(-0.0129367 0.000549868 0)
(-0.0133666 0.000521549 0)
(-0.0137729 0.000491314 0)
(-0.0141542 0.000459285 0)
(-0.0145092 0.000425591 0)
(-0.0148364 0.000390359 0)
(-0.0151348 0.000353719 0)
(-0.0154033 0.000315802 0)
(-0.0156408 0.000276738 0)
(-0.0158465 0.000236659 0)
(-0.0160197 0.000195702 0)
(-0.0161597 0.000154002 0)
(-0.016266 0.000111697 0)
(-0.0163381 6.89261e-05 0)
(-0.0163757 2.5831e-05 0)
(-0.0163787 -1.74461e-05 0)
(-0.0163469 -6.07591e-05 0)
(-0.0162804 -0.00010396 0)
(-0.0161793 -0.000146899 0)
(-0.016044 -0.000189426 0)
(-0.0158747 -0.000231387 0)
(-0.0156721 -0.000272629 0)
(-0.0154368 -0.000312997 0)
(-0.0151696 -0.00035233 0)
(-0.0148713 -0.000390468 0)
(-0.014543 -0.000427251 0)
(-0.0141858 -0.00046252 0)
(-0.0138011 -0.000496118 0)
(-0.0133902 -0.000527884 0)
(-0.0129547 -0.000557661 0)
(-0.0124962 -0.000585289 0)
(-0.0120166 -0.000610612 0)
(-0.0115176 -0.000633481 0)
(-0.0110014 -0.000653749 0)
(-0.0104701 -0.000671271 0)
(-0.0099259 -0.000685907 0)
(-0.0093712 -0.000697521 0)
(-0.00880843 -0.000705987 0)
(-0.00824017 -0.000711184 0)
(-0.00766903 -0.000712998 0)
(-0.00709776 -0.000711328 0)
(-0.00652914 -0.000706078 0)
(-0.00596603 -0.000697167 0)
(-0.00541136 -0.000684523 0)
(-0.00486805 -0.000668091 0)
(-0.00433911 -0.000647833 0)
(-0.0038275 -0.000623732 0)
(-0.00333622 -0.000595793 0)
(-0.0028682 -0.000564051 0)
(-0.00242634 -0.000528572 0)
(-0.00201344 -0.000489462 0)
(-0.00163218 -0.000446876 0)
(-0.00128507 -0.000401028 0)
(-0.000974386 -0.000352214 0)
(-0.000702097 -0.00030084 0)
(-0.000469781 -0.000247451 0)
(-0.00027849 -0.000192792 0)
(-0.000128595 -0.00013788 0)
(-1.95678e-05 -8.41204e-05 0)
(5.02966e-05 -3.34665e-05 0)
(8.42348e-05 1.13498e-05 0)
(8.7355e-05 4.65217e-05 0)
(6.71135e-05 6.68345e-05 0)
(3.52538e-05 6.54109e-05 0)
(9.1313e-06 3.40638e-05 0)
(6.78283e-06 -4.89608e-05 0)
(2.35107e-05 -8.74997e-05 0)
(3.56221e-05 -7.92936e-05 0)
(2.63905e-05 -3.40108e-05 0)
(-1.65309e-05 3.70115e-05 0)
(-0.000101496 0.000124547 0)
(-0.000234134 0.000221901 0)
(-0.000417922 0.000324162 0)
(-0.000654618 0.000427819 0)
(-0.00094452 0.000530342 0)
(-0.00128688 0.000629871 0)
(-0.00168009 0.000725082 0)
(-0.00212189 0.00081501 0)
(-0.00260958 0.000898964 0)
(-0.00314006 0.000976446 0)
(-0.00370995 0.00104715 0)
(-0.00431572 0.00111083 0)
(-0.00495368 0.0011674 0)
(-0.00562007 0.00121678 0)
(-0.00631108 0.00125899 0)
(-0.00702291 0.00129409 0)
(-0.00775173 0.00132216 0)
(-0.00849381 0.00134331 0)
(-0.00924543 0.00135771 0)
(-0.0100029 0.00136549 0)
(-0.0107628 0.00136685 0)
(-0.0115215 0.00136196 0)
(-0.0122757 0.00135103 0)
(-0.0130221 0.00133428 0)
(-0.0137575 0.00131191 0)
(-0.014479 0.00128415 0)
(-0.0151836 0.00125122 0)
(-0.0158684 0.00121335 0)
(-0.0165309 0.00117079 0)
(-0.0171685 0.00112375 0)
(-0.0177787 0.00107248 0)
(-0.0183593 0.00101722 0)
(-0.018908 0.00095822 0)
(-0.019423 0.000895714 0)
(-0.0199023 0.000829953 0)
(-0.0203442 0.00076119 0)
(-0.0207471 0.000689676 0)
(-0.0211095 0.000615665 0)
(-0.0214301 0.000539415 0)
(-0.0217077 0.000461189 0)
(-0.0219413 0.000381248 0)
(-0.0221301 0.000299862 0)
(-0.0222733 0.000217298 0)
(-0.0223703 0.00013383 0)
(-0.0224208 4.97358e-05 0)
(-0.0224244 -3.47018e-05 0)
(-0.022381 -0.0001192 0)
(-0.0222908 -0.00020347 0)
(-0.0221539 -0.000287218 0)
(-0.0219707 -0.000370148 0)
(-0.0217418 -0.000451964 0)
(-0.0214678 -0.000532363 0)
(-0.0211497 -0.000611039 0)
(-0.0207885 -0.000687685 0)
(-0.0203854 -0.000761991 0)
(-0.0199419 -0.000833644 0)
(-0.0194594 -0.000902338 0)
(-0.0189398 -0.000967763 0)
(-0.0183849 -0.00102961 0)
(-0.0177968 -0.00108757 0)
(-0.0171777 -0.00114134 0)
(-0.0165301 -0.00119063 0)
(-0.0158565 -0.00123514 0)
(-0.0151596 -0.00127458 0)
(-0.0144423 -0.00130868 0)
(-0.0137076 -0.00133717 0)
(-0.0129587 -0.0013598 0)
(-0.0121989 -0.00137632 0)
(-0.0114316 -0.0013865 0)
(-0.0106602 -0.00139014 0)
(-0.00988856 -0.00138703 0)
(-0.00912025 -0.00137701 0)
(-0.00835911 -0.00135994 0)
(-0.007609 -0.00133568 0)
(-0.00687383 -0.00130416 0)
(-0.00615753 -0.00126531 0)
(-0.00546403 -0.00121912 0)
(-0.00479722 -0.00116564 0)
(-0.00416095 -0.00110494 0)
(-0.00355898 -0.0010372 0)
(-0.00299491 -0.000962646 0)
(-0.00247217 -0.000881625 0)
(-0.00199394 -0.000794596 0)
(-0.00156306 -0.000702181 0)
(-0.00118196 -0.000605205 0)
(-0.000852537 -0.000504762 0)
(-0.000575983 -0.000402302 0)
(-0.000352637 -0.000299751 0)
(-0.000181741 -0.000199679 0)
(-6.11616e-05 -0.000105529 0)
(1.29444e-05 -2.19112e-05 0)
(4.64321e-05 4.50261e-05 0)
(4.75808e-05 8.72351e-05 0)
(2.88445e-05 9.44198e-05 0)
(8.2108e-06 5.31856e-05 0)
(4.62958e-06 -5.96323e-05 0)
(1.02879e-05 -9.58899e-05 0)
(-8.10433e-07 -6.83998e-05 0)
(-4.3584e-05 9.40028e-06 0)
(-0.000129695 0.000122966 0)
(-0.000267434 0.000260274 0)
(-0.000462521 0.000412139 0)
(-0.00071864 0.000571687 0)
(-0.00103759 0.000733744 0)
(-0.00141977 0.000894464 0)
(-0.00186433 0.00105096 0)
(-0.00236948 0.00120108 0)
(-0.00293269 0.00134325 0)
(-0.00355082 0.00147627 0)
(-0.00422026 0.00159932 0)
(-0.00493709 0.00171179 0)
(-0.00569711 0.00181327 0)
(-0.00649593 0.00190351 0)
(-0.00732907 0.00198238 0)
(-0.00819194 0.00204986 0)
(-0.00907993 0.00210599 0)
(-0.00998845 0.00215087 0)
(-0.0109129 0.00218468 0)
(-0.0118488 0.00220761 0)
(-0.0127917 0.00221991 0)
(-0.0137371 0.00222185 0)
(-0.0146809 0.00221371 0)
(-0.0156189 0.0021958 0)
(-0.0165471 0.00216846 0)
(-0.0174616 0.00213203 0)
(-0.0183585 0.00208685 0)
(-0.0192343 0.00203329 0)
(-0.0200856 0.00197171 0)
(-0.020909 0.00190249 0)
(-0.0217014 0.00182601 0)
(-0.0224597 0.00174266 0)
(-0.0231811 0.00165282 0)
(-0.023863 0.00155689 0)
(-0.0245028 0.00145526 0)
(-0.0250983 0.00134834 0)
(-0.0256472 0.00123654 0)
(-0.0261476 0.00112027 0)
(-0.0265977 0.000999942 0)
(-0.0269958 0.000875975 0)
(-0.0273404 0.000748798 0)
(-0.0276304 0.00061884 0)
(-0.0278646 0.000486535 0)
(-0.0280422 0.000352325 0)
(-0.0281624 0.000216657 0)
(-0.0282247 7.99818e-05 0)
(-0.0282287 -5.72417e-05 0)
(-0.0281745 -0.000194549 0)
(-0.028062 -0.00033147 0)
(-0.0278915 -0.000467529 0)
(-0.0276636 -0.000602244 0)
(-0.0273788 -0.000735129 0)
(-0.0270381 -0.000865696 0)
(-0.0266426 -0.000993448 0)
(-0.0261937 -0.00111789 0)
(-0.0256927 -0.00123851 0)
(-0.0251415 -0.00135482 0)
(-0.0245421 -0.00146631 0)
(-0.0238964 -0.00157248 0)
(-0.0232071 -0.00167283 0)
(-0.0224765 -0.00176688 0)
(-0.0217074 -0.00185413 0)
(-0.020903 -0.0019341 0)
(-0.0200662 -0.00200632 0)
(-0.0192005 -0.00207033 0)
(-0.0183095 -0.0021257 0)
(-0.0173968 -0.002172 0)
(-0.0164663 -0.00220881 0)
(-0.0155221 -0.00223576 0)
(-0.0145685 -0.00225248 0)
(-0.0136096 -0.00225864 0)
(-0.01265 -0.00225395 0)
(-0.0116943 -0.00223814 0)
(-0.0107471 -0.00221099 0)
(-0.00981304 -0.00217233 0)
(-0.00889696 -0.00212203 0)
(-0.0080036 -0.00206003 0)
(-0.00713772 -0.00198635 0)
(-0.00630403 -0.00190107 0)
(-0.00550716 -0.00180438 0)
(-0.00475158 -0.00169657 0)
(-0.0040416 -0.00157808 0)
(-0.00338129 -0.00144949 0)
(-0.00277437 -0.00131161 0)
(-0.00222417 -0.00116547 0)
(-0.00173347 -0.00101245 0)
(-0.00130444 -0.000854309 0)
(-0.000938417 -0.00069335 0)
(-0.000635773 -0.000532555 0)
(-0.000395659 -0.000375798 0)
(-0.000215768 -0.000228119 0)
(-9.20389e-05 -9.60646e-05 0)
(-1.83829e-05 1.18888e-05 0)
(1.36862e-05 8.49295e-05 0)
(1.62837e-05 0.000109404 0)
(6.01207e-06 6.69844e-05 0)
(1.85815e-06 -6.23806e-05 0)
(-6.35573e-06 -8.36557e-05 0)
(-4.58505e-05 -2.56296e-05 0)
(-0.000128609 9.50099e-05 0)
(-0.000264735 0.000260871 0)
(-0.000462073 0.000457391 0)
(-0.000726037 0.000673125 0)
(-0.00106003 0.000899261 0)
(-0.00146581 0.00112901 0)
(-0.00194359 0.00135713 0)
(-0.00249238 0.00157965 0)
(-0.00311017 0.00179351 0)
(-0.00379413 0.00199641 0)
(-0.00454075 0.0021866 0)
(-0.00534601 0.00236279 0)
(-0.00620548 0.00252406 0)
(-0.0071144 0.00266975 0)
(-0.00806779 0.00279942 0)
(-0.00906052 0.00291285 0)
(-0.0100873 0.00300992 0)
(-0.0111429 0.00309067 0)
(-0.012222 0.00315521 0)
(-0.0133192 0.00320373 0)
(-0.0144294 0.00323652 0)
(-0.0155473 0.00325387 0)
(-0.0166679 0.00325617 0)
(-0.0177861 0.00324382 0)
(-0.0188971 0.00321726 0)
(-0.0199963 0.00317694 0)
(-0.021079 0.00312335 0)
(-0.0221408 0.00305699 0)
(-0.0231775 0.00297839 0)
(-0.024185 0.00288806 0)
(-0.0251593 0.00278657 0)
(-0.0260969 0.00267444 0)
(-0.0269941 0.00255226 0)
(-0.0278475 0.00242058 0)
(-0.0286542 0.00227998 0)
(-0.029411 0.00213105 0)
(-0.0301152 0.00197437 0)
(-0.0307644 0.00181054 0)
(-0.0313561 0.00164016 0)
(-0.0318882 0.00146384 0)
(-0.0323588 0.0012822 0)
(-0.0327662 0.00109587 0)
(-0.0331089 0.000905465 0)
(-0.0333856 0.000711637 0)
(-0.0335952 0.000515031 0)
(-0.033737 0.000316301 0)
(-0.0338103 0.000116114 0)
(-0.0338147 -8.4861e-05 0)
(-0.0337502 -0.000285943 0)
(-0.0336168 -0.00048644 0)
(-0.0334149 -0.000685656 0)
(-0.0331449 -0.000882886 0)
(-0.0328079 -0.00107742 0)
(-0.0324047 -0.00126854 0)
(-0.0319367 -0.00145551 0)
(-0.0314056 -0.00163763 0)
(-0.030813 -0.00181414 0)
(-0.030161 -0.00198433 0)
(-0.029452 -0.00214745 0)
(-0.0286884 -0.00230279 0)
(-0.0278731 -0.00244962 0)
(-0.027009 -0.00258722 0)
(-0.0260995 -0.00271487 0)
(-0.0251481 -0.0028319 0)
(-0.0241584 -0.00293762 0)
(-0.0231345 -0.00303136 0)
(-0.0220805 -0.00311249 0)
(-0.0210007 -0.00318039 0)
(-0.0198998 -0.00323448 0)
(-0.0187824 -0.00327422 0)
(-0.0176535 -0.00329908 0)
(-0.0165182 -0.00330861 0)
(-0.0153816 -0.00330238 0)
(-0.014249 -0.00328003 0)
(-0.0131259 -0.00324127 0)
(-0.0120178 -0.00318586 0)
(-0.0109301 -0.00311366 0)
(-0.00986833 -0.00302461 0)
(-0.00883804 -0.00291875 0)
(-0.00784462 -0.00279626 0)
(-0.00689337 -0.00265746 0)
(-0.00598942 -0.00250281 0)
(-0.00513769 -0.00233299 0)
(-0.00434278 -0.00214891 0)
(-0.00360889 -0.00195178 0)
(-0.00293976 -0.00174314 0)
(-0.00233853 -0.00152498 0)
(-0.00180761 -0.00129985 0)
(-0.00134855 -0.00107099 0)
(-0.000961815 -0.000842526 0)
(-0.000646644 -0.000619684 0)
(-0.000400792 -0.000409122 0)
(-0.000220306 -0.000219287 0)
(-9.92649e-05 -6.08722e-05 0)
(-2.94574e-05 5.2737e-05 0)
(8.66062e-08 0.00010484 0)
(3.17991e-06 7.30157e-05 0)
(-1.21151e-06 -5.58986e-05 0)
(-2.49511e-05 -4.74584e-05 0)
(-9.62483e-05 5.36796e-05 0)
(-0.000223283 0.000228229 0)
(-0.000414265 0.000456466 0)
(-0.000676141 0.000721551 0)
(-0.00101369 0.0010101 0)
(-0.00142987 0.00131145 0)
(-0.00192601 0.00161727 0)
(-0.00250209 0.00192099 0)
(-0.00315683 0.00221749 0)
(-0.00388795 0.00250278 0)
(-0.00469228 0.00277376 0)
(-0.00556598 0.00302808 0)
(-0.00650462 0.00326396 0)
(-0.00750331 0.00348007 0)
(-0.0085568 0.00367546 0)
(-0.00965959 0.0038495 0)
(-0.010806 0.00400179 0)
(-0.0119901 0.00413213 0)
(-0.0132061 0.00424051 0)
(-0.0144479 0.00432703 0)
(-0.0157097 0.00439193 0)
(-0.0169855 0.00443552 0)
(-0.0182696 0.00445821 0)
(-0.0195561 0.00446047 0)
(-0.0208394 0.00444283 0)
(-0.0221141 0.00440585 0)
(-0.0233748 0.00435015 0)
(-0.0246163 0.00427637 0)
(-0.0258337 0.00418519 0)
(-0.027022 0.0040773 0)
(-0.0281766 0.00395341 0)
(-0.0292932 0.00381426 0)
(-0.0303674 0.0036606 0)
(-0.0313952 0.00349319 0)
(-0.0323729 0.0033128 0)
(-0.0332968 0.00312021 0)
(-0.0341636 0.00291623 0)
(-0.0349701 0.00270166 0)
(-0.0357134 0.00247731 0)
(-0.0363908 0.00224401 0)
(-0.037 0.0020026 0)
(-0.0375387 0.00175391 0)
(-0.038005 0.00149881 0)
(-0.0383971 0.00123815 0)
(-0.0387136 0.000972826 0)
(-0.0389534 0.000703712 0)
(-0.0391154 0.000431711 0)
(-0.039199 0.000157732 0)
(-0.0392038 -0.000117303 0)
(-0.0391296 -0.000392463 0)
(-0.0389765 -0.000666803 0)
(-0.038745 -0.000939369 0)
(-0.0384357 -0.0012092 0)
(-0.0380495 -0.00147532 0)
(-0.0375877 -0.00173674 0)
(-0.0370517 -0.00199249 0)
(-0.0364434 -0.00224157 0)
(-0.0357647 -0.00248298 0)
(-0.0350181 -0.00271573 0)
(-0.0342062 -0.00293882 0)
(-0.0333318 -0.00315126 0)
(-0.0323982 -0.00335207 0)
(-0.0314087 -0.00354027 0)
(-0.0303672 -0.00371491 0)
(-0.0292776 -0.00387504 0)
(-0.0281441 -0.00401975 0)
(-0.0269712 -0.00414813 0)
(-0.0257637 -0.00425934 0)
(-0.0245265 -0.00435254 0)
(-0.0232648 -0.00442696 0)
(-0.0219839 -0.00448185 0)
(-0.0206895 -0.00451655 0)
(-0.0193872 -0.00453042 0)
(-0.0180829 -0.00452293 0)
(-0.0167826 -0.00449361 0)
(-0.0154925 -0.00444207 0)
(-0.0142185 -0.00436803 0)
(-0.0129671 -0.00427133 0)
(-0.0117442 -0.00415193 0)
(-0.0105561 -0.00400994 0)
(-0.00940883 -0.00384562 0)
(-0.00830828 -0.00365946 0)
(-0.00726018 -0.00345214 0)
(-0.00626994 -0.00322464 0)
(-0.00534268 -0.00297822 0)
(-0.00448303 -0.00271456 0)
(-0.00369513 -0.00243578 0)
(-0.00298245 -0.00214455 0)
(-0.00234769 -0.00184425 0)
(-0.00179265 -0.00153912 0)
(-0.00131802 -0.00123444 0)
(-0.000923284 -0.000936809 0)
(-0.000606465 -0.000654449 0)
(-0.000363991 -0.000397603 0)
(-0.000190432 -0.000178996 0)
(-7.82304e-05 -1.43001e-05 0)
(-1.8126e-05 7.7204e-05 0)
(6.82331e-08 6.9966e-05 0)
(-4.39661e-06 -3.95043e-05 0)
(-4.45426e-05 1.47312e-05 0)
(-0.000149636 0.000172556 0)
(-0.000323745 0.000412769 0)
(-0.000572785 0.000713726 0)
(-0.000902625 0.00105682 0)
(-0.00131715 0.00142685 0)
(-0.00181861 0.00181159 0)
(-0.00240782 0.00220125 0)
(-0.00308427 0.00258797 0)
(-0.00384634 0.00296553 0)
(-0.00469136 0.00332899 0)
(-0.00561583 0.00367448 0)
(-0.00661553 0.00399897 0)
(-0.00768561 0.00430014 0)
(-0.00882078 0.00457627 0)
(-0.0100153 0.00482605 0)
(-0.0112633 0.00504862 0)
(-0.0125584 0.00524338 0)
(-0.0138943 0.00541004 0)
(-0.0152645 0.00554851 0)
(-0.0166625 0.00565887 0)
(-0.0180819 0.00574137 0)
(-0.019516 0.0057964 0)
(-0.0209585 0.00582443 0)
(-0.022403 0.00582604 0)
(-0.0238434 0.00580188 0)
(-0.0252736 0.00575266 0)
(-0.0266875 0.00567917 0)
(-0.0280796 0.0055822 0)
(-0.0294443 0.00546263 0)
(-0.0307761 0.00532135 0)
(-0.0320699 0.00515926 0)
(-0.0333209 0.00497733 0)
(-0.0345242 0.00477651 0)
(-0.0356755 0.00455779 0)
(-0.0367704 0.00432217 0)
(-0.037805 0.00407067 0)
(-0.0387754 0.00380433 0)
(-0.0396784 0.0035242 0)
(-0.0405105 0.00323133 0)
(-0.0412688 0.00292681 0)
(-0.0419506 0.00261171 0)
(-0.0425534 0.00228715 0)
(-0.0430751 0.00195425 0)
(-0.0435138 0.00161412 0)
(-0.0438679 0.00126791 0)
(-0.044136 0.000916791 0)
(-0.0443171 0.000561926 0)
(-0.0444104 0.000204504 0)
(-0.0444155 -0.000154273 0)
(-0.0443322 -0.000513188 0)
(-0.0441607 -0.00087101 0)
(-0.0439014 -0.0012265 0)
(-0.043555 -0.00157839 0)
(-0.0431227 -0.00192543 0)
(-0.0426056 -0.00226634 0)
(-0.0420057 -0.00259983 0)
(-0.0413247 -0.00292461 0)
(-0.040565 -0.00323939 0)
(-0.0397293 -0.00354287 0)
(-0.0388205 -0.00383377 0)
(-0.0378417 -0.00411081 0)
(-0.0367965 -0.0043727 0)
(-0.0356889 -0.00461819 0)
(-0.0345228 -0.00484604 0)
(-0.0333027 -0.00505503 0)
(-0.0320334 -0.00524399 0)
(-0.0307197 -0.00541175 0)
(-0.0293671 -0.00555721 0)
(-0.0279809 -0.00567932 0)
(-0.0265668 -0.00577707 0)
(-0.0251309 -0.00584953 0)
(-0.0236793 -0.00589583 0)
(-0.0222183 -0.0059152 0)
(-0.0207544 -0.00590696 0)
(-0.0192941 -0.00587051 0)
(-0.0178443 -0.0058054 0)
(-0.0164116 -0.0057113 0)
(-0.015003 -0.00558803 0)
(-0.013625 -0.00543559 0)
(-0.0122846 -0.00525414 0)
(-0.0109883 -0.00504411 0)
(-0.00974262 -0.00480613 0)
(-0.00855371 -0.00454118 0)
(-0.00742753 -0.00425052 0)
(-0.00636964 -0.00393586 0)
(-0.00538511 -0.00359935 0)
(-0.00447845 -0.00324374 0)
(-0.00365351 -0.00287244 0)
(-0.00291331 -0.00248967 0)
(-0.00225997 -0.00210068 0)
(-0.00169455 -0.00171189 0)
(-0.00121687 -0.00133124 0)
(-0.000825451 -0.000968416 0)
(-0.000517302 -0.000635309 0)
(-0.000287743 -0.000346447 0)
(-0.000130147 -0.000119441 0)
(-3.73223e-05 2.43596e-05 0)
(-3.12663e-06 5.71668e-05 0)
(-7.58452e-06 -1.29221e-05 0)
(-6.44942e-05 0.000103983 0)
(-0.000204441 0.000332773 0)
(-0.000427214 0.000650901 0)
(-0.000736308 0.00103534 0)
(-0.00113632 0.00146594 0)
(-0.00163012 0.00192608 0)
(-0.00221903 0.00240211 0)
(-0.00290318 0.00288294 0)
(-0.00368153 0.00335954 0)
(-0.00455192 0.00382461 0)
(-0.00551128 0.0042723 0)
(-0.00655568 0.00469796 0)
(-0.00768049 0.0050979 0)
(-0.00888047 0.00546925 0)
(-0.0101499 0.00580982 0)
(-0.0114826 0.00611799 0)
(-0.0128722 0.00639258 0)
(-0.0143119 0.00663284 0)
(-0.015795 0.00683831 0)
(-0.0173144 0.00700882 0)
(-0.018863 0.00714443 0)
(-0.0204339 0.00724541 0)
(-0.02202 0.00731218 0)
(-0.0236144 0.00734529 0)
(-0.0252102 0.00734543 0)
(-0.0268006 0.00731338 0)
(-0.0283791 0.00725001 0)
(-0.0299392 0.00715626 0)
(-0.0314747 0.00703312 0)
(-0.0329794 0.00688167 0)
(-0.0344477 0.00670299 0)
(-0.0358737 0.00649823 0)
(-0.0372523 0.00626857 0)
(-0.0385781 0.0060152 0)
(-0.0398463 0.00573936 0)
(-0.0410523 0.0054423 0)
(-0.0421917 0.0051253 0)
(-0.0432604 0.00478966 0)
(-0.0442546 0.00443669 0)
(-0.0451707 0.00406773 0)
(-0.0460055 0.00368412 0)
(-0.046756 0.00328724 0)
(-0.0474195 0.00287848 0)
(-0.0479937 0.00245923 0)
(-0.0484764 0.00203093 0)
(-0.048866 0.001595 0)
(-0.049161 0.00115292 0)
(-0.0493602 0.000706145 0)
(-0.0494628 0.000256184 0)
(-0.0494683 -0.000195456 0)
(-0.0493765 -0.000647245 0)
(-0.0491877 -0.00109764 0)
(-0.0489022 -0.00154507 0)
(-0.0485209 -0.00198796 0)
(-0.048045 -0.00242472 0)
(-0.0474759 -0.00285376 0)
(-0.0468155 -0.00327345 0)
(-0.046066 -0.00368219 0)
(-0.0452299 -0.00407835 0)
(-0.04431 -0.00446031 0)
(-0.0433095 -0.00482647 0)
(-0.042232 -0.0051752 0)
(-0.0410814 -0.00550493 0)
(-0.0398618 -0.00581407 0)
(-0.0385777 -0.00610109 0)
(-0.0372341 -0.00636447 0)
(-0.0358359 -0.00660273 0)
(-0.0343887 -0.00681445 0)
(-0.0328982 -0.00699824 0)
(-0.0313703 -0.00715281 0)
(-0.0298113 -0.00727691 0)
(-0.0282276 -0.0073694 0)
(-0.026626 -0.00742921 0)
(-0.0250134 -0.0074554 0)
(-0.0233966 -0.00744713 0)
(-0.021783 -0.00740371 0)
(-0.0201798 -0.0073246 0)
(-0.0185944 -0.00720941 0)
(-0.017034 -0.00705797 0)
(-0.015506 -0.0068703 0)
(-0.0140178 -0.00664669 0)
(-0.0125764 -0.00638767 0)
(-0.0111889 -0.00609412 0)
(-0.00986184 -0.00576726 0)
(-0.00860174 -0.00540874 0)
(-0.00741455 -0.00502068 0)
(-0.00630579 -0.00460578 0)
(-0.00528036 -0.0041674 0)
(-0.00434249 -0.00370971 0)
(-0.00349561 -0.0032378 0)
(-0.00274225 -0.0027579 0)
(-0.00208388 -0.00227754 0)
(-0.00152087 -0.0018059 0)
(-0.00105233 -0.00135403 0)
(-0.000676053 -0.000935288 0)
(-0.000388291 -0.000565749 0)
(-0.000183538 -0.000264617 0)
(-5.68589e-05 -5.48173e-05 0)
(-6.29882e-06 3.43633e-05 0)
(-1.07151e-05 2.38796e-05 0)
(-8.44192e-05 0.000220713 0)
(-0.000259588 0.000535198 0)
(-0.000531752 0.00094393 0)
(-0.000901967 0.00142283 0)
(-0.00137346 0.00195065 0)
(-0.0019479 0.00250954 0)
(-0.00262564 0.00308466 0)
(-0.003406 0.00366375 0)
(-0.00428722 0.00423672 0)
(-0.00526659 0.0047953 0)
(-0.00634052 0.00533277 0)
(-0.00750461 0.00584371 0)
(-0.00875378 0.00632378 0)
(-0.0100824 0.00676957 0)
(-0.0114842 0.00717844 0)
(-0.0129528 0.00754839 0)
(-0.0144811 0.00787797 0)
(-0.0160621 0.0081662 0)
(-0.0176884 0.00841248 0)
(-0.0193526 0.00861656 0)
(-0.0210472 0.00877845 0)
(-0.0227646 0.00889841 0)
(-0.0244974 0.00897692 0)
(-0.026238 0.00901461 0)
(-0.0279792 0.00901227 0)
(-0.0297136 0.00897081 0)
(-0.0314343 0.00889126 0)
(-0.0331343 0.00877474 0)
(-0.0348069 0.00862245 0)
(-0.0364456 0.00843564 0)
(-0.038044 0.00821566 0)
(-0.0395962 0.00796386 0)
(-0.0410963 0.00768168 0)
(-0.0425387 0.00737057 0)
(-0.0439183 0.00703203 0)
(-0.04523 0.00666758 0)
(-0.0464691 0.00627879 0)
(-0.0476312 0.00586723 0)
(-0.0487121 0.0054345 0)
(-0.049708 0.00498223 0)
(-0.0506155 0.00451209 0)
(-0.0514312 0.00402573 0)
(-0.0521524 0.00352486 0)
(-0.0527764 0.0030112 0)
(-0.0533011 0.00248648 0)
(-0.0537244 0.00195246 0)
(-0.054045 0.00141094 0)
(-0.0542614 0.000863711 0)
(-0.0543729 0.000312608 0)
(-0.0543789 -0.000240523 0)
(-0.0542793 -0.000793809 0)
(-0.0540741 -0.00134536 0)
(-0.0537639 -0.00189327 0)
(-0.0533497 -0.00243561 0)
(-0.0528326 -0.00297044 0)
(-0.0522143 -0.0034958 0)
(-0.0514968 -0.00400973 0)
(-0.0506824 -0.00451026 0)
(-0.0497738 -0.00499541 0)
(-0.0487742 -0.00546322 0)
(-0.0476869 -0.00591171 0)
(-0.0465158 -0.00633893 0)
(-0.045265 -0.00674295 0)
(-0.0439391 -0.00712186 0)
(-0.0425429 -0.00747378 0)
(-0.0410816 -0.00779688 0)
(-0.0395608 -0.00808936 0)
(-0.0379862 -0.00834951 0)
(-0.0363641 -0.00857565 0)
(-0.0347009 -0.00876622 0)
(-0.0330033 -0.00891972 0)
(-0.0312782 -0.00903478 0)
(-0.0295328 -0.00911012 0)
(-0.0277745 -0.00914462 0)
(-0.0260108 -0.0091373 0)
(-0.0242494 -0.00908733 0)
(-0.0224981 -0.00899409 0)
(-0.0207648 -0.00885717 0)
(-0.0190573 -0.00867637 0)
(-0.0173835 -0.00845179 0)
(-0.0157511 -0.00818378 0)
(-0.0141679 -0.00787307 0)
(-0.0126411 -0.00752075 0)
(-0.0111781 -0.00712833 0)
(-0.00978569 -0.00669782 0)
(-0.00847026 -0.00623182 0)
(-0.00723776 -0.00573357 0)
(-0.00609354 -0.00520706 0)
(-0.00504226 -0.0046572 0)
(-0.00408781 -0.00408992 0)
(-0.00323317 -0.00351241 0)
(-0.00248039 -0.00293326 0)
(-0.00183044 -0.00236278 0)
(-0.00128317 -0.00181325 0)
(-0.000837275 -0.00129932 0)
(-0.000490077 -0.000838347 0)
(-0.000237303 -0.000450807 0)
(-7.63422e-05 -0.000160772 0)
(-9.39429e-06 1.54955e-06 0)
(-1.37562e-05 7.0777e-05 0)
(-0.00010408 0.000364914 0)
(-0.000314381 0.000780089 0)
(-0.000636077 0.00129237 0)
(-0.00106777 0.00187701 0)
(-0.0016113 0.00251191 0)
(-0.0022671 0.00317825 0)
(-0.00303442 0.0038602 0)
(-0.00391166 0.00454452 0)
(-0.00489632 0.00522014 0)
(-0.00598501 0.00587792 0)
(-0.00717356 0.00651033 0)
(-0.00845705 0.00711124 0)
(-0.0098299 0.00767568 0)
(-0.011286 0.0081997 0)
(-0.0128187 0.00868022 0)
(-0.0144211 0.00911487 0)
(-0.0160858 0.00950192 0)
(-0.0178052 0.00984016 0)
(-0.0195716 0.0101288 0)
(-0.021377 0.0103676 0)
(-0.0232135 0.0105564 0)
(-0.0250732 0.0106956 0)
(-0.026948 0.0107856 0)
(-0.0288302 0.0108271 0)
(-0.0307117 0.0108211 0)
(-0.0325851 0.0107686 0)
(-0.0344427 0.0106707 0)
(-0.0362772 0.0105288 0)
(-0.0380815 0.0103444 0)
(-0.0398486 0.0101188 0)
(-0.0415719 0.00985361 0)
(-0.0432448 0.00955051 0)
(-0.0448613 0.00921116 0)
(-0.0464154 0.00883728 0)
(-0.0479014 0.00843066 0)
(-0.0493141 0.00799311 0)
(-0.0506484 0.00752648 0)
(-0.0518996 0.00703265 0)
(-0.0530632 0.00651355 0)
(-0.0541353 0.00597111 0)
(-0.0551121 0.00540731 0)
(-0.0559901 0.00482416 0)
(-0.0567663 0.00422367 0)
(-0.0574379 0.00360791 0)
(-0.0580025 0.00297895 0)
(-0.0584582 0.0023389 0)
(-0.0588032 0.0016899 0)
(-0.0590362 0.0010341 0)
(-0.0591564 0.000373689 0)
(-0.059163 -0.000289116 0)
(-0.059056 -0.000952084 0)
(-0.0588355 -0.00161295 0)
(-0.0585021 -0.00226945 0)
(-0.0580567 -0.00291926 0)
(-0.0575007 -0.00356008 0)
(-0.0568358 -0.00418957 0)
(-0.0560641 -0.00480538 0)
(-0.0551881 -0.00540517 0)
(-0.0542107 -0.00598658 0)
(-0.0531352 -0.00654727 0)
(-0.0519653 -0.00708489 0)
(-0.050705 -0.00759711 0)
(-0.0493588 -0.00808164 0)
(-0.0479315 -0.00853621 0)
(-0.0464282 -0.00895858 0)
(-0.0448546 -0.00934659 0)
(-0.0432165 -0.0096981 0)
(-0.0415201 -0.0100111 0)
(-0.0397719 -0.0102836 0)
(-0.0379789 -0.0105137 0)
(-0.0361481 -0.0106997 0)
(-0.0342869 -0.0108399 0)