/*--------------------------------*- C++ -*----------------------------------*\
  =========                 |
  \\      /  F ield         | OpenFOAM: The Open Source CFD Toolbox
   \\    /   O peration     | Website:  https://openfoam.org
    \\  /    A nd           | Version:  11
     \\/     M anipulation  |
\*---------------------------------------------------------------------------*/
FoamFile
{
    format      ascii;
    class       volScalarField;
    location    "6";
    object      p;
}
// * * * * * * * * * * * * * * * * * * * * * * * * * * * * * * * * * * * * * //

dimensions      [0 2 -2 0 0 0 0];

internalField   nonuniform List<scalar> 
10100
(
-1.10501e-07
8.57412e-05
-0.000130719
-0.000697806
-0.00156623
-0.0026797
-0.00398081
-0.00541558
-0.00693553
-0.00849879
-0.0100693
-0.011616
-0.0131115
-0.0145325
-0.0158588
-0.0170724
-0.0181591
-0.0191072
-0.019906
-0.0205469
-0.0210222
-0.021326
-0.0214544
-0.021405
-0.0211762
-0.0207675
-0.0201792
-0.0194128
-0.0184703
-0.0173546
-0.0160693
-0.0146184
-0.0130065
-0.0112387
-0.00932071
-0.00725899
-0.00506024
-0.00273168
-0.000281071
0.00228345
0.0049536
0.00772096
0.0105769
0.0135122
0.0165177
0.0195838
0.0227006
0.025858
0.0290455
0.0322526
0.0354691
0.0386846
0.0418884
0.0450698
0.048218
0.0513223
0.054372
0.0573564
0.0602649
0.0630872
0.0658137
0.0684351
0.0709422
0.0733257
0.0755766
0.0776864
0.0796475
0.0814526
0.0830952
0.0845692
0.0858692
0.0869906
0.0879295
0.0886833
0.0892502
0.089629
0.08982
0.0898247
0.0896458
0.0892876
0.0887553
0.0880555
0.0871964
0.0861884
0.0850438
0.0837771
0.0824051
0.0809466
0.0794235
0.0778603
0.0762854
0.0747312
0.0732342
0.0718355
0.0705806
0.0695193
0.0687023
0.0681787
0.0679899
0.0680883
-8.73072e-05
-1.89335e-05
-0.000240028
-0.000752804
-0.00150857
-0.00246734
-0.00358845
-0.00482965
-0.00615125
-0.00751733
-0.00889603
-0.0102588
-0.011581
-0.0128408
-0.0140186
-0.0150976
-0.016063
-0.0169029
-0.0176074
-0.0181677
-0.0185765
-0.0188278
-0.0189169
-0.018841
-0.0185981
-0.0181875
-0.0176093
-0.0168644
-0.0159544
-0.0148816
-0.0136492
-0.0122607
-0.0107205
-0.00903308
-0.00720398
-0.00523896
-0.00314425
-0.000926612
0.00140652
0.00384751
0.00638862
0.00902179
0.0117388
0.014531
0.0173897
0.0203059
0.0232701
0.0262726
0.0293034
0.0323526
0.0354106
0.0384674
0.0415128
0.0445368
0.0475292
0.0504797
0.0533782
0.0562146
0.0589786
0.0616607
0.064252
0.0667439
0.0691277
0.0713943
0.0735355
0.0755434
0.0774109
0.0791315
0.080699
0.082108
0.0833535
0.0844315
0.0853385
0.0860724
0.0866316
0.0870155
0.0872246
0.0872608
0.0871271
0.0868278
0.0863683
0.085755
0.0849962
0.0841023
0.0830855
0.0819597
0.080741
0.0794473
0.0780991
0.0767194
0.0753344
0.0739734
0.0726687
0.0714554
0.0703714
0.0694557
0.0687451
0.0682742
0.0680874
0.0681858
0.000120767
0.000169636
-5.9378e-05
-0.000546177
-0.00123864
-0.0021036
-0.00310914
-0.00422116
-0.00540585
-0.00663242
-0.00787238
-0.00910019
-0.010293
-0.0114306
-0.012495
-0.0134702
-0.0143417
-0.0150976
-0.0157283
-0.0162254
-0.0165815
-0.0167907
-0.0168484
-0.0167512
-0.016497
-0.0160848
-0.0155146
-0.0147869
-0.013903
-0.012865
-0.0116755
-0.0103378
-0.00885575
-0.00723385
-0.0054771
-0.00359086
-0.00158099
0.000546028
0.00278318
0.0051232
0.00755881
0.0100823
0.0126858
0.0153611
0.0180999
0.0208936
0.0237331
0.0266089
0.0295116
0.0324318
0.0353604
0.0382878
0.0412041
0.0440997
0.0469651
0.0497904
0.0525658
0.0552816
0.0579281
0.0604963
0.0629779
0.0653648
0.0676486
0.0698206
0.0718729
0.0737984
0.0755904
0.0772427
0.0787497
0.0801063
0.0813079
0.0823508
0.0832322
0.08395
0.0845029
0.0848905
0.0851136
0.0851743
0.085076
0.0848229
0.08442
0.083874
0.083193
0.0823872
0.0814685
0.0804502
0.0793475
0.0781772
0.0769585
0.0757128
0.0744644
0.0732398
0.0720676
0.0709784
0.0700043
0.0691776
0.0685283
0.0680854
0.0678991
0.0679963
0.000654906
0.00063849
0.000373964
-0.0001156
-0.000783028
-0.00159913
-0.00253594
-0.00356511
-0.00465794
-0.00578695
-0.00692737
-0.00805613
-0.00915216
-0.0101967
-0.0111732
-0.0120667
-0.012864
-0.0135535
-0.0141254
-0.0145717
-0.0148852
-0.0150602
-0.0150921
-0.0149777
-0.0147144
-0.0143012
-0.0137378
-0.0130246
-0.0121627
-0.011154
-0.0100008
-0.008706
-0.00727327
-0.00570686
-0.00401145
-0.002192
-0.000254143
0.00179585
0.00395133
0.00620551
0.00855139
0.0109816
0.0134884
0.0160643
0.0187012
0.0213907
0.024124
0.0268919
0.0296856
0.0324962
0.0353149
0.0381323
0.040939
0.0437257
0.0464835
0.0492027
0.0518738
0.0544874
0.0570345
0.0595067
0.061896
0.0641945
0.066394
0.0684862
0.0704638
0.07232
0.0740488
0.075644
0.0771002
0.0784127
0.0795775
0.0805911
0.0814509
0.0821549
0.0827021
0.0830921
0.0833261
0.0834063
0.0833361
0.0831196
0.0827617
0.0822689
0.0816492
0.0809126
0.0800703
0.079135
0.0781207
0.0770433
0.0759206
0.0747728
0.0736218
0.0724918
0.0714081
0.0703976
0.0694882
0.0687078
0.0680828
0.0676397
0.0674261
0.0674729
0.00146999
0.00134076
0.00101003
0.000493303
-0.00017532
-0.000969191
-0.00186502
-0.00283806
-0.00386406
-0.00491935
-0.00598191
-0.00703135
-0.00804859
-0.00901618
-0.00991899
-0.0107433
-0.0114766
-0.0121084
-0.0126293
-0.0130314
-0.0133076
-0.0134525
-0.0134618
-0.0133321
-0.0130611
-0.0126474
-0.0120907
-0.0113911
-0.0105497
-0.009568
-0.0084483
-0.00719327
-0.00580636
-0.00429147
-0.00265289
-0.000895412
0.00097552
0.00295396
0.00503361
0.00720806
0.00947054
0.0118139
0.014231
0.0167145
0.0192567
0.0218492
0.0244836
0.0271513
0.0298439
0.0325527
0.0352694
0.0379847
0.0406896
0.0433755
0.0460336
0.0486545
0.051229
0.0537482
0.0562035
0.0585871
0.0608914
0.0631084
0.0652302
0.067249
0.0691579
0.0709506
0.0726212
0.0741639
0.0755734
0.0768454
0.0779763
0.0789629
0.0798026
0.0804935
0.0810347
0.0814262
0.0816693
0.0817662
0.0817201
0.0815351
0.081216
0.080769
0.080202
0.0795245
0.0787471
0.0778814
0.0769406
0.0759395
0.0748947
0.0738247
0.0727496
0.0716908
0.0706708
0.0697131
0.0688418
0.0680812
0.0674546
0.0669859
0.066712
0.0666562
0.00251877
0.00224364
0.00182155
0.00125526
0.000562905
-0.000233175
-0.00111165
-0.00205239
-0.00303459
-0.0040377
-0.00504254
-0.00603097
-0.00698592
-0.007892
-0.00873492
-0.00950228
-0.0101825
-0.0107656
-0.011243
-0.0116072
-0.0118516
-0.0119709
-0.0119609
-0.0118184
-0.0115411
-0.0111277
-0.0105775
-0.00989082
-0.00906836
-0.00811163
-0.00702274
-0.00580431
-0.0044595
-0.00299195
-0.00140566
0.000294723
0.00210398
0.00401652
0.00602638
0.00812738
0.010313
0.0125764
0.0149108
0.0173093
0.0197641
0.0222672
0.0248105
0.0273859
0.0299854
0.0326007
0.0352233
0.0378447
0.0404561
0.0430495
0.0456161
0.0481469
0.0506327
0.0530653
0.0554368
0.0577396
0.0599661
0.0621087
0.0641596
0.0661114
0.0679577
0.0696926
0.0713103
0.072805
0.0741719
0.0754071
0.0765072
0.077469
0.0782899
0.0789684
0.0795035
0.0798955
0.0801458
0.0802566
0.0802308
0.0800722
0.0797857
0.0793771
0.0788541
0.0782256
0.0775015
0.0766927
0.0758112
0.0748708
0.0738867
0.072876
0.0718567
0.0708477
0.069869
0.0689409
0.0680841
0.0673197
0.0666683
0.066151
0.0657891
0.065593
0.00375558
0.00331252
0.00277961
0.0021451
0.00140857
0.000589729
-0.000293256
-0.00122291
-0.00218187
-0.00315281
-0.00411865
-0.00506345
-0.0059723
-0.00683117
-0.00762737
-0.00834946
-0.00898714
-0.00953087
-0.00997265
-0.0103056
-0.0105236
-0.0106218
-0.010596
-0.0104432
-0.0101612
-0.00974879
-0.0092052
-0.00853055
-0.00772563
-0.00679179
-0.00573104
-0.00454593
-0.00323943
-0.00181488
-0.000276136
0.00137228
0.00312538
0.00497797
0.00692438
0.00895852
0.0110742
0.0132649
0.0155242
0.0178452
0.0202205
0.0226421
0.0251025
0.0275941
0.030109
0.0326391
0.0351764
0.0377125
0.0402393
0.0427488
0.0452325
0.0476814
0.050087
0.0524415
0.0547374
0.0569673
0.0591237
0.061199
0.063186
0.0650777
0.0668679
0.0685509
0.0701209
0.0715725
0.0729012
0.0741033
0.0751755
0.0761148
0.0769186
0.0775852
0.0781142
0.0785059
0.0787616
0.0788833
0.0788737
0.0787366
0.0784765
0.078099
0.0776113
0.0770219
0.0763399
0.0755753
0.0747393
0.0738445
0.072905
0.071936
0.0709537
0.0699748
0.0690166
0.0680969
0.0672335
0.0664443
0.0657479
0.0651623
0.0646914
0.0643301
0.00513683
0.00451244
0.00385421
0.00313613
0.00233904
0.0014798
0.000574485
-0.000362191
-0.00131583
-0.00227156
-0.00321473
-0.00413149
-0.00500872
-0.00583349
-0.0065949
-0.00728252
-0.00788701
-0.00839979
-0.00881331
-0.00912124
-0.00931815
-0.00939932
-0.00936103
-0.00920045
-0.00891548
-0.0085048
-0.00796783
-0.00730459
-0.00651581
-0.00560291
-0.00456788
-0.00341307
-0.00214121
-0.000755605
0.00073997
0.00234127
0.0040436
0.00584196
0.00773083
0.00970436
0.0117567
0.0138817
0.016073
0.0183239
0.020627
0.0229749
0.0253604
0.0277763
0.0302146
0.0326678
0.0351279
0.0375871
0.0400377
0.0424716
0.0448805
0.0472556
0.049589
0.0518734
0.0541016
0.0562661
0.0583595
0.0603746
0.0623045
0.0641425
0.0658826
0.0675192
0.0690466
0.0704597
0.0717543
0.0729268
0.0739741
0.074893
0.075681
0.0763366
0.0768595
0.0772501
0.0775094
0.0776393
0.0776424
0.077522
0.0772825
0.0769292
0.076469
0.0759094
0.0752592
0.0745275
0.0737246
0.072862
0.0719524
0.0710094
0.0700475
0.0690812
0.0681257
0.0671963
0.0663083
0.065477
0.0647187
0.0640492
0.0634538
0.0629124
0.00662366
0.00581008
0.00501675
0.00420311
0.00333218
0.00241826
0.00147587
0.00051671
-0.000446828
-0.00140203
-0.00233667
-0.00323887
-0.00409697
-0.00489973
-0.00563701
-0.00629994
-0.0068799
-0.00736923
-0.00776118
-0.00804995
-0.00823054
-0.00829873
-0.00825106
-0.00808499
-0.00779856
-0.00739045
-0.00686008
-0.00620761
-0.00543384
-0.00454015
-0.00352842
-0.00240095
-0.00116042
0.000189999
0.00164667
0.00320555
0.00486217
0.00661166
0.0084487
0.0103677
0.0123631
0.0144291
0.0165592
0.0187469
0.020985
0.0232666
0.0255849
0.0279326
0.0303022
0.0326862
0.0350771
0.0374676
0.0398498
0.042216
0.0445577
0.0468669
0.049136
0.051358
0.0535258
0.055632
0.0576693
0.0596309
0.0615101
0.0633006
0.0649963
0.0665917
0.0680814
0.0694605
0.0707249
0.0718713
0.0728963
0.073797
0.0745706
0.075216
0.0757328
0.0761215
0.0763829
0.0765186
0.0765309
0.076423
0.0761988
0.0758635
0.0754234
0.0748855
0.0742579
0.0735488
0.0727677
0.0719251
0.0710323
0.0701016
0.0691454
0.0681767
0.0672085
0.0662541
0.0653266
0.0644388
0.0636053
0.0628397
0.0621096
0.0613796
0.00818168
0.00717551
0.00624045
0.00532269
0.00436714
0.00338698
0.00239511
0.00140096
0.00041465
-0.000553106
-0.00149163
-0.00239087
-0.00324079
-0.00403198
-0.00475494
-0.00540183
-0.00596516
-0.006438
-0.00681449
-0.00708943
-0.00725816
-0.00731696
-0.00726293
-0.00709356
-0.00680696
-0.00640206
-0.00587843
-0.00523621
-0.00447625
-0.00360001
-0.00260936
-0.00150649
-0.000294047
0.00102484
0.00244667
0.00396763
0.0055834
0.00728923
0.00907994
0.0109503
0.012895
0.0149083
0.0169837
0.0191149
0.0212951
0.0235177
0.0257761
0.0280631
0.0303714
0.0326938
0.0350234
0.0373529
0.0396745
0.0419803
0.0442626
0.0465134
0.0487257
0.0508927
0.0530073
0.055062
0.0570499
0.0589644
0.0607993
0.0625481
0.0642049
0.0657642
0.0672208
0.0685702
0.0698083
0.0709318
0.0719374
0.0728218
0.0735826
0.0742185
0.0747294
0.0751156
0.0753776
0.0755168
0.0755352
0.0754358
0.0752223
0.0748994
0.0744728
0.0739492
0.0733357
0.07264
0.0718706
0.071037
0.0701495
0.0692187
0.0682556
0.0672713
0.0662773
0.065285
0.0643057
0.0633496
0.0624303
0.0615599
0.0606882
0.0597661
0.00978085
0.0085813
0.00750111
0.00647272
0.00542458
0.0043686
0.0033172
0.00227765
0.00125775
0.000266455
-0.000686811
-0.00159339
-0.00244502
-0.00323347
-0.00395074
-0.00458935
-0.00514302
-0.00560584
-0.00597245
-0.00623824
-0.00639927
-0.00645218
-0.00639435
-0.00622355
-0.00593808
-0.005537
-0.00502005
-0.00438752
-0.00364029
-0.00277983
-0.00180802
-0.000727089
0.000460324
0.00175119
0.0031422
0.00462961
0.00620917
0.0078763
0.00962611
0.0114536
0.0133536
0.0153202
0.0173472
0.0194285
0.0215577
0.0237283
0.0259339
0.0281674
0.0304217
0.0326901
0.0349659
0.0372419
0.0395101
0.041763
0.0439932
0.0461931
0.048356
0.0504751
0.0525432
0.0545531
0.0564981
0.058372
0.0601685
0.0618814
0.0635046
0.0650327
0.0664609
0.0677847
0.0690003
0.0701041
0.0710928
0.0719631
0.0727125
0.0733399
0.0738451
0.0742282
0.0744895
0.0746302
0.074652
0.0745576
0.0743505
0.0740349
0.0736162
0.0731001
0.0724931
0.0718023
0.0710355
0.0702013
0.0693086
0.0683671
0.0673861
0.0663752
0.0653443
0.0643033
0.0632617
0.062228
0.0612149
0.0602331
0.059216
0.058101
0.0113951
0.0100034
0.00877604
0.00763293
0.00648616
0.00534709
0.0042279
0.00313404
0.00207155
0.00104782
7.062e-05
-0.000852442
-0.00171452
-0.00250816
-0.00322693
-0.00386433
-0.0044147
-0.00487309
-0.00523486
-0.0054959
-0.00565287
-0.00570299
-0.00564378
-0.00547319
-0.00518987
-0.00479314
-0.00428285
-0.00365938
-0.00292368
-0.00207731
-0.00112226
-6.07511e-05
0.00110465
0.00237099
0.00373504
0.00519308
0.00674091
0.00837424
0.0100885
0.0118787
0.0137396
0.0156654
0.0176502
0.0196881
0.0217729
0.0238984
0.0260579
0.0282449
0.0304524
0.0326742
0.0349035
0.0371331
0.0393551
0.0415624
0.0437477
0.0459041
0.0480246
0.0501025
0.0521308
0.0541025
0.056011
0.0578505
0.0596146
0.061297
0.0628917
0.0643934
0.0657977
0.0671002
0.0682969
0.0693843
0.0703587
0.0712169
0.0719565
0.0725764
0.0730762
0.0734558
0.0737154
0.0738557
0.0738784
0.0737861
0.0735817
0.0732692
0.0728529
0.0723382
0.071731
0.0710377
0.0702654
0.0694219
0.0685152
0.0675535
0.0665451
0.0654981
0.064421
0.0633224
0.0622101
0.0610913
0.0599782
0.0588806
0.0577161
0.0564097
0.0130022
0.0114203
0.010045
0.00878449
0.00753503
0.00630748
0.0051137
0.00395818
0.0028456
0.00178174
0.00077295
-0.000174333
-0.00105405
-0.00186022
-0.00258689
-0.00322909
-0.00378199
-0.00424101
-0.00460227
-0.00486253
-0.00501893
-0.00506892
-0.00501023
-0.00484129
-0.00456112
-0.00416917
-0.00366533
-0.00305015
-0.0023248
-0.00149094
-0.000550577
0.000494062
0.00164046
0.00288567
0.00422643
0.0056591
0.00717968
0.00878408
0.0104678
0.012226
0.0140534
0.0159442
0.0178928
0.0198936
0.0219406
0.0240274
0.0261476
0.0282948
0.0304628
0.032645
0.0348349
0.037025
0.0392079
0.0413765
0.0435243
0.0456441
0.0477291
0.0497726
0.0517675
0.0537073
0.0555858
0.0573969
0.0591343
0.0607916
0.0623628
0.0638431
0.065228
0.0665132
0.0676948
0.0687687
0.0697314
0.0705797
0.0713112
0.0719248
0.0724197
0.0727956
0.0730525
0.073191
0.0732128
0.0731199
0.0729151
0.0726015
0.072183
0.0716643
0.0710509
0.0703485
0.0695638
0.0687036
0.067775
0.0667852
0.0657412
0.0646499
0.0635186
0.0623549
0.0611653
0.0599556
0.0587378
0.0575215
0.056209
0.0547137
0.0145826
0.0128132
0.0112903
0.00991044
0.00855539
0.00723522
0.00596181
0.00473874
0.00356972
0.00245917
0.00141225
0.000434241
-0.000469323
-0.00129395
-0.00203462
-0.00268703
-0.0032472
-0.00371133
-0.00407623
-0.00433927
-0.00449797
-0.00454999
-0.00449359
-0.00432764
-0.00405137
-0.00366431
-0.00316657
-0.00255892
-0.00184274
-0.00101976
-9.19669e-05
0.000938395
0.00206874
0.00329607
0.00461715
0.00602846
0.00752622
0.00910647
0.0107647
0.012496
0.014295
0.0161565
0.0180751
0.020045
0.0220603
0.0241147
0.0262021
0.0283166
0.0304518
0.0326013
0.0347585
0.036916
0.0390666
0.0412037
0.0433209
0.0454111
0.0474672
0.0494826
0.0514507
0.0533652
0.0552198
0.0570085
0.0587248
0.0603621
0.061915
0.0633786
0.0647487
0.0660208
0.0671906
0.0682542
0.069208
0.0700487
0.070774
0.0713824
0.0718731
0.0722453
0.072499
0.0726347
0.0726539
0.0725584
0.0723503
0.0720322
0.0716074
0.07108
0.070455
0.069738
0.0689347
0.0680515
0.0670943
0.0660695
0.0649827
0.0638402
0.0626482
0.0614132
0.0601408
0.0588359
0.0575101
0.056173
0.0547129
0.0530317
0.0161193
0.0141659
0.0124962
0.0109959
0.00953273
0.00811682
0.00676003
0.00546478
0.00423389
0.00307116
0.00198071
0.000966749
3.35455e-05
-0.00081469
-0.00157435
-0.00224174
-0.00281347
-0.00328668
-0.00365887
-0.0039277
-0.00409102
-0.00414701
-0.00409449
-0.0039326
-0.00366065
-0.0032784
-0.0027863
-0.00218541
-0.00147717
-0.000663299
0.000254148
0.00127281
0.00239
0.00360266
0.00490766
0.00630168
0.00778102
0.00934172
0.0109792
0.0126885
0.0144647
0.0163026
0.0181969
0.0201418
0.0221315
0.0241598
0.026221
0.0283093
0.0304185
0.0325419
0.0346729
0.0368045
0.0389298
0.0410424
0.0431358
0.0452028
0.0472365
0.0492304
0.0511782
0.0530737
0.0549105
0.0566825
0.0583831
0.0600058
0.0615455
0.0629974
0.064357
0.0656199
0.0667816
0.067838
0.0687857
0.0696213
0.0703424
0.0709471
0.0714344
0.0718033
0.0720536
0.0721859
0.0722012
0.0721012
0.0718874
0.0715617
0.071127
0.070587
0.0699462
0.0692097
0.0683828
0.0674709
0.0664793
0.0654133
0.0642778
0.0630782
0.0618199
0.0605088
0.0591495
0.0577457
0.0563096
0.0548504
0.0532434
0.0513795
0.0175977
0.0154634
0.0136482
0.0120271
0.0104543
0.00894015
0.00749665
0.00612555
0.00482872
0.00360929
0.00247055
0.00141603
0.000448665
-0.000427954
-0.00121087
-0.00189719
-0.00248438
-0.00297025
-0.00335272
-0.00362976
-0.00379969
-0.0038614
-0.00381407
-0.00365691
-0.00338941
-0.00301179
-0.00252486
-0.00192982
-0.00122807
-0.000421404
0.000487953
0.00149745
0.00260432
0.00380559
0.00509825
0.00647907
0.00794429
0.00948983
0.0111112
0.0128036
0.0145623
0.0163823
0.0182579
0.0201836
0.0221535
0.024162
0.0262035
0.0282722
0.0303617
0.0324654
0.0345768
0.0366892
0.038796
0.0408909
0.0429671
0.0450174
0.047035
0.0490139
0.0509478
0.0528305
0.0546555
0.0564163
0.0581066
0.0597202
0.0612518
0.0626968
0.0640504
0.065308
0.0664651
0.0675177
0.0684622
0.0692954
0.0700144
0.070617
0.0711019
0.0714682
0.0717154
0.0718439
0.0718546
0.0717486
0.071527
0.0711912
0.0707436
0.0701876
0.0695274
0.0687674
0.0679124
0.066967
0.0659359
0.0648235
0.0636342
0.0623726
0.0610436
0.0596524
0.0582027
0.0566974
0.0551489
0.053567
0.0518141
0.0497708
0.0190045
0.0166923
0.0147332
0.0129913
0.0113078
0.00969351
0.00816084
0.00671087
0.0053448
0.00406504
0.00287419
0.00177482
0.000769521
-0.000139352
-0.000949229
-0.00165803
-0.00226406
-0.00276554
-0.00316063
-0.00344788
-0.00362628
-0.00369519
-0.00365386
-0.00350169
-0.00323867
-0.00286549
-0.00238313
-0.00179275
-0.00109583
-0.000294373
0.000609113
0.00161197
0.00271149
0.00390481
0.00518894
0.00656054
0.00801574
0.00955052
0.0111605
0.0128412
0.0145878
0.0163951
0.0182576
0.0201698
0.022126
0.0241209
0.026149
0.0282043
0.0302803
0.0323706
0.034469
0.0365689
0.038664
0.0407476
0.0428129
0.0448529
0.046861
0.0488313
0.0507576
0.0526335
0.0544523
0.0562077
0.0578933
0.0595031
0.0610318
0.0624745
0.0638265
0.0650827
0.0662389
0.0672911
0.0682358
0.0690692
0.0697884
0.0703907
0.0708748
0.0712393
0.0714839
0.0716087
0.0716141
0.071501
0.0712698
0.0709218
0.070459
0.0698844
0.0692017
0.0684149
0.0675279
0.0665449
0.0654698
0.0643066
0.0630591
0.0617316
0.0603284
0.0588538
0.0573108
0.0557018
0.0540396
0.0523346
0.0504368
0.048217
0.0203279
0.0178408
0.0157388
0.0138763
0.0120816
0.0103658
0.0087421
0.00721086
0.00577282
0.00442969
0.00318355
0.00203601
0.00098932
4.50922e-05
-0.000794944
-0.00152943
-0.00215703
-0.00267627
-0.00308592
-0.00338523
-0.00357369
-0.00365072
-0.00361573
-0.00346869
-0.00321017
-0.00284108
-0.00236233
-0.00177513
-0.00108127
-0.000283108
0.000616734
0.00161566
0.00271104
0.00389993
0.00517923
0.00654546
0.00799478
0.00952331
0.0111269
0.0128009
0.0145406
0.0163405
0.0181953
0.0200997
0.0220483
0.0240358
0.0260566
0.0281046
0.0301733
0.0322565
0.0343485
0.0364426
0.0385323
0.040611
0.0426718
0.0447079
0.046713
0.048681
0.0506059
0.0524808
0.0542992
0.0560547
0.0577412
0.0593526
0.0608835
0.0623287
0.0636833
0.0649424
0.0661016
0.0671571
0.068105
0.0689416
0.0696633
0.0702674
0.0707523
0.0711165
0.0713593
0.0714805
0.0714804
0.0713593
0.0711174
0.0707557
0.0702758
0.0696804
0.0689728
0.0681561
0.0672339
0.0662097
0.0650869
0.0638691
0.0625601
0.0611635
0.0596829
0.0581221
0.0564835
0.054769
0.0529919
0.0511637
0.0491223
0.0467286
0.0215575
0.0188978
0.0166541
0.014671
0.0127648
0.0109467
0.00923039
0.00761607
0.00610382
0.00469484
0.00339054
0.00219237
0.00110144
0.000119024
-0.000753942
-0.00151656
-0.00216773
-0.00270655
-0.00313255
-0.00344546
-0.00364493
-0.00373045
-0.00370204
-0.00356032
-0.00330614
-0.00294034
-0.00246388
-0.00187832
-0.00118587
-0.000389017
0.000509661
0.00150762
0.00260212
0.00379003
0.00506807
0.00643279
0.00788049
0.00940744
0.0110094
0.0126818
0.0144195
0.0162173
0.01807
0.0199725
0.0219196
0.0239057
0.0259251
0.0279717
0.0300394
0.0321221
0.0342141
0.0363089
0.0383996
0.0404796
0.0425424
0.0445811
0.0465895
0.0485616
0.0504909
0.0523707
0.0541944
0.0559558
0.0576489
0.0592672
0.0608053
0.0622578
0.0636196
0.0648858
0.0660521
0.0671146
0.0680692
0.0689118
0.0696387
0.0702469
0.0707345
0.0710999
0.071342
0.0714603
0.0714547
0.0713252
0.0710719
0.0706954
0.0701971
0.0695792
0.0688445
0.0679956
0.0670354
0.0659669
0.0647934
0.0635182
0.0621447
0.060676
0.0591154
0.057466
0.0557298
0.0539082
0.0520156
0.0500642
0.04788
0.0453146
0.0226829
0.0198529
0.0174688
0.0153654
0.0133474
0.0114263
0.00961631
0.00791737
0.00632902
0.0048522
0.00348763
0.00223645
0.00109899
7.59672e-05
-0.000832085
-0.00162455
-0.00230092
-0.00286103
-0.00330485
-0.00363226
-0.00384307
-0.00393737
-0.00391585
-0.00377943
-0.00352893
-0.00316523
-0.00268969
-0.00210434
-0.00141155
-0.00061376
0.000286505
0.00128655
0.00238335
0.00357358
0.00485398
0.00622121
0.00767172
0.00920173
0.0108069
0.0124824
0.0142232
0.0160243
0.0178806
0.0197871
0.0217385
0.0237289
0.0257528
0.0278043
0.0298772
0.031966
0.0340645
0.0361661
0.0382641
0.0403519
0.042423
0.0444708
0.0464889
0.0484711
0.0504109
0.0523015
0.0541364
0.0559096
0.0576147
0.0592455
0.0607958
0.0622604
0.0636341
0.0649121
0.0660897
0.067163
0.0681278
0.0689796
0.0697145
0.0703293
0.0708219
0.0711903
0.0714331
0.0715494
0.0715387
0.0714009
0.0711359
0.070744
0.0702264
0.0695847
0.0688211
0.067938
0.0669375
0.0658225
0.0645959
0.0632608
0.0618203
0.0602771
0.058634
0.0568938
0.0550581
0.0531284
0.0511197
0.0490449
0.0467188
0.0439833
0.0236946
0.0206964
0.018173
0.0159497
0.0138196
0.011795
0.00989054
0.00810571
0.00643985
0.00489346
0.00346707
0.00216073
0.000974797
-9.05833e-05
-0.0010352
-0.00185894
-0.00256203
-0.00314474
-0.00360716
-0.00394941
-0.00417183
-0.00427522
-0.00426065
-0.00412897
-0.00388106
-0.00351821
-0.00304232
-0.00245564
-0.00176046
-0.000959165
-5.44578e-05
0.000950611
0.00205278
0.0032487
0.00453525
0.00590921
0.00736695
0.00890453
0.0105174
0.0122009
0.01395
0.0157599
0.0176255
0.0195417
0.021503
0.0235037
0.0255381
0.0276006
0.0296853
0.0317863
0.0338975
0.0360124
0.0381239
0.0402259
0.0423119
0.0443752
0.0464093
0.0484078
0.050364
0.0522714
0.0541235
0.0559143
0.0576373
0.0592858
0.0608537
0.0623355
0.063726
0.0650203
0.0662137
0.0673018
0.0682804
0.0691447
0.0698907
0.070515
0.0710149
0.0713885
0.0716337
0.0717492
0.0717344
0.0715888
0.0713122
0.0709047
0.0703671
0.0697007
0.0689071
0.0679881
0.0669457
0.0657823
0.0645006
0.0631036
0.0615939
0.059974
0.0582463
0.0564135
0.0544769
0.0524379
0.0503124
0.0481141
0.0456464
0.0427418
0.0245843
0.0214193
0.0187574
0.0164147
0.0141724
0.0120437
0.0100439
0.00817229
0.00642783
0.00481048
0.00332057
0.00195769
0.000721866
-0.000387131
-0.00136952
-0.00222583
-0.00295673
-0.00356265
-0.00404395
-0.00440125
-0.00463558
-0.00474815
-0.00473998
-0.00461202
-0.00436554
-0.00400241
-0.0035248
-0.00293488
-0.00223488
-0.00142737
-0.000515475
0.000497452
0.00160812
0.00281333
0.00411003
0.00549492
0.00696418
0.00851369
0.010139
0.0118353
0.013598
0.0154222
0.0173027
0.0192342
0.021211
0.0232277
0.0252787
0.0273586
0.0294613
0.0315809
0.0337111
0.0358453
0.0379769
0.0400997
0.0422071
0.0442924
0.0463486
0.0483695
0.0503484
0.0522788
0.0541542
0.0559684
0.0577149
0.0593866
0.0609774
0.0624817
0.0638942
0.0652097
0.0664233
0.0675305
0.0685266
0.0694071
0.0701675
0.0708042
0.0713144
0.0716954
0.071945
0.0720615
0.0720438
0.0718913
0.0716037
0.0711807
0.0706229
0.0699312
0.0691067
0.0681509
0.0670653
0.0658522
0.0645139
0.0630532
0.0614724
0.0597738
0.0579597
0.0560327
0.0539939
0.0518446
0.0496015
0.0472792
0.04467
0.041597
0.0253441
0.0220131
0.0192133
0.0167511
0.0143966
0.0121634
0.0100677
0.00810847
0.0062843
0.00459502
0.00304029
0.00161988
0.000333186
-0.000820402
-0.00184161
-0.00273138
-0.00349055
-0.00411983
-0.00462015
-0.00499273
-0.00523902
-0.00536022
-0.00535745
-0.00523207
-0.00498598
-0.00462133
-0.00414021
-0.00354472
-0.0028373
-0.002021
-0.00109929
-7.5559e-05
0.00104703
0.00226533
0.00357621
0.00497611
0.00646104
0.00802687
0.00966925
0.0113836
0.0131653
0.0150091
0.0169098
0.018862
0.0208601
0.0228988
0.0249727
0.0270761
0.029203
0.0313472
0.0335027
0.0356628
0.0378209
0.039971
0.0421063
0.0442198
0.0463046
0.0483541
0.0503621
0.0523217
0.0542266
0.0560702
0.0578459
0.0595465
0.0611658
0.0626981
0.0641378
0.0654795
0.066718
0.0678486
0.0688665
0.0697669
0.0705453
0.0711979
0.0717213
0.0721126
0.0723689
0.0724882
0.0724692
0.0723112
0.0720135
0.0715757
0.0709979
0.0702807
0.0694249
0.0684316
0.0673021
0.0660382
0.0646421
0.0631162
0.0614628
0.0596839
0.0577819
0.0557592
0.0536169
0.0513561
0.0489944
0.0465476
0.0437965
0.0405549
0.0259661
0.0224693
0.0195318
0.0169502
0.0144833
0.0121453
0.00995315
0.00790557
0.00600085
0.00423877
0.00261858
0.00113983
-0.000198507
-0.00139743
-0.0024581
-0.00338164
-0.00416912
-0.00482183
-0.00534129
-0.0057291
-0.00598677
-0.00611559
-0.0061171
-0.0059933
-0.00574641
-0.00537852
-0.00489161
-0.00428804
-0.00357074
-0.00274316
-0.00180883
-0.000771032
0.000367157
0.00160244
0.0029314
0.00435028
0.00585508
0.0074418
0.00910623
0.0108438
0.0126495
0.0145182
0.0164443
0.0184227
0.020448
0.0225147
0.0246176
0.0267507
0.0289079
0.031083
0.0332699
0.0354623
0.0376537
0.0398376
0.0420072
0.0441553
0.046275
0.0483598
0.0504032
0.0523985
0.054339
0.0562181
0.0580289
0.0597644
0.0614179
0.0629838
0.0644562
0.0658294
0.0670977
0.0682564
0.0693004
0.070225
0.0710253
0.0716973
0.0722372
0.0726417
0.0729073
0.0730319
0.0730137
0.0728517
0.0725452
0.0720935
0.0714963
0.0707539
0.069867
0.0688361
0.0676622
0.0663468
0.0648919
0.0632997
0.0615722
0.0597118
0.0577205
0.0556007
0.0533534
0.0509798
0.0484986
0.0459263
0.0430326
0.039622
0.0264421
0.0227799
0.0197046
0.0170034
0.0144238
0.0119805
0.0096914
0.00755491
0.00556922
0.00373363
0.00204757
0.000509875
-0.000880657
-0.00212533
-0.00322559
-0.00418282
-0.00499862
-0.0056748
-0.00621321
-0.00661559
-0.00688357
-0.0070189
-0.0070237
-0.00690029
-0.00665088
-0.00627749
-0.00578234
-0.00516829
-0.00443872
-0.00359716
-0.00264704
-0.00159158
-0.000434016
0.000822038
0.00217292
0.00361486
0.00514397
0.00675638
0.00844784
0.0102136
0.0120484
0.013947
0.015904
0.0179144
0.0199726
0.0220734
0.0242112
0.0263801
0.0285736
0.0307858
0.0330107
0.035242
0.0374731
0.0396972
0.0419076
0.0440968
0.046258
0.0483846
0.0504701
0.0525075
0.05449
0.0564108
0.0582629
0.0600392
0.0617331
0.0633385
0.0648492
0.0662592
0.0675625
0.0687542
0.0698292
0.0707823
0.0716088
0.0723041
0.0728641
0.0732849
0.0735629
0.0736953
0.0736802
0.0735165
0.0732029
0.0727386
0.0721231
0.0713562
0.0704384
0.06937
0.0681515
0.0667842
0.0652699
0.0636105
0.0618082
0.059865
0.0577831
0.0555647
0.053211
0.0507232
0.0481211
0.0454223
0.0423849
0.038804
0.0267645
0.0229366
0.0197232
0.0169021
0.0142093
0.0116604
0.00927392
0.00704806
0.00498096
0.00307161
0.00131921
-0.000277753
-0.00172068
-0.00301116
-0.00415088
-0.00514169
-0.00598572
-0.00668504
-0.00724167
-0.00765755
-0.0079347
-0.00807547
-0.00808233
-0.00795762
-0.00770346
-0.00732212
-0.00681636
-0.00618949
-0.00544503
-0.00458638
-0.00361693
-0.00254009
-0.00135946
-7.8888e-05
0.00129789
0.00276724
0.00432538
0.00596839
0.00769182
0.00949063
0.0113596
0.0132933
0.0152867
0.0173347
0.019432
0.0215727
0.0237514
0.0259619
0.028198
0.0304536
0.032723
0.0349997
0.0372769
0.0395477
0.0418053
0.0440423
0.0462517
0.0484269
0.0505611
0.0526472
0.0546781
0.0566469
0.0585466
0.0603702
0.0621106
0.0637615
0.0653164
0.0667688
0.0681126
0.0693425
0.0704535
0.0714401
0.0722972
0.0730199
0.0736038
0.0740445
0.0743381
0.0744814
0.0744723
0.0743091
0.0739905
0.0735154
0.0728829
0.0720926
0.0711446
0.0700389
0.0687759
0.0673566
0.0657825
0.0640555
0.0621775
0.0601505
0.0579766
0.0556581
0.0531965
0.0505931
0.0478689
0.045042
0.0418594
0.0381065
0.0269253
0.0229311
0.0195791
0.0166377
0.0138313
0.0111763
0.0086921
0.00637663
0.00422769
0.00224441
0.000425397
-0.00123087
-0.00272612
-0.00406224
-0.00524123
-0.00626544
-0.00713724
-0.00785888
-0.00843264
-0.00886083
-0.00914604
-0.00929097
-0.00929814
-0.00916987
-0.00890853
-0.00851691
-0.00799822
-0.00735596
-0.00659352
-0.00571429
-0.00472185
-0.00361999
-0.00241259
-0.0011036
0.000303377
0.0018048
0.00339682
0.00507531
0.00683552
0.00867228
0.0105804
0.0125548
0.0145903
0.0166818
0.0188237
0.0210103
0.0232357
0.0254939
0.0277788
0.0300844
0.0324048
0.0347333
0.0370629
0.0393869
0.0416983
0.0439898
0.0462543
0.0484849
0.0506746
0.052816
0.0549018
0.0569253
0.0588793
0.0607565
0.0625498
0.0642524
0.0658574
0.067358
0.068748
0.0700219
0.0711742
0.0721993
0.0730918
0.0738464
0.0744583
0.0749227
0.0752355
0.0753932
0.0753931
0.0752334
0.0749123
0.0744284
0.0737806
0.0729682
0.0719908
0.0708485
0.0695414
0.0680702
0.0664362
0.0646412
0.0626868
0.0605749
0.0583077
0.0558878
0.0533169
0.0505965
0.0477484
0.0447919
0.0414622
0.0375349
0.0269167
0.0227554
0.0192641
0.0162017
0.0132812
0.0105198
0.00793733
0.00553199
0.0033011
0.00124366
-0.00064196
-0.00235743
-0.00390483
-0.0052863
-0.00650427
-0.00756131
-0.00845999
-0.00920283
-0.00979251
-0.0102318
-0.0105237
-0.010671
-0.0106762
-0.010542
-0.0102711
-0.0098669
-0.00933272
-0.008672
-0.00788813
-0.00698469
-0.00596566
-0.00483515
-0.00359713
-0.00225546
-0.000813653
0.000724661
0.0023554
0.00407411
0.0058759
0.00775565
0.00970834
0.0117289
0.0138122
0.0159529
0.0181453
0.0203834
0.0226615
0.0249738
0.0273139
0.0296758
0.0320536
0.0344402
0.0368288
0.0392126
0.0415846
0.0439375
0.0462639
0.0485567
0.0508086
0.053012
0.0551597
0.0572446
0.0592596
0.0611971
0.0630497
0.0648103
0.0664717
0.0680268
0.0694691
0.0707928
0.0719921
0.0730612
0.0739941
0.0747854
0.0754297
0.0759222
0.0762582
0.076434
0.0764465
0.0762935
0.0759728
0.0754825
0.0748213
0.0739883
0.0729829
0.0718049
0.0704542
0.0689315
0.0672378
0.0653744
0.063343
0.0611452
0.0587837
0.0562612
0.0535796
0.0507405
0.0477668
0.0446787