/*--------------------------------*- C++ -*----------------------------------*\
  =========                 |
  \\      /  F ield         | OpenFOAM: The Open Source CFD Toolbox
   \\    /   O peration     | Website:  https://openfoam.org
    \\  /    A nd           | Version:  11
     \\/     M anipulation  |
\*---------------------------------------------------------------------------*/
FoamFile
{
    format      ascii;
    class       surfaceScalarField;
    location    "6";
    object      phi;
}
// * * * * * * * * * * * * * * * * * * * * * * * * * * * * * * * * * * * * * //

dimensions      [0 3 -1 0 0 0 0];

internalField   nonuniform List<scalar> 
19980
(
6.83322e-07
-6.83017e-07
2.36352e-06
-1.68018e-06
4.24206e-06
-1.87842e-06
5.73689e-06
-1.49494e-06
6.51229e-06
-7.753e-07
6.38542e-06
1.26715e-07
5.26995e-06
1.11553e-06
3.13717e-06
2.13282e-06
-5.00643e-09
3.14221e-06
-4.12694e-06
4.12176e-06
-9.18377e-06
5.0571e-06
-1.51219e-05
5.93812e-06
-2.18819e-05
6.76011e-06
-2.94009e-05
7.51902e-06
-3.7613e-05
8.2122e-06
-4.64522e-05
8.8391e-06
-5.58516e-05
9.39946e-06
-6.57454e-05
9.89386e-06
-7.60682e-05
1.03229e-05
-8.67554e-05
1.06872e-05
-9.77425e-05
1.09871e-05
-0.000108968
1.12249e-05
-0.00012037
1.14021e-05
-0.00013189
1.15201e-05
-0.000143471
1.15812e-05
-0.000155058
1.15872e-05
-0.000166598
1.15401e-05
-0.00017804
1.14419e-05
-0.000189335
1.12947e-05
-0.000200435
1.11005e-05
-0.000211297
1.08612e-05
-0.000221876
1.0579e-05
-0.000232131
1.02559e-05
-0.000242025
9.89376e-06
-0.00025152
9.49459e-06
-0.00026058
9.06055e-06
-0.000269174
8.59357e-06
-0.000277269
8.09554e-06
-0.000284838
7.56856e-06
-0.000291853
7.0148e-06
-0.000298289
6.43624e-06
-0.000304124
5.83488e-06
-0.000309336
5.21268e-06
-0.000313908
4.57166e-06
-0.000317822
3.91413e-06
-0.000321064
3.24219e-06
-0.000323622
2.55778e-06
-0.000325485
1.86323e-06
-0.000326646
1.16097e-06
-0.000327099
4.53284e-07
-0.000326842
-2.57586e-07
-0.000325873
-9.69362e-07
-0.000324193
-1.6797e-06
-0.000321806
-2.38625e-06
-0.00031872
-3.08644e-06
-0.000314942
-3.77761e-06
-0.000310485
-4.45739e-06
-0.000305362
-5.1234e-06
-0.000299589
-5.77278e-06
-0.000293186
-6.40275e-06
-0.000286175
-7.01094e-06
-0.00027858
-7.59506e-06
-0.000270427
-8.15256e-06
-0.000261747
-8.68073e-06
-0.00025257
-9.17678e-06
-0.000242932
-9.638e-06
-0.00023287
-1.00618e-05
-0.000222425
-1.04455e-05
-0.000211638
-1.07867e-05
-0.000200555
-1.10829e-05
-0.000189223
-1.13317e-05
-0.000177693
-1.15306e-05
-0.000166015
-1.16773e-05
-0.000154246
-1.17699e-05
-0.000142439
-1.18062e-05
-0.000130655
-1.17843e-05
-0.000118953
-1.17024e-05
-0.000107394
-1.1559e-05
-9.60408e-05
-1.13529e-05
-8.49577e-05
-1.1083e-05
-7.42091e-05
-1.07485e-05
-6.38606e-05
-1.03485e-05
-5.3978e-05
-9.88265e-06
-4.46273e-05
-9.35069e-06
-3.58742e-05
-8.75302e-06
-2.77838e-05
-8.09051e-06
-2.04192e-05
-7.36466e-06
-1.38413e-05
-6.5779e-06
-8.10732e-06
-5.73394e-06
-3.26923e-06
-4.83814e-06
6.2889e-07
-3.89821e-06
3.55401e-06
-2.92516e-06
5.48889e-06
-1.93488e-06
6.43976e-06
-9.50876e-07
6.44848e-06
-8.763e-09
5.61208e-06
8.36378e-07
4.11364e-06
1.49848e-06
2.27472e-06
1.83897e-06
6.45232e-07
1.62946e-06
6.45229e-07
1.59049e-06
-2.27365e-06
4.42018e-06
-4.50972e-06
7.18042e-06
-4.6387e-06
8.86548e-06
-3.18009e-06
8.77814e-06
-6.8774e-07
6.47983e-06
2.42511e-06
1.71728e-06
5.87786e-06
-5.62637e-06
9.47664e-06
-1.55773e-05
1.30931e-05
-2.80945e-05
1.6639e-05
-4.30925e-05
2.00549e-05
-6.04533e-05
2.32989e-05
-8.00364e-05
2.63431e-05
-0.000101686
2.91689e-05
-0.000125238
3.17634e-05
-0.000150518
3.41195e-05
-0.000177351
3.62324e-05
-0.000205559
3.81018e-05
-0.000234964
3.97276e-05
-0.000265388
4.11114e-05
-0.000296657
4.2256e-05
-0.000328598
4.31658e-05
-0.000361041
4.3846e-05
-0.000393824
4.43024e-05
-0.000426784
4.45416e-05
-0.000459767
4.45702e-05
-0.000492622
4.4395e-05
-0.000525204
4.40235e-05
-0.000557372
4.34632e-05
-0.000588993
4.27213e-05
-0.000619937
4.18054e-05
-0.000650081
4.07232e-05
-0.000679308
3.94826e-05
-0.000707505
3.80909e-05
-0.000734566
3.65559e-05
-0.000760391
3.48855e-05
-0.000784885
3.30875e-05
-0.000807959
3.11695e-05
-0.00082953
2.91393e-05
-0.00084952
2.70051e-05
-0.000867859
2.47749e-05
-0.00088448
2.24563e-05
-0.000899325
2.00575e-05
-0.00091234
1.75865e-05
-0.000923477
1.50516e-05
-0.000932696
1.24613e-05
-0.000939963
9.82385e-06
-0.000945247
7.14798e-06
-0.000948529
4.44248e-06
-0.000949792
1.71621e-06
-0.000949027
-1.02201e-06
-0.000946233
-3.76325e-06
-0.000941415
-6.49831e-06
-0.000934583
-9.21767e-06
-0.000925758
-1.19118e-05
-0.000914964
-1.45712e-05
-0.000902235
-1.71862e-05
-0.000887611
-1.97471e-05
-0.000871141
-2.22438e-05
-0.000852877
-2.46661e-05
-0.000832884
-2.70043e-05
-0.00081123
-2.92487e-05
-0.000787993
-3.13894e-05
-0.000763258
-3.34162e-05
-0.000737115
-3.53191e-05
-0.000709666
-3.70879e-05
-0.000681015
-3.87123e-05
-0.000651278
-4.01829e-05
-0.000620574
-4.149e-05
-0.000589033
-4.26242e-05
-0.000556788
-4.35764e-05
-0.000523981
-4.43378e-05
-0.000490758
-4.49e-05
-0.000457273
-4.5255e-05
-0.000423684
-4.53952e-05
-0.000390154
-4.53138e-05
-0.000356852
-4.50044e-05
-0.00032395
-4.44615e-05
-0.000291622
-4.36806e-05
-0.000260047
-4.2658e-05
-0.000229405
-4.13909e-05
-0.000199876
-3.98775e-05
-0.000171641
-3.81175e-05
-0.00014488
-3.61118e-05
-0.000119769
-3.38635e-05
-9.6482e-05
-3.13778e-05
-7.51834e-05
-2.86633e-05
-5.60292e-05
-2.57322e-05
-3.91613e-05
-2.26018e-05
-2.4703e-05
-1.92965e-05
-1.27516e-05
-1.58497e-05
-3.36941e-06
-1.23074e-05
3.4292e-06
-8.73357e-06
7.69606e-06
-5.21777e-06
9.57488e-06
-1.8876e-06
9.33731e-06
1.07395e-06
7.4313e-06
3.40451e-06
4.53919e-06
4.73107e-06
1.62615e-06
4.54251e-06
2.2714e-06
1.68705e-06
-3.9606e-06
4.29386e-06
-7.11658e-06
6.2443e-06
-6.58878e-06
6.34573e-06
-3.28172e-06
3.73686e-06
1.92104e-06
-2.16457e-06
8.32646e-06
-1.17168e-05
1.543e-05
-2.51103e-05
2.28703e-05
-4.24075e-05
3.03902e-05
-6.35744e-05
3.78061e-05
-8.85063e-05
4.49869e-05
-0.000117046
5.18386e-05
-0.000148998
5.82948e-05
-0.000184138
6.43093e-05
-0.000222223
6.98483e-05
-0.000262995
7.48916e-05
-0.000306188
7.9426e-05
-0.000351531
8.34444e-05
-0.000398749
8.69453e-05
-0.000447567
8.99297e-05
-0.000497714
9.24025e-05
-0.000548919
9.43714e-05
-0.000600919
9.58455e-05
-0.000653453
9.68362e-05
-0.000706267
9.73562e-05
-0.000759116
9.74189e-05
-0.00081176
9.70385e-05
-0.000863966
9.62302e-05
-0.000915512
9.50093e-05
-0.000966183
9.33917e-05
-0.00101577
9.13935e-05
-0.00106408
8.90313e-05
-0.00111092
8.63214e-05
-0.00115611
8.32804e-05
-0.00119948
7.99254e-05
-0.00124086
7.62733e-05
-0.00128012
7.2341e-05
-0.00131709
6.81456e-05
-0.00135166
6.37045e-05
-0.00138369
5.9035e-05
-0.00141307
5.41547e-05
-0.00143969
4.90812e-05
-0.00146347
4.38321e-05
-0.00148431
3.84255e-05
-0.00150214
3.28793e-05
-0.00151689
2.72121e-05
-0.0015285
2.14424e-05
-0.00153695
1.55892e-05
-0.00154217
9.67168e-06
-0.00154417
3.70921e-06
-0.00154291
-2.27873e-06
-0.0015384
-8.27229e-06
-0.00153065
-1.42514e-05
-0.00151967
-2.01954e-05
-0.0015055
-2.60835e-05
-0.00148818
-3.18948e-05
-0.00146775
-3.76083e-05
-0.0014443
-4.32024e-05
-0.00141789
-4.86556e-05
-0.00138861
-5.39461e-05
-0.00135656
-5.90521e-05
-0.00132186
-6.3952e-05
-0.00128462
-6.86242e-05
-0.00124499
-7.30466e-05
-0.00120311
-7.71974e-05
-0.00115914
-8.10549e-05
-0.00111326
-8.45975e-05
-0.00106564
-8.7804e-05
-0.00101647
-9.06539e-05
-0.000965972
-9.3127e-05
-0.000914344
-9.52038e-05
-0.000861817
-9.68654e-05
-0.000808623
-9.80939e-05
-0.000755005
-9.88726e-05
-0.000701215
-9.91854e-05
-0.000647511
-9.90178e-05
-0.000594158
-9.8357e-05
-0.000541428
-9.71916e-05
-0.000489597
-9.55123e-05
-0.000438943
-9.33119e-05
-0.000389748
-9.05856e-05
-0.000342294
-8.7331e-05
-0.000296863
-8.35491e-05
-0.00025373
-7.92444e-05
-0.000213168
-7.44262e-05
-0.000175436
-6.91092e-05
-0.000140785
-6.33151e-05
-0.000109442
-5.70745e-05
-8.16149e-05
-5.04292e-05
-5.74756e-05
-4.34358e-05
-3.71549e-05
-3.61705e-05
-2.0727e-05
-2.87353e-05
-8.19253e-06
-2.1268e-05
5.44773e-07
-1.39551e-05
5.70815e-06
-7.05107e-06
7.68549e-06
-9.03393e-07
7.07547e-06
4.01459e-06
4.7369e-06
7.06965e-06
1.8369e-06
7.44251e-06
4.10826e-06
1.28281e-06
-5.24342e-06
2.77077e-06
-8.60463e-06
2.81638e-06
-6.63454e-06
1.6213e-07
-6.27377e-07
-6.11543e-06
8.19881e-06
-1.66589e-05
1.88698e-05
-3.18814e-05
3.06527e-05
-5.20146e-05
4.30034e-05
-7.71423e-05
5.55178e-05
-0.000107236
6.79e-05
-0.000142179
7.99293e-05
-0.000181784
9.14441e-05
-0.000225815
0.000102326
-0.000273995
0.000112489
-0.000326019
0.000121872
-0.000381558
0.000130431
-0.000440273
0.00013814
-0.00050181
0.000144982
-0.000565815
0.00015095
-0.000631929
0.000156043
-0.000699793
0.000160267
-0.000769053
0.000163631
-0.000839358
0.00016615
-0.000910364
0.000167842
-0.000981732
0.000168724
-0.00105313
0.000168821
-0.00112425
0.000168154
-0.00119477
0.000166749
-0.00126439
0.000164631
-0.00133283
0.000161827
-0.0013998
0.000158365
-0.00146504
0.000154272
-0.00152829
0.000149576
-0.00158932
0.000144306
-0.00164788
0.000138491
-0.00170377
0.000132161
-0.00175677
0.000125344
-0.0018067
0.000118071
-0.00185337
0.000110372
-0.00189661
0.000102276
-0.00193627
9.38147e-05
-0.00197221
8.50181e-05
-0.00200429
7.59172e-05
-0.00203241
6.65435e-05
-0.00205646
5.69286e-05
-0.00207635
4.71042e-05
-0.00209201
3.7103e-05
-0.00210338
2.69577e-05
-0.00211041
1.67017e-05
-0.00211307
6.36862e-06
-0.00211134
-4.0076e-06
-0.00210522
-1.43925e-05
-0.00209472
-2.47509e-05
-0.00207987
-3.50474e-05
-0.00206071
-4.5246e-05
-0.00203729
-5.53105e-05
-0.00200969
-6.52043e-05
-0.00197801
-7.48903e-05
-0.00194233
-8.43311e-05
-0.00190279
-9.34891e-05
-0.00185951
-0.000102327
-0.00181266
-0.000110807
-0.00176239
-0.000118891
-0.00170889
-0.000126542
-0.00165237
-0.000133723
-0.00159303
-0.000140395
-0.0015311
-0.000146523
-0.00146684
-0.000152069
-0.00140049
-0.000156999
-0.00133234
-0.000161279
-0.00126267
-0.000164875
-0.00119178
-0.000167755
-0.00111998
-0.000169889
-0.00104761
-0.000171249
-0.000974986
-0.000171808
-0.000902462
-0.000171542
-0.00083039
-0.000170429
-0.000759129
-0.000168452
-0.000689045
-0.000165596
-0.000620508
-0.00016185
-0.000553887
-0.000157206
-0.000489555
-0.000151664
-0.000427877
-0.000145227
-0.000369214
-0.000137907
-0.000313917
-0.000129723
-0.000262322
-0.000120704
-0.000214745
-0.000110892
-0.000171475
-0.000100345
-0.000132767
-8.91373e-05
-9.88314e-05
-7.73711e-05
-6.98229e-05
-6.5179e-05
-4.58227e-05
-5.27355e-05
-2.68205e-05
-4.02702e-05
-1.26904e-05
-2.80853e-05
-3.16177e-06
-1.65798e-05
2.21549e-06
-6.28056e-06
4.11093e-06
2.11914e-06
3.45819e-06
7.72236e-06
1.51056e-06
9.39011e-06
5.61876e-06
6.03362e-07
-5.84671e-06
3.59413e-07
-8.36061e-06
-2.28816e-06
-3.987e-06
-8.55786e-06
5.64245e-06
-1.93625e-05
1.90034e-05
-3.53485e-05
3.48558e-05
-5.69407e-05
5.22448e-05
-8.43797e-05
7.04426e-05
-0.000117758
8.88959e-05
-0.000157041
0.000107183
-0.000202098
0.000124987
-0.00025272
0.000142066
-0.000308633
0.000158239
-0.000369517
0.000173373
-0.000435016
0.00018737
-0.000504744
0.00020016
-0.000578297
0.000211693
-0.000655256
0.000221941
-0.000735192
0.000230887
-0.000817675
0.000238526
-0.000902272
0.000244863
-0.000988551
0.00024991
-0.00107608
0.000253685
-0.00116445
0.000256211
-0.00125325
0.000257516
-0.00134205
0.00025763
-0.00143049
0.000256588
-0.00151817
0.000254426
-0.00160472
0.000251181
-0.00168978
0.000246893
-0.00177302
0.000241602
-0.0018541
0.000235351
-0.0019327
0.000228181
-0.00200853
0.000220137
-0.0020813
0.000211261
-0.00215074
0.000201599
-0.00221659
0.000191195
-0.00227862
0.000180094
-0.00233659
0.000168343
-0.0023903
0.000155987
-0.00243956
0.000143073
-0.00248419
0.000129647
-0.00252403
0.000115758
-0.00255894
0.000101453
-0.00258879
8.67808e-05
-0.00261347
7.17897e-05
-0.0026329
5.65296e-05
-0.00264699
4.10509e-05
-0.0026557
2.54042e-05
-0.00265897
9.64099e-06
-0.00265679
-6.18659e-06
-0.00264916
-2.20259e-05
-0.00263608
-3.78234e-05
-0.00261761
-5.35249e-05
-0.00259378
-6.90758e-05
-0.00256467
-8.44208e-05
-0.00253037
-9.95039e-05
-0.00249099
-0.000114269
-0.00244666
-0.000128659
-0.00239753
-0.000142617
-0.00234377
-0.000156085
-0.00228557
-0.000169007
-0.00222314
-0.000181326
-0.0021567
-0.000192983
-0.0020865
-0.000203923
-0.0020128
-0.000214089
-0.0019359
-0.000223425
-0.00185609
-0.000231878
-0.0017737
-0.000239394
-0.00168906
-0.000245921
-0.00160252
-0.00025141
-0.00151446
-0.000255813
-0.00142526
-0.000259086
-0.00133533
-0.000261185
-0.00124506
-0.000262072
-0.00115489
-0.000261712
-0.00106525
-0.000260074
-0.00097657
-0.000257132
-0.000889302
-0.000252865
-0.000803893
-0.000247258
-0.000720795
-0.000240305
-0.000640453
-0.000232005
-0.000563312
-0.000222368
-0.000489803
-0.000211416
-0.000420345
-0.000199181
-0.000355338
-0.000185712
-0.000295153
-0.000171078
-0.000240129
-0.000155368
-0.000190563
-0.000138703
-0.000146697
-0.000121237
-0.000108705
-0.000103171
-7.66775e-05
-8.47629e-05
-5.06032e-05
-6.63446e-05
-3.03448e-05
-4.83437e-05
-1.5614e-05
-3.13105e-05
-5.94175e-06
-1.59529e-05
-6.44162e-07
-3.17854e-06
1.21533e-06
5.86286e-06
8.76159e-07
9.72923e-06
6.49489e-06
-2.28544e-07
-5.61813e-06
-2.60519e-06
-5.98397e-06
-8.49431e-06
1.90205e-06
-1.90024e-05
1.61504e-05
-3.49719e-05
3.49731e-05
-5.70099e-05
5.68934e-05
-8.55173e-05
8.07524e-05
-0.000120722
0.000105647
-0.0001627
0.000130874
-0.000211405
0.000155888
-0.000266686
0.000180268
-0.000328308
0.000203688
-0.000395967
0.000225898
-0.000469304
0.00024671
-0.000547916
0.000265983
-0.00063137
0.000283613
-0.000719205
0.000299528
-0.000810944
0.00031368
-0.000906097
0.000326041
-0.00100417
0.000336598
-0.00110466
0.000345355
-0.00120707
0.000352323
-0.00131091
0.000357524
-0.00141569
0.000360987
-0.00152092
0.000362749
-0.00162614
0.000362849
-0.00173089
0.000361332
-0.00183471
0.000358249
-0.00193718
0.000353649
-0.00203787
0.000347587
-0.00213639
0.000340118
-0.00223234
0.000331301
-0.00232535
0.000321194
-0.00241507
0.000309858
-0.00250116
0.000297353
-0.0025833
0.000283742
-0.0026612
0.000269088
-0.00273456
0.000253454
-0.00280312
0.000236905
-0.00286664
0.000219505
-0.00292489
0.00020132
-0.00297765
0.000182416
-0.00302476
0.00016286
-0.00306602
0.00014272
-0.0031013
0.000122063
-0.00313047
0.000100959
-0.00315342
7.94776e-05
-0.00317006
5.76899e-05
-0.00318032
3.56673e-05
-0.00318416
1.34822e-05
-0.00318156
-8.79193e-06
-0.0031725
-3.10807e-05
-0.00315702
-5.3309e-05
-0.00313514
-7.54005e-05
-0.00310694
-9.72784e-05
-0.0030725
-0.000118865
-0.00303192
-0.000140082
-0.00298534
-0.000160849
-0.00293291
-0.000181088
-0.00287481
-0.000200718
-0.00281123
-0.00021966
-0.00274241
-0.000237832
-0.00266858
-0.000255154
-0.00259001
-0.000271548
-0.002507
-0.000286932
-0.00241986
-0.00030123
-0.00232892
-0.000314364
-0.00223454
-0.000326258
-0.0021371
-0.000336838
-0.00203699
-0.000346034
-0.00193462
-0.000353775
-0.00183044
-0.000359997
-0.00172489
-0.000364637
-0.00161843
-0.000367639
-0.00151156
-0.000368948
-0.00140475
-0.000368518
-0.00129852
-0.000366307
-0.00119337
-0.00036228
-0.00108982
-0.000356412
-0.000988397
-0.000348685
-0.000889611
-0.00033909
-0.000793983
-0.000327634
-0.000702019
-0.000314332
-0.000614216
-0.000299219
-0.000531052
-0.000282345
-0.000452979
-0.000263784
-0.000380421
-0.000243636
-0.000313759
-0.00022203
-0.000253326
-0.000199136
-0.000199393
-0.00017517
-0.000152156
-0.000150408
-0.000111722
-0.000125197
-7.8089e-05
-9.99778e-05
-5.1127e-05
-7.53057e-05
-3.05566e-05
-5.18809e-05
-1.59243e-05
-3.05853e-05
-6.57568e-06
-1.25272e-05
-1.62723e-06
9.14416e-07
6.98928e-08
8.03204e-06
6.56479e-06
-1.14168e-06
-4.47635e-06
-5.89294e-06
-1.23293e-06
-1.53847e-05
1.13939e-05
-3.05604e-05
3.13261e-05
-5.21521e-05
5.65648e-05
-8.06922e-05
8.54336e-05
-0.00011653
0.000116591
-0.000159856
0.000148972
-0.000210716
0.000181735
-0.000269039
0.000214211
-0.000334645
0.000245874
-0.000407271
0.000276314
-0.000486581
0.000305207
-0.000572178
0.000332308
-0.000663621
0.000357425
-0.000760429
0.000380421
-0.000862094
0.000401193
-0.000968087
0.000419673
-0.00107786
0.000435818
-0.00119087
0.000449606
-0.00130655
0.000461035
-0.00142435
0.000470117
-0.0015437
0.000476877
-0.00166406
0.000481349
-0.00178489
0.000483577
-0.00190565
0.000483612
-0.00202583
0.00048151
-0.00214492
0.000477335
-0.00226242
0.000471152
-0.00237787
0.000463031
-0.00249079
0.000453045
-0.00260076
0.000441269
-0.00270735
0.000427781
-0.00281015
0.000412659
-0.00290878
0.000395986
-0.00300288
0.000377841
-0.0030921
0.00035831
-0.00317612
0.000337476
-0.00325464
0.000315425
-0.00332738
0.000292242
-0.00339408
0.000268015
-0.00345449
0.000242832
-0.00350841
0.000216783
-0.00355565
0.000189957
-0.00359603
0.000162444
-0.00362941
0.000134338
-0.00365567
0.000105732
-0.0036747
7.67188e-05
-0.00368642
4.7395e-05
-0.0036908
1.78568e-05
-0.00368779
-1.17981e-05
-0.0036774
-4.14704e-05
-0.00365965
-7.10603e-05
-0.00363458
-0.000100466
-0.00360228
-0.000129586
-0.00356282
-0.000158317
-0.00351635
-0.000186554
-0.00346301
-0.000214192
-0.00340297
-0.000241125
-0.00333644
-0.000267248
-0.00326365
-0.000292453
-0.00318485
-0.000316636
-0.00310031
-0.000339688
-0.00301035
-0.000361506
-0.0029153
-0.000381983
-0.00281551
-0.000401018
-0.00271137
-0.000418507
-0.00260328
-0.000434352
-0.00249166
-0.000448455
-0.00237697
-0.000460723
-0.00225968
-0.000471065
-0.00214028
-0.000479397
-0.00201928
-0.000485637
-0.00189721
-0.000489711
-0.00177461
-0.00049155
-0.00165203
-0.000491093
-0.00153005
-0.000488289
-0.00140924
-0.000483094
-0.00129017
-0.000475476
-0.00117344
-0.000465416
-0.00105962
-0.000452906
-0.000949302
-0.000437957
-0.000843037
-0.000420596
-0.000741384
-0.000400872
-0.000644871
-0.000378857
-0.000554003
-0.000354653
-0.000469244
-0.000328394
-0.000391018
-0.000300256
-0.000319692
-0.000270462
-0.000255567
-0.000239295
-0.000198866
-0.000207109
-0.000149719
-0.000174344
-0.000108146
-0.000141551
-7.4043e-05
-0.000109409
-4.7161e-05
-7.8763e-05
-2.70902e-05
-5.06561e-05
-1.32401e-05
-2.63773e-05
-4.82122e-06
-7.50447e-06
-8.26193e-07
4.03696e-06
5.73859e-06
-2.09078e-06
-2.38552e-06
-9.35192e-06
6.02823e-06
-2.26663e-05
2.47084e-05
-4.2789e-05
5.14486e-05
-7.03149e-05
8.40908e-05
-0.000105675
0.000120793
-0.000149146
0.000160062
-0.00020086
0.000200686
-0.00026082
0.000241695
-0.000328915
0.000282305
-0.000404931
0.000321891
-0.000488571
0.000359954
-0.000579463
0.000396099
-0.000677174
0.000430019
-0.000781224
0.000461475
-0.000891089
0.000490287
-0.00100622
0.000516322
-0.00112603
0.000539489
-0.00124994
0.000559726
-0.00137734
0.000577003
-0.00150762
0.000591311
-0.00164016
0.000602658
-0.00177435
0.000611073
-0.0019096
0.000616594
-0.00204529
0.000619274
-0.00218086
0.000619174
-0.00231571
0.000616364
-0.00244929
0.000610919
-0.00258106
0.000602922
-0.00271049
0.00059246
-0.00283707
0.000579624
-0.00296031
0.000564508
-0.00307974
0.00054721
-0.00319491
0.00052783
-0.0033054
0.000506471
-0.00341079
0.000483235
-0.00351071
0.000458231
-0.0036048
0.000431563
-0.00369271
0.000403342
-0.00377415
0.000373677
-0.00384881
0.000342679
-0.00391644
0.000310462
-0.0039768
0.000277138
-0.00402966
0.000242824
-0.00407485
0.000207634
-0.0041122
0.000171688
-0.00414158
0.000135104
-0.00416286
9.80027e-05
-0.00417597
6.05061e-05
-0.00418085
2.27377e-05
-0.00417747
-1.51776e-05
-0.00416583
-5.31132e-05
-0.00414595
-9.09413e-05
-0.00411788
-0.000128533
-0.00408171
-0.000165757
-0.00403755
-0.000202482
-0.00398553
-0.000238574
-0.00392582
-0.000273901
-0.00385862
-0.000308326
-0.00378415
-0.000341716
-0.00370267
-0.000373935
-0.00361446
-0.000404846
-0.00351983
-0.000434317
-0.00341912
-0.000462212
-0.00331271
-0.000488398
-0.00320098
-0.000512745
-0.00308436
-0.000535124
-0.00296331
-0.000555409
-0.00283828
-0.000573477
-0.0027098
-0.000589211
-0.00257836
-0.000602497
-0.00244453
-0.000613228
-0.00230887
-0.000621302
-0.00217195
-0.000626628
-0.00203438
-0.000629119
-0.00189677
-0.000628701
-0.00175975
-0.00062531
-0.00162395
-0.000618895
-0.00149001
-0.000609418
-0.00135857
-0.000596858
-0.00123026
-0.00058121
-0.00110573
-0.00056249
-0.000985587
-0.000540739
-0.000870437
-0.000516022
-0.000760858
-0.000488436
-0.000657399
-0.000458112
-0.000560568
-0.000425226
-0.000470825
-0.000389999
-0.000388575
-0.000352713
-0.000314151
-0.000313719
-0.000247809
-0.000273451
-0.000189711
-0.000232443
-0.000139911
-0.000191351
-9.83443e-05
-0.000150975
-6.48139e-05
-0.000112293
-3.89752e-05
-7.64948e-05
-2.03267e-05
-4.50258e-05
-8.20145e-06
-1.96298e-05
-1.76205e-06
-2.40245e-06
3.97651e-06
-3.04932e-06
6.63816e-07
-1.28817e-05
1.58607e-05
-3.01375e-05
4.19638e-05
-5.53732e-05
7.66845e-05
-8.90297e-05
0.000117747
-0.000131422
0.000163185
-0.000182733
0.000211373
-0.000243026
0.000260979
-0.000312244
0.000310913
-0.000390227
0.000360288
-0.000476718
0.000408382
-0.00057138
0.000454615
-0.000673801
0.000498521
-0.000783513
0.00053973
-0.000899992
0.000577954
-0.00102268
0.000612972
-0.00115097
0.000644617
-0.00128426
0.000672773
-0.00142189
0.000697361
-0.00156323
0.000718337
-0.0017076
0.000735684
-0.00185435
0.00074941
-0.00200282
0.000759542
-0.00215235
0.000766126
-0.0023023
0.00076922
-0.00245202
0.000768898
-0.0026009
0.00076524
-0.00274832
0.00075834
-0.00289369
0.000748294
-0.00303644
0.000735208
-0.00317601
0.000719194
-0.00331187
0.000700365
-0.0034435
0.000678842
-0.00357042
0.000654747
-0.00369215
0.000628205
-0.00380826
0.000599345
-0.00391832
0.000568296
-0.00402195
0.000535191
-0.00411878
0.000500165
-0.00420845
0.000463352
-0.00429066
0.000424892
-0.00436512
0.000384922
-0.00443157
0.000343585
-0.00448977
0.000301022
-0.00453951
0.000257378
-0.00458062
0.000212799
-0.00461295
0.000167432
-0.00463638
0.000121426
-0.0046508
7.49333e-05
-0.00465617
2.81058e-05
-0.00465245
-1.89012e-05
-0.00463963
-6.59313e-05
-0.00461774
-0.000112826
-0.00458685
-0.000159426
-0.00454704
-0.00020557
-0.00449843
-0.000251093
-0.00444117
-0.000295832
-0.00437545
-0.000339622
-0.00430148
-0.000382296
-0.00421951
-0.000423688
-0.00412981
-0.00046363
-0.0040327
-0.000501956
-0.00392852
-0.000538499
-0.00381764
-0.000573095
-0.00370045
-0.000605579
-0.00357741
-0.000635792
-0.00344896
-0.000663575
-0.00331559
-0.000688774
-0.00317783
-0.000711238
-0.00303622
-0.000730823
-0.00289132
-0.000747391
-0.00274374
-0.000760812
-0.00259408
-0.000770962
-0.00244298
-0.000777729
-0.00229109
-0.000781011
-0.00213907
-0.000780717
-0.00198761
-0.000776773
-0.00183738
-0.000769118
-0.00168909
-0.000757709
-0.00154343
-0.000742522
-0.00140108
-0.000723558
-0.00126273
-0.000700841
-0.00112905
-0.000674422
-0.00100068
-0.000644388
-0.000878258
-0.00061086
-0.000762365
-0.000574005
-0.000653555
-0.000534036
-0.000552327
-0.000491227
-0.000459122
-0.000445917
-0.000374314
-0.000398527
-0.000298195
-0.00034957
-0.000230967
-0.000299671
-0.000172731
-0.000249587
-0.000123476
-0.00020023
-8.30692e-05
-0.0001527
-5.12498e-05
-0.000108314
-2.76229e-05
-6.86528e-05
-1.16604e-05
-3.55923e-05
-2.7078e-06
-1.1355e-05
1.2687e-06
-4.00076e-06
4.66436e-06
-1.64183e-05
2.82784e-05
-3.76626e-05
6.32082e-05
-6.80927e-05
0.000107115
-0.00010799
0.000157645
-0.00015754
0.000212735
-0.000216824
0.000270657
-0.00028582
0.000329974
-0.000364402
0.000389495
-0.000452352
0.000448237
-0.000549362
0.000505392
-0.000655049
0.000560301
-0.000768957
0.000612429
-0.000890576
0.000661349
-0.00101934
0.000706721
-0.00115466
0.000748284
-0.00129588
0.000785837
-0.00144234
0.000819239
-0.00159337
0.00084839
-0.00174826
0.000873232
-0.00190632
0.000893743
-0.00206684
0.000909925
-0.0022291
0.000921807
-0.00239242
0.000929439
-0.00255608
0.000932889
-0.00271942
0.000932238
-0.00288177
0.000927582
-0.00304246
0.000919029
-0.00320086
0.000906694
-0.00335635
0.000890702
-0.00350834
0.000871184
-0.00365625
0.000848277
-0.00379953
0.000822123
-0.00393765
0.000792868
-0.00407011
0.000760664
-0.00419643
0.000725663
-0.00431616
0.000688023
-0.00442887
0.000647902
-0.00453417
0.000605463
-0.00463168
0.000560868
-0.00472108
0.000514285
-0.00480204
0.000465881
-0.00487428
0.000415827
-0.00493755
0.000364294
-0.00499163
0.000311456
-0.00503632
0.000257491
-0.00507146
0.000202576
-0.00509693
0.000146892
-0.00511262
9.06219e-05
-0.00511846
3.39496e-05
-0.00511443
-2.29375e-05
-0.00510051
-7.98506e-05
-0.00507673
-0.000136598
-0.00504317
-0.000192988
-0.00499992
-0.000248824
-0.0049471
-0.000303911
-0.00488488
-0.000358049
-0.00481347
-0.000411039
-0.00473308
-0.000462682
-0.00464399
-0.000512776
-0.0045465
-0.000561121
-0.00444094
-0.000607515
-0.00432768
-0.000651758
-0.00420713
-0.000693654
-0.0040797
-0.000733005
-0.00394587
-0.000769618
-0.00380615
-0.000803303
-0.00366104
-0.000833877
-0.00351112
-0.000861159
-0.00335697
-0.000884977
-0.00319919
-0.000905166
-0.00303843
-0.00092157
-0.00287535
-0.000934045
-0.00271063
-0.000942455
-0.00254495
-0.000946682
-0.00237905
-0.000946619
-0.00221365
-0.000942179
-0.00204947
-0.000933292
-0.00188727
-0.00091991
-0.00172778
-0.000902009
-0.00157175
-0.000879592
-0.0014199
-0.000852692
-0.00127294
-0.000821376
-0.00113158
-0.000785749
-0.000996483
-0.000745961
-0.000868276
-0.000702211
-0.000747556
-0.000654757
-0.000634863
-0.00060392
-0.00053068
-0.0005501
-0.000435421
-0.000493785
-0.000349425
-0.000435566
-0.000272941
-0.000376155
-0.000206127
-0.000316402
-0.000149034
-0.000257323
-0.000101609
-0.000200125
-6.36854e-05
-0.000146238
-3.49858e-05
-9.73524e-05
-1.51295e-05
-5.54485e-05
-3.64598e-06
-2.28386e-05
-2.37723e-06
-4.93546e-06
9.59987e-06
-1.9921e-05
4.32639e-05
-4.51524e-05
8.84396e-05
-8.07991e-05
0.000142761
-0.000126981
0.000203827
-0.000183751
0.000269505
-0.000251078
0.000337985
-0.000328849
0.000407745
-0.000416859
0.000477506
-0.000514823
0.000546202
-0.000622376
0.000612945
-0.000739081
0.000677006
-0.000864437
0.000737786
-0.000997888
0.0007948
-0.00113883
0.000847662
-0.00128661
0.000896068
-0.00144056
0.000939787
-0.00159997
0.00097865
-0.00176412
0.00101254
-0.00193227
0.00104138
-0.00210367
0.00106515
-0.00227758
0.00108383
-0.00245324
0.00109747
-0.00262991
0.00110611
-0.00280686
0.00110983
-0.00298335
0.00110873
-0.00315869
0.00110292
-0.00333216
0.0010925
-0.0035031
0.00107763
-0.00367085
0.00105845
-0.00383477
0.0010351
-0.00399425
0.00100775
-0.0041487
0.000976572
-0.00429755
0.000941725
-0.00444028
0.000903392
-0.00457637
0.000861753
-0.00470534
0.000816993
-0.00482674
0.000769299
-0.00494014
0.000718863
-0.00504515
0.000665878
-0.0051414
0.00061054
-0.00522857
0.000553049
-0.00530635
0.000493605
-0.00537447
0.000432413
-0.00543269
0.000369679
-0.00548081
0.000305611
-0.00551865
0.00024042
-0.00554608
0.000174321
-0.00556299
0.00010753
-0.0055693
4.02643e-05
-0.00556499
-2.72534e-05
-0.00555004
-9.47999e-05
-0.00552449
-0.000162149
-0.0054884
-0.000229073
-0.00544189
-0.000295339
-0.00538508
-0.000360717
-0.00531816
-0.000424972
-0.00524133
-0.000487868
-0.00515484
-0.000549169
-0.00505898
-0.000608637
-0.00495407
-0.000666035
-0.00484046
-0.000721127
-0.00471854
-0.000773676
-0.00458874
-0.00082345
-0.00445153
-0.000870217
-0.0043074
-0.00091375
-0.00415688
-0.000953826
-0.00400053
-0.000990227
-0.00383894
-0.00102274
-0.00367274
-0.00105117
-0.00350259
-0.00107532
-0.00332914
-0.00109501
-0.00315312
-0.00111007
-0.00297524
-0.00112034
-0.00279625
-0.00112568
-0.00261689
-0.00112597
-0.00243796
-0.00112112
-0.00226022
-0.00111103
-0.00208446
-0.00109567
-0.00191147
-0.001075
-0.00174204
-0.00104902
-0.00157694
-0.00101779
-0.00141693
-0.00098139
-0.00126274
-0.000939935
-0.00111509
-0.000893608
-0.000974661
-0.000842643
-0.00084208
-0.000787337
-0.000717936
-0.000728064
-0.000602755
-0.000665281
-0.000497
-0.000599541
-0.000401057
-0.000531509
-0.000315234
-0.000461977
-0.000239751
-0.000391885
-0.000174733
-0.00032234
-0.000120213
-0.000254645
-7.61276e-05
-0.000190324
-4.23226e-05
-0.000131157
-1.85665e-05
-7.92046e-05
-4.5667e-06
-3.68384e-05
-6.94391e-06
-5.84893e-06
1.54488e-05
-2.33659e-05
6.07808e-05
-5.25513e-05
0.000117625
-9.33947e-05
0.000183605
-0.000145859
0.000256291
-0.00020986
0.000333506
-0.000285255
0.00041338
-0.00037183
0.000494319
-0.000469296
0.000574972
-0.000577294
0.0006542
-0.000695397
0.000731047
-0.000823108
0.000804717
-0.000959876
0.000874554
-0.00110509
0.000940019
-0.00125811
0.00100068
-0.00141825
0.0010562
-0.00158477
0.00110631
-0.00175694
0.00115082
-0.00193398
0.00118959
-0.00211513
0.00122253
-0.0022996
0.00124961
-0.00248659
0.00127082
-0.00267532
0.00128619
-0.00286499
0.00129579
-0.00305485
0.00129969
-0.00324411
0.001298
-0.00343203
0.00129084
-0.00361788
0.00127835
-0.00380095
0.0012607
-0.00398053
0.00123803
-0.00415595
0.00121053
-0.00432658
0.00117838
-0.00449179
0.00114178
-0.00465098
0.00110091
-0.00480358
0.001056
-0.00494906
0.00100724
-0.00508691
0.000954843
-0.00521665
0.000899038
-0.00533783
0.000840043
-0.00545004
0.000778082
-0.00555288
0.000713383
-0.00564601
0.000646178
-0.00572911
0.000576702
-0.00580188
0.000505191
-0.00586409
0.000431885
-0.00591551
0.000357029
-0.00595595
0.000280867
-0.00598528
0.000203648
-0.00600338
0.000125625
-0.00601016
4.70522e-05
-0.0060056
-3.18133e-05
-0.00598969
-0.000110711
-0.00596247
-0.000189377
-0.00592399
-0.000267546
-0.00587438
-0.00034495
-0.00581378
-0.000421318
-0.00574237
-0.000496378
-0.00566039
-0.000569856
-0.00556808
-0.000641477
-0.00546575
-0.000710965
-0.00535374
-0.000778046
-0.00523242
-0.000842443
-0.00510221
-0.000903885
-0.00496356
-0.0009621
-0.00481696
-0.00101682
-0.00466293
-0.00106778
-0.00450203
-0.00111472
-0.00433486
-0.0011574
-0.00416203
-0.00119557
-0.00398422
-0.00122899
-0.0038021
-0.00125744
-0.00361639
-0.00128072
-0.00342784
-0.00129862
-0.00323719
-0.00131098
-0.00304525
-0.00131762
-0.0028528
-0.00131842
-0.00266067
-0.00131325
-0.00246968
-0.00130203
-0.00228065
-0.00128469
-0.00209442
-0.00126122
-0.00191182
-0.00123163
-0.00173366
-0.00119595
-0.00156075
-0.0011543
-0.00139387
-0.00110682
-0.00123377
-0.00105371
-0.00108118
-0.000995234
-0.000936772
-0.000931742
-0.000801185
-0.000863651
-0.000674993
-0.000791474
-0.000558708
-0.000715826
-0.000452775
-0.000637442
-0.000357564
-0.000557189
-0.000273362
-0.000476087
-0.000200378
-0.000395325
-0.000138734