/*--------------------------------*- C++ -*----------------------------------*\
  =========                 |
  \\      /  F ield         | OpenFOAM: The Open Source CFD Toolbox
   \\    /   O peration     | Website:  https://openfoam.org
    \\  /    A nd           | Version:  11
     \\/     M anipulation  |
\*---------------------------------------------------------------------------*/
FoamFile
{
    format      ascii;
    class       volVectorField;
    location    "6";
    object      U;
}
// * * * * * * * * * * * * * * * * * * * * * * * * * * * * * * * * * * * * * //

dimensions      [0 1 -1 0 0 0 0];

internalField   nonuniform List<vector> 
10100
(
(2.86449e-06 -3.06078e-06 0)
(1.45161e-05 -7.86851e-06 0)
(3.3232e-05 -9.22149e-06 0)
(5.11188e-05 -8.09555e-06 0)
(6.30592e-05 -5.61402e-06 0)
(6.66146e-05 -2.47971e-06 0)
(6.05551e-05 9.1418e-07 0)
(4.436e-05 4.34215e-06 0)
(1.79654e-05 7.66625e-06 0)
(-1.84256e-05 1.08561e-05 0)
(-6.44245e-05 1.38494e-05 0)
(-0.000119524 1.66361e-05 0)
(-0.000183146 1.92102e-05 0)
(-0.000254695 2.15525e-05 0)
(-0.000333501 2.36737e-05 0)
(-0.000418902 2.55778e-05 0)
(-0.000510258 2.72745e-05 0)
(-0.000606879 2.87678e-05 0)
(-0.000708116 3.00662e-05 0)
(-0.000813325 3.1156e-05 0)
(-0.000921842 3.20398e-05 0)
(-0.00103305 3.27361e-05 0)
(-0.00114633 3.32508e-05 0)
(-0.00126108 3.35892e-05 0)
(-0.00137672 3.37606e-05 0)
(-0.00149269 3.37688e-05 0)
(-0.00160846 3.36192e-05 0)
(-0.00172349 3.33196e-05 0)
(-0.00183729 3.28796e-05 0)
(-0.00194938 3.23051e-05 0)
(-0.00205929 3.16003e-05 0)
(-0.00216659 3.07727e-05 0)
(-0.00227087 2.98285e-05 0)
(-0.00237171 2.87712e-05 0)
(-0.00246873 2.7606e-05 0)
(-0.00256159 2.63411e-05 0)
(-0.00264994 2.49839e-05 0)
(-0.00273346 2.3538e-05 0)
(-0.00281185 2.20084e-05 0)
(-0.00288483 2.04023e-05 0)
(-0.00295214 1.87251e-05 0)
(-0.00301355 1.6982e-05 0)
(-0.00306883 1.51783e-05 0)
(-0.0031178 1.33192e-05 0)
(-0.00316027 1.14125e-05 0)
(-0.00319608 9.46503e-06 0)
(-0.00322511 7.48115e-06 0)
(-0.00324723 5.46593e-06 0)
(-0.00326237 3.427e-06 0)
(-0.00327045 1.37214e-06 0)
(-0.00327143 -6.92148e-07 0)
(-0.0032653 -2.75967e-06 0)
(-0.00325205 -4.82412e-06 0)
(-0.0032317 -6.87904e-06 0)
(-0.00320432 -8.91632e-06 0)
(-0.00316997 -1.09271e-05 0)
(-0.00312877 -1.29052e-05 0)
(-0.00308083 -1.48449e-05 0)
(-0.0030263 -1.67381e-05 0)
(-0.00296538 -1.85754e-05 0)
(-0.00289825 -2.03492e-05 0)
(-0.00282516 -2.2053e-05 0)
(-0.00274635 -2.36801e-05 0)
(-0.00266211 -2.52233e-05 0)
(-0.00257274 -2.66748e-05 0)
(-0.00247858 -2.8026e-05 0)
(-0.00237999 -2.92684e-05 0)
(-0.00227735 -3.03933e-05 0)
(-0.00217108 -3.13931e-05 0)
(-0.00206162 -3.22615e-05 0)
(-0.00194943 -3.29914e-05 0)
(-0.001835 -3.35749e-05 0)
(-0.00171883 -3.40046e-05 0)
(-0.00160146 -3.42745e-05 0)
(-0.00148344 -3.43784e-05 0)
(-0.00136535 -3.43099e-05 0)
(-0.00124777 -3.4063e-05 0)
(-0.00113131 -3.36329e-05 0)
(-0.0010166 -3.30159e-05 0)
(-0.000904267 -3.22087e-05 0)
(-0.000794953 -3.12084e-05 0)
(-0.000689313 -3.00117e-05 0)
(-0.000588002 -2.86148e-05 0)
(-0.000491681 -2.70145e-05 0)
(-0.00040101 -2.52089e-05 0)
(-0.000316642 -2.31974e-05 0)
(-0.000239223 -2.09809e-05 0)
(-0.000169376 -1.85632e-05 0)
(-0.000107696 -1.59511e-05 0)
(-5.47336e-05 -1.31554e-05 0)
(-1.09741e-05 -1.01926e-05 0)
(2.31868e-05 -7.08894e-06 0)
(4.74831e-05 -3.88602e-06 0)
(6.1838e-05 -6.53015e-07 0)
(6.64613e-05 2.49344e-06 0)
(6.20002e-05 5.35354e-06 0)
(4.97513e-05 7.58284e-06 0)
(3.21058e-05 8.56791e-06 0)
(1.38657e-05 7.26266e-06 0)
(2.70831e-06 2.71253e-06 0)
(6.96128e-06 -1.42578e-05 0)
(2.91408e-05 -3.0414e-05 0)
(5.92825e-05 -3.30229e-05 0)
(8.3719e-05 -2.55808e-05 0)
(9.3094e-05 -1.19304e-05 0)
(8.19619e-05 5.27453e-06 0)
(4.71075e-05 2.42531e-05 0)
(-1.32459e-05 4.39019e-05 0)
(-9.97298e-05 6.35082e-05 0)
(-0.000212214 8.25934e-05 0)
(-0.000350033 0.000100882 0)
(-0.000512125 0.00011816 0)
(-0.000697212 0.000134302 0)
(-0.000903763 0.000149231 0)
(-0.00113017 0.000162892 0)
(-0.00137476 0.000175255 0)
(-0.00163575 0.000186318 0)
(-0.0019114 0.000196094 0)
(-0.0021999 0.000204575 0)
(-0.00249947 0.000211787 0)
(-0.00280836 0.000217738 0)
(-0.00312483 0.000222454 0)
(-0.00344716 0.000225972 0)
(-0.00377369 0.000228325 0)
(-0.00410279 0.000229552 0)
(-0.00443289 0.000229687 0)
(-0.00476244 0.000228767 0)
(-0.00508998 0.000226835 0)
(-0.00541406 0.000223929 0)
(-0.00573334 0.000220089 0)
(-0.00604647 0.000215355 0)
(-0.00635221 0.000209769 0)
(-0.00664935 0.000203369 0)
(-0.00693674 0.000196193 0)
(-0.00721329 0.000188282 0)
(-0.00747796 0.000179677 0)
(-0.00772978 0.000170417 0)
(-0.00796783 0.000160541 0)
(-0.00819126 0.000150091 0)
(-0.00839925 0.000139106 0)
(-0.00859106 0.00012763 0)
(-0.00876601 0.0001157 0)
(-0.00892348 0.000103356 0)
(-0.00906291 9.06393e-05 0)
(-0.00918378 7.75943e-05 0)
(-0.00928565 6.42633e-05 0)
(-0.00936815 5.06886e-05 0)
(-0.00943097 3.69141e-05 0)
(-0.00947385 2.29854e-05 0)
(-0.0094966 8.94866e-06 0)
(-0.00949911 -5.15048e-06 0)
(-0.00948131 -1.92672e-05 0)
(-0.00944323 -3.3355e-05 0)
(-0.00938494 -4.73647e-05 0)
(-0.0093066 -6.12466e-05 0)
(-0.00920843 -7.49505e-05 0)
(-0.00909073 -8.84277e-05 0)
(-0.00895385 -0.000101629 0)
(-0.00879826 -0.000114501 0)
(-0.00862444 -0.000126992 0)
(-0.00843299 -0.00013905 0)
(-0.00822457 -0.000150627 0)
(-0.00799992 -0.000161673 0)
(-0.00775984 -0.000172135 0)
(-0.00750522 -0.000181961 0)
(-0.007237 -0.000191096 0)
(-0.00695623 -0.000199488 0)
(-0.006664 -0.000207086 0)
(-0.00636149 -0.00021384 0)
(-0.00604994 -0.000219701 0)
(-0.00573067 -0.000224622 0)
(-0.00540505 -0.000228556 0)
(-0.00507453 -0.000231459 0)
(-0.00474061 -0.000233287 0)
(-0.00440484 -0.000234002 0)
(-0.00406884 -0.000233565 0)
(-0.00373427 -0.000231942 0)
(-0.00340282 -0.000229104 0)
(-0.00307623 -0.000225026 0)
(-0.00275628 -0.000219687 0)
(-0.00244475 -0.00021307 0)
(-0.00214345 -0.000205164 0)
(-0.00185419 -0.00019596 0)
(-0.00157878 -0.000185458 0)
(-0.00131899 -0.000173666 0)
(-0.00107659 -0.000160604 0)
(-0.000853273 -0.000146307 0)
(-0.000650649 -0.000130829 0)
(-0.000470223 -0.000114249 0)
(-0.000313331 -9.66805e-05 0)
(-0.000181096 -7.82853e-05 0)
(-7.43407e-05 -5.92913e-05 0)
(6.51271e-06 -4.0024e-05 0)
(6.16001e-05 -2.09572e-05 0)
(9.18332e-05 -2.79494e-06 0)
(9.92017e-05 1.34044e-05 0)
(8.71152e-05 2.60433e-05 0)
(6.09531e-05 3.27013e-05 0)
(2.98187e-05 2.98547e-05 0)
(7.23207e-06 1.38522e-05 0)
(7.70603e-06 -3.15291e-05 0)
(3.00003e-05 -5.9627e-05 0)
(5.56176e-05 -5.92937e-05 0)
(6.86178e-05 -3.75571e-05 0)
(5.78839e-05 -1.49794e-06 0)
(1.64549e-05 4.33567e-05 0)
(-6.01721e-05 9.32147e-05 0)
(-0.000174585 0.000145317 0)
(-0.000328006 0.000197836 0)
(-0.0005205 0.000249473 0)
(-0.000751307 0.000299328 0)
(-0.0010191 0.000346768 0)
(-0.00132207 0.000391366 0)
(-0.00165811 0.000432834 0)
(-0.00202486 0.00047094 0)
(-0.00241978 0.000505592 0)
(-0.00284027 0.000536691 0)
(-0.00328362 0.000564219 0)
(-0.0037471 0.000588184 0)
(-0.00422796 0.000608592 0)
(-0.00472346 0.000625485 0)
(-0.00523088 0.000638929 0)
(-0.00574755 0.00064899 0)
(-0.00627085 0.000655747 0)
(-0.00679822 0.000659298 0)
(-0.00732713 0.000659739 0)
(-0.00785518 0.000657167 0)
(-0.00838 0.000651689 0)
(-0.0088993 0.000643414 0)
(-0.00941091 0.000632449 0)
(-0.00991271 0.000618907 0)
(-0.0104027 0.000602901 0)
(-0.0108789 0.000584544 0)
(-0.0113394 0.000563948 0)
(-0.0117826 0.000541228 0)
(-0.0122068 0.000516501 0)
(-0.0126104 0.000489879 0)
(-0.0129919 0.000461478 0)
(-0.0133499 0.000431415 0)
(-0.0136832 0.000399809 0)
(-0.0139905 0.000366778 0)
(-0.0142708 0.00033244 0)
(-0.014523 0.000296913 0)
(-0.0147463 0.000260317 0)
(-0.0149398 0.000222777 0)
(-0.0151028 0.000184416 0)
(-0.0152348 0.000145359 0)
(-0.0153352 0.000105733 0)
(-0.0154036 6.56708e-05 0)
(-0.0154398 2.53017e-05 0)
(-0.0154435 -1.52429e-05 0)
(-0.0154146 -5.5829e-05 0)
(-0.0153533 -9.6321e-05 0)
(-0.0152596 -0.00013658 0)
(-0.0151337 -0.000176463 0)
(-0.0149761 -0.000215829 0)
(-0.0147873 -0.000254536 0)
(-0.0145677 -0.000292439 0)
(-0.0143182 -0.00032939 0)
(-0.0140395 -0.000365241 0)
(-0.0137326 -0.000399845 0)
(-0.0133985 -0.000433056 0)
(-0.0130385 -0.000464729 0)
(-0.0126538 -0.000494713 0)
(-0.0122459 -0.00052286 0)
(-0.0118163 -0.000549021 0)
(-0.0113666 -0.000573047 0)
(-0.0108986 -0.000594794 0)
(-0.0104141 -0.000614121 0)
(-0.00991529 -0.000630892 0)
(-0.0094041 -0.000644972 0)
(-0.00888275 -0.000656231 0)
(-0.00835355 -0.000664545 0)
(-0.00781888 -0.000669798 0)
(-0.00728121 -0.00067188 0)
(-0.0067431 -0.000670689 0)
(-0.00620715 -0.000666135 0)
(-0.00567606 -0.000658137 0)
(-0.00515256 -0.00064663 0)
(-0.00463944 -0.000631559 0)
(-0.0041395 -0.000612887 0)
(-0.00365556 -0.000590592 0)
(-0.00319045 -0.000564672 0)
(-0.00274695 -0.000535148 0)
(-0.00232782 -0.000502072 0)
(-0.00193572 -0.000465531 0)
(-0.00157322 -0.00042566 0)
(-0.00124271 -0.000382651 0)
(-0.000946402 -0.000336774 0)
(-0.000686197 -0.0002884 0)
(-0.000463646 -0.000238035 0)
(-0.00027981 -0.000186372 0)
(-0.000135112 -0.000134359 0)
(-2.91391e-05 -8.33132e-05 0)
(3.96293e-05 -3.50708e-05 0)
(7.41591e-05 7.78941e-06 0)
(7.91891e-05 4.16602e-05 0)
(6.16932e-05 6.15789e-05 0)
(3.27061e-05 6.09796e-05 0)
(8.53083e-06 3.20449e-05 0)
(6.43072e-06 -4.72295e-05 0)
(2.21716e-05 -8.21175e-05 0)
(3.29485e-05 -7.18569e-05 0)
(2.27892e-05 -2.75077e-05 0)
(-1.99101e-05 4.03377e-05 0)
(-0.000102748 0.000123363 0)
(-0.000230784 0.000215337 0)
(-0.000407203 0.000311797 0)
(-0.000633433 0.000409425 0)
(-0.000909723 0.000505879 0)
(-0.00123529 0.000599422 0)
(-0.00160855 0.000688815 0)
(-0.00202737 0.000773158 0)
(-0.00248915 0.000851817 0)
(-0.00299095 0.000924349 0)
(-0.00352959 0.000990442 0)
(-0.00410172 0.00104991 0)
(-0.00470385 0.00110264 0)
(-0.00533246 0.00114861 0)
(-0.00598394 0.00118781 0)
(-0.00665471 0.00122031 0)
(-0.00734121 0.0012462 0)
(-0.0080399 0.00126559 0)
(-0.0087473 0.00127863 0)
(-0.00945999 0.00128546 0)
(-0.0101746 0.00128628 0)
(-0.010888 0.00128125 0)
(-0.011597 0.00127059 0)
(-0.0122984 0.00125448 0)
(-0.0129894 0.00123313 0)
(-0.0136671 0.00120676 0)
(-0.0143288 0.00117558 0)
(-0.0149719 0.0011398 0)
(-0.0155939 0.00109965 0)
(-0.0161924 0.00105535 0)
(-0.0167652 0.00100713 0)
(-0.0173101 0.000955201 0)
(-0.0178253 0.000899795 0)
(-0.0183087 0.000841142 0)
(-0.0187586 0.000779471 0)
(-0.0191735 0.000715015 0)
(-0.0195518 0.000648005 0)
(-0.0198922 0.000578677 0)
(-0.0201935 0.000507269 0)
(-0.0204546 0.000434021 0)
(-0.0206745 0.000359175 0)
(-0.0208524 0.000282977 0)
(-0.0209877 0.000205679 0)
(-0.0210798 0.000127533 0)
(-0.0211283 4.87965e-05 0)
(-0.021133 -3.02723e-05 0)
(-0.0210937 -0.000109413 0)
(-0.0210106 -0.000188358 0)
(-0.0208837 -0.000266836 0)
(-0.0207135 -0.000344572 0)
(-0.0205005 -0.000421292 0)
(-0.0202452 -0.000496716 0)
(-0.0199485 -0.000570561 0)
(-0.0196115 -0.000642542 0)
(-0.019235 -0.000712371 0)
(-0.0188206 -0.000779762 0)
(-0.0183695 -0.000844429 0)
(-0.0178835 -0.000906085 0)
(-0.0173642 -0.000964441 0)
(-0.0168136 -0.00101921 0)
(-0.0162337 -0.0010701 0)
(-0.0156268 -0.00111684 0)
(-0.0149952 -0.00115914 0)
(-0.0143415 -0.00119674 0)
(-0.0136683 -0.00122937 0)
(-0.0129785 -0.00125678 0)
(-0.0122749 -0.00127871 0)
(-0.0115607 -0.00129493 0)
(-0.010839 -0.00130523 0)
(-0.0101132 -0.0013094 0)
(-0.00938657 -0.00130724 0)
(-0.00866271 -0.00129859 0)
(-0.00794514 -0.00128331 0)
(-0.0072375 -0.00126128 0)
(-0.00654347 -0.0012324 0)
(-0.00586676 -0.00119661 0)
(-0.00521108 -0.0011539 0)
(-0.00458013 -0.00110427 0)
(-0.00397754 -0.00104781 0)
(-0.00340689 -0.000984652 0)
(-0.00287163 -0.000914994 0)
(-0.00237502 -0.000839142 0)
(-0.00192011 -0.000757513 0)
(-0.00150964 -0.000670674 0)
(-0.00114597 -0.000579386 0)
(-0.000830957 -0.000484662 0)
(-0.00056582 -0.000387853 0)
(-0.000350969 -0.000290758 0)
(-0.000185789 -0.000195789 0)
(-6.83705e-05 -0.000106182 0)
(4.80696e-06 -2.62908e-05 0)
(3.91703e-05 3.80572e-05 0)
(4.24538e-05 7.92029e-05 0)
(2.63234e-05 8.7326e-05 0)
(7.59413e-06 4.97131e-05 0)
(4.16538e-06 -5.71634e-05 0)
(9.13988e-06 -8.95622e-05 0)
(-2.15067e-06 -6.04913e-05 0)
(-4.40393e-05 1.52767e-05 0)
(-0.00012745 0.000123909 0)
(-0.000260092 0.000254277 0)
(-0.000447188 0.000397909 0)
(-0.000691929 0.000548427 0)
(-0.00099596 0.000701061 0)
(-0.00135947 0.000852221 0)
(-0.0017816 0.000999247 0)
(-0.00226061 0.00114013 0)
(-0.00279401 0.00127341 0)
(-0.00337884 0.001398 0)
(-0.00401168 0.00151312 0)
(-0.0046888 0.00161821 0)
(-0.00540622 0.00171293 0)
(-0.00615984 0.00179705 0)
(-0.00694538 0.00187044 0)
(-0.00775855 0.00193309 0)
(-0.00859502 0.00198506 0)
(-0.00945047 0.00202647 0)
(-0.0103206 0.00205746 0)
(-0.0112011 0.00207826 0)
(-0.012088 0.00208908 0)
(-0.012977 0.00209019 0)
(-0.0138641 0.00208188 0)
(-0.0147456 0.00206445 0)
(-0.0156177 0.0020382 0)
(-0.0164766 0.00200348 0)
(-0.017319 0.0019606 0)
(-0.0181413 0.00190991 0)
(-0.0189405 0.00185177 0)
(-0.0197135 0.00178652 0)
(-0.0204572 0.00171452 0)
(-0.0211688 0.00163614 0)
(-0.0218459 0.00155174 0)
(-0.0224859 0.00146168 0)
(-0.0230864 0.00136634 0)
(-0.0236453 0.0012661 0)
(-0.0241606 0.00116132 0)
(-0.0246304 0.00105239 0)
(-0.0250532 0.0009397 0)
(-0.0254273 0.000823632 0)
(-0.0257514 0.000704578 0)
(-0.0260243 0.000582935 0)
(-0.0262451 0.000459103 0)
(-0.0264128 0.000333492 0)
(-0.0265269 0.000206513 0)
(-0.0265869 7.85842e-05 0)
(-0.0265924 -4.98742e-05 0)
(-0.0265433 -0.000178435 0)
(-0.0264397 -0.000306663 0)
(-0.0262818 -0.000434118 0)
(-0.0260702 -0.000560356 0)
(-0.0258052 -0.000684929 0)
(-0.025488 -0.000807384 0)
(-0.0251193 -0.000927263 0)
(-0.0247004 -0.0010441 0)
(-0.0242327 -0.00115744 0)
(-0.0237178 -0.0012668 0)
(-0.0231575 -0.00137173 0)
(-0.0225538 -0.00147177 0)
(-0.0219089 -0.00156644 0)
(-0.021225 -0.00165528 0)
(-0.0205049 -0.00173783 0)
(-0.0197511 -0.00181364 0)
(-0.0189668 -0.00188227 0)
(-0.018155 -0.00194328 0)
(-0.0173189 -0.00199624 0)
(-0.0164621 -0.00204075 0)
(-0.0155882 -0.00207642 0)
(-0.014701 -0.00210288 0)
(-0.0138043 -0.00211978 0)
(-0.0129023 -0.00212679 0)
(-0.011999 -0.00212363 0)
(-0.0110989 -0.00211003 0)
(-0.0102062 -0.00208577 0)
(-0.0093253 -0.00205068 0)
(-0.0084608 -0.00200463 0)
(-0.00761715 -0.00194754 0)
(-0.00679884 -0.00187941 0)
(-0.00601034 -0.0018003 0)
(-0.00525603 -0.00171036 0)
(-0.00454018 -0.00160984 0)
(-0.00386689 -0.00149913 0)
(-0.00324004 -0.00137876 0)
(-0.00266321 -0.00124944 0)
(-0.0021396 -0.00111215 0)
(-0.00167192 -0.000968128 0)
(-0.00126229 -0.00081903 0)
(-0.000912088 -0.000666996 0)
(-0.000621756 -0.000514813 0)
(-0.00039061 -0.000366118 0)
(-0.00021659 -0.000225651 0)
(-9.59818e-05 -9.9596e-05 0)
(-2.31529e-05 4.01735e-06 0)
(9.80922e-06 7.49074e-05 0)
(1.42069e-05 0.000100073 0)
(5.47008e-06 6.21959e-05 0)
(1.42734e-06 -5.93123e-05 0)
(-6.90147e-06 -7.72162e-05 0)
(-4.52409e-05 -1.88871e-05 0)
(-0.000124873 9.78869e-05 0)
(-0.000255454 0.000256447 0)
(-0.000444251 0.000443078 0)
(-0.000696198 0.000647204 0)
(-0.00101441 0.00086061 0)
(-0.00140028 0.00107701 0)
(-0.00185395 0.00129158 0)
(-0.00237437 0.00150061 0)
(-0.00295956 0.00170128 0)
(-0.0036068 0.00189147 0)
(-0.00431272 0.00206956 0)
(-0.00507351 0.00223437 0)
(-0.00588496 0.00238505 0)
(-0.00674256 0.002521 0)
(-0.00764164 0.00264185 0)
(-0.00857733 0.00274738 0)
(-0.0095447 0.00283751 0)
(-0.0105388 0.00291228 0)
(-0.0115545 0.00297181 0)
(-0.012587 0.00301631 0)
(-0.0136313 0.00304605 0)
(-0.0146825 0.00306132 0)
(-0.0157359 0.0030625 0)
(-0.0167869 0.00304997 0)
(-0.0178308 0.00302416 0)
(-0.0188633 0.0029855 0)
(-0.0198802 0.00293446 0)
(-0.0208772 0.00287153 0)
(-0.0218505 0.00279719 0)
(-0.0227962 0.00271194 0)
(-0.0237107 0.0026163 0)
(-0.0245906 0.00251078 0)
(-0.0254326 0.00239592 0)
(-0.0262335 0.00227224 0)
(-0.0269904 0.00214028 0)
(-0.0277007 0.00200059 0)
(-0.0283617 0.00185371 0)
(-0.028971 0.0017002 0)
(-0.0295266 0.00154061 0)
(-0.0300264 0.00137551 0)
(-0.0304686 0.00120548 0)
(-0.0308517 0.00103108 0)
(-0.0311743 0.000852892 0)
(-0.0314351 0.000671515 0)
(-0.0316332 0.000487546 0)
(-0.0317679 0.000301586 0)
(-0.0318385 0.000114246 0)
(-0.0318447 -7.38532e-05 0)
(-0.0317864 -0.000262085 0)
(-0.0316636 -0.000449813 0)
(-0.0314767 -0.000636393 0)
(-0.0312261 -0.000821176 0)
(-0.0309126 -0.00100351 0)
(-0.0305372 -0.00118272 0)
(-0.0301011 -0.00135815 0)
(-0.0296056 -0.00152911 0)
(-0.0290525 -0.00169494 0)
(-0.0284436 -0.00185495 0)
(-0.027781 -0.00200846 0)
(-0.0270671 -0.0021548 0)
(-0.0263044 -0.00229328 0)
(-0.0254958 -0.00242324 0)
(-0.0246442 -0.00254401 0)
(-0.023753 -0.00265493 0)
(-0.0228255 -0.00275536 0)
(-0.0218654 -0.00284467 0)
(-0.0208766 -0.00292225 0)
(-0.0198631 -0.00298752 0)
(-0.0188293 -0.00303991 0)
(-0.0177795 -0.0030789 0)
(-0.0167183 -0.00310399 0)
(-0.0156504 -0.00311472 0)
(-0.0145808 -0.00311069 0)
(-0.0135143 -0.00309153 0)
(-0.0124561 -0.00305694 0)
(-0.0114113 -0.00300668 0)
(-0.0103852 -0.0029406 0)
(-0.00938283 -0.00285862 0)
(-0.00840949 -0.00276076 0)
(-0.00747027 -0.00264714 0)
(-0.00657023 -0.00251803 0)
(-0.00571423 -0.00237385 0)
(-0.00490696 -0.00221519 0)
(-0.0041528 -0.00204288 0)
(-0.00345581 -0.00185801 0)
(-0.00281958 -0.00166202 0)
(-0.00224717 -0.00145673 0)
(-0.00174093 -0.00124453 0)
(-0.00130244 -0.00102841 0)
(-0.000932259 -0.000812252 0)
(-0.000629782 -0.000600956 0)
(-0.00039302 -0.000400789 0)
(-0.000218372 -0.000219725 0)
(-0.000100377 -6.78878e-05 0)
(-3.14035e-05 4.20072e-05 0)
(-1.26823e-06 9.40866e-05 0)
(2.7648e-06 6.72313e-05 0)
(-1.50442e-06 -5.26135e-05 0)
(-2.46231e-05 -4.20256e-05 0)
(-9.30915e-05 5.73031e-05 0)
(-0.000214597 0.000225454 0)
(-0.000396856 0.000443297 0)
(-0.000646414 0.000695036 0)
(-0.000967649 0.00096804 0)
(-0.00136318 0.00125249 0)
(-0.00183415 0.00154059 0)
(-0.00238039 0.00182628 0)
(-0.00300058 0.00210481 0)
(-0.0036925 0.00237251 0)
(-0.0044531 0.0026265 0)
(-0.00527868 0.00286464 0)
(-0.00616503 0.00308527 0)
(-0.00710752 0.00328718 0)
(-0.00810118 0.00346952 0)
(-0.00914081 0.00363169 0)
(-0.010221 0.00377337 0)
(-0.0113363 0.00389439 0)
(-0.0124812 0.00399475 0)
(-0.0136499 0.00407457 0)
(-0.014837 0.00413409 0)
(-0.016037 0.00417362 0)
(-0.0172443 0.00419358 0)
(-0.0184535 0.0041944 0)
(-0.0196595 0.00417661 0)
(-0.0208571 0.00414075 0)
(-0.0220412 0.0040874 0)
(-0.0232072 0.0040172 0)
(-0.0243501 0.00393076 0)
(-0.0254657 0.00382876 0)
(-0.0265495 0.00371188 0)
(-0.0275974 0.0035808 0)
(-0.0286055 0.00343623 0)
(-0.0295701 0.00327888 0)
(-0.0304875 0.00310948 0)
(-0.0313545 0.00292877 0)
(-0.0321679 0.00273748 0)
(-0.0329249 0.00253636 0)
(-0.0336227 0.00232617 0)
(-0.0342588 0.00210768 0)
(-0.034831 0.00188167 0)
(-0.0353372 0.0016489 0)
(-0.0357757 0.00141017 0)
(-0.0361449 0.00116627 0)
(-0.0364433 0.000918027 0)
(-0.0366699 0.000666247 0)
(-0.0368239 0.00041176 0)
(-0.0369045 0.000155403 0)
(-0.0369114 -0.000101977 0)
(-0.0368444 -0.000359517 0)
(-0.0367036 -0.000616349 0)
(-0.0364893 -0.000871594 0)
(-0.0362022 -0.00112436 0)
(-0.0358432 -0.00137376 0)
(-0.0354132 -0.00161888 0)
(-0.0349137 -0.0018588 0)
(-0.0343464 -0.00209261 0)
(-0.033713 -0.00231938 0)
(-0.0330158 -0.00253819 0)
(-0.0322571 -0.00274811 0)
(-0.0314397 -0.00294822 0)
(-0.0305664 -0.0031376 0)
(-0.0296405 -0.00331534 0)
(-0.0286654 -0.00348052 0)
(-0.0276448 -0.00363227 0)
(-0.0265826 -0.00376972 0)
(-0.0254829 -0.00389201 0)
(-0.0243502 -0.00399833 0)
(-0.0231891 -0.00408789 0)
(-0.0220044 -0.00415993 0)
(-0.0208011 -0.00421375 0)
(-0.0195845 -0.00424869 0)
(-0.0183597 -0.00426415 0)
(-0.0171324 -0.00425958 0)
(-0.0159082 -0.00423452 0)
(-0.0146928 -0.00418858 0)
(-0.013492 -0.00412147 0)
(-0.0123115 -0.00403301 0)
(-0.0111574 -0.00392311 0)
(-0.0100352 -0.00379185 0)
(-0.0089509 -0.00363944 0)
(-0.00790996 -0.00346629 0)
(-0.00691784 -0.00327302 0)
(-0.00597973 -0.00306048 0)
(-0.00510048 -0.00282983 0)
(-0.00428458 -0.0025826 0)
(-0.00353598 -0.00232074 0)
(-0.00285806 -0.00204673 0)
(-0.00225349 -0.00176372 0)
(-0.00172405 -0.00147564 0)
(-0.00127055 -0.00118746 0)
(-0.0008926 -0.000905347 0)
(-0.000588484 -0.000637058 0)
(-0.000354967 -0.000392252 0)
(-0.000187066 -0.000182972 0)
(-7.77819e-05 -2.40845e-05 0)
(-1.85806e-05 6.61151e-05 0)
(-1.89786e-07 6.36177e-05 0)
(-4.49056e-06 -3.65242e-05 0)
(-4.31314e-05 1.77843e-05 0)
(-0.000143584 0.000170933 0)
(-0.000309504 0.000401383 0)
(-0.000546485 0.000688275 0)
(-0.000860015 0.00101387 0)
(-0.00125366 0.00136397 0)
(-0.00172943 0.00172712 0)
(-0.00228795 0.00209423 0)
(-0.00292864 0.00245804 0)
(-0.00364983 0.00281275 0)
(-0.00444896 0.00315382 0)
(-0.00532262 0.00347767 0)
(-0.00626678 0.00378152 0)
(-0.00727684 0.00406324 0)
(-0.00834776 0.00432122 0)
(-0.00947414 0.00455432 0)
(-0.0106503 0.00476173 0)
(-0.0118704 0.00494293 0)
(-0.0131285 0.00509768 0)
(-0.0144184 0.0052259 0)
(-0.015734 0.00532772 0)
(-0.0170692 0.00540339 0)
(-0.0184179 0.00545329 0)
(-0.0197741 0.0054779 0)
(-0.0211318 0.00547777 0)
(-0.0224853 0.00545354 0)
(-0.0238289 0.00540589 0)
(-0.025157 0.00533557 0)
(-0.0264643 0.00524336 0)
(-0.0277456 0.00513007 0)
(-0.0289958 0.00499656 0)
(-0.0302103 0.00484368 0)
(-0.0313844 0.00467234 0)
(-0.0325137 0.00448344 0)
(-0.0335941 0.0042779 0)
(-0.0346216 0.00405668 0)
(-0.0355925 0.00382072 0)
(-0.0365034 0.00357098 0)
(-0.0373509 0.00330844 0)
(-0.038132 0.0030341 0)
(-0.0388441 0.00274894 0)
(-0.0394846 0.00245397 0)
(-0.0400512 0.00215022 0)
(-0.040542 0.00183871 0)
(-0.040955 0.00152048 0)
(-0.041289 0.0011966 0)
(-0.0415425 0.000868126 0)
(-0.0417146 0.000536141 0)
(-0.0418047 0.000201738 0)
(-0.0418122 -0.000133976 0)
(-0.0417371 -0.000469879 0)
(-0.0415794 -0.000804839 0)
(-0.0413395 -0.00113771 0)
(-0.0410181 -0.00146734 0)
(-0.0406161 -0.00179255 0)
(-0.0401348 -0.00211217 0)
(-0.0395757 -0.002425 0)
(-0.0389406 -0.00272985 0)
(-0.0382316 -0.00302553 0)
(-0.0374512 -0.00331083 0)
(-0.036602 -0.00358454 0)
(-0.035687 -0.00384548 0)
(-0.0347095 -0.00409245 0)
(-0.0336729 -0.00432426 0)
(-0.0325812 -0.00453976 0)
(-0.0314384 -0.00473779 0)
(-0.0302488 -0.00491724 0)
(-0.0290172 -0.00507701 0)
(-0.0277484 -0.00521604 0)
(-0.0264475 -0.00533334 0)
(-0.0251198 -0.00542792 0)
(-0.0237709 -0.0054989 0)
(-0.0224065 -0.00554544 0)
(-0.0210325 -0.00556676 0)
(-0.0196551 -0.0055622 0)
(-0.0182804 -0.00553118 0)
(-0.0169147 -0.00547322 0)
(-0.0155644 -0.00538797 0)
(-0.0142359 -0.00527523 0)
(-0.0129355 -0.00513495 0)
(-0.0116698 -0.00496724 0)
(-0.0104449 -0.00477244 0)
(-0.00926695 -0.00455111 0)
(-0.0081419 -0.00430411 0)
(-0.00707539 -0.00403258 0)
(-0.00607273 -0.00373806 0)
(-0.00513878 -0.00342255 0)
(-0.00427789 -0.00308855 0)
(-0.00349378 -0.00273924 0)
(-0.00278943 -0.00237855 0)
(-0.00216695 -0.00201136 0)
(-0.00162746 -0.00164371 0)
(-0.00117094 -0.00128302 0)
(-0.00079613 -0.000938427 0)
(-0.000500353 -0.000621134 0)
(-0.000279347 -0.00034488 0)
(-0.000127005 -0.000126357 0)
(-3.67701e-05 1.42118e-05 0)
(-3.21155e-06 5.07564e-05 0)
(-7.46557e-06 -1.08421e-05 0)
(-6.18936e-05 0.000103155 0)
(-0.000195236 0.00032357 0)
(-0.000407051 0.000627882 0)
(-0.000700591 0.0009938 0)
(-0.00108018 0.00140222 0)
(-0.0015484 0.00183746 0)
(-0.00210642 0.00228677 0)
(-0.00275425 0.0027398 0)
(-0.00349078 0.00318818 0)
(-0.0043139 0.00362516 0)
(-0.00522061 0.00404532 0)
(-0.00620713 0.00444437 0)
(-0.00726903 0.00481889 0)
(-0.00840134 0.00516628 0)
(-0.00959861 0.00548451 0)
(-0.010855 0.00577211 0)
(-0.0121645 0.00602803 0)
(-0.0135207 0.00625157 0)
(-0.0149172 0.00644236 0)
(-0.0163474 0.00660028 0)
(-0.0178046 0.00672541 0)
(-0.0192824 0.00681802 0)
(-0.020774 0.00687855 0)
(-0.022273 0.00690755 0)
(-0.0237729 0.00690568 0)
(-0.0252675 0.0068737 0)
(-0.0267505 0.00681245 0)
(-0.0282159 0.00672283 0)
(-0.0296579 0.00660579 0)
(-0.0310708 0.00646236 0)
(-0.0324493 0.00629356 0)
(-0.033788 0.00610048 0)
(-0.0350819 0.00588423 0)
(-0.0363263 0.00564594 0)
(-0.0375166 0.00538678 0)
(-0.0386485 0.0051079 0)
(-0.0397179 0.00481052 0)
(-0.0407211 0.00449583 0)
(-0.0416544 0.00416507 0)
(-0.0425146 0.00381947 0)
(-0.0432986 0.00346028 0)
(-0.0440038 0.00308878 0)
(-0.0446276 0.00270624 0)
(-0.0451677 0.00231397 0)
(-0.0456224 0.00191327 0)
(-0.04599 0.00150548 0)
(-0.046269 0.00109193 0)
(-0.0464584 0.000673985 0)
(-0.0465575 0.000253022 0)
(-0.0465658 -0.000169567 0)
(-0.0464831 -0.000592372 0)
(-0.0463094 -0.00101397 0)
(-0.0460454 -0.00143292 0)
(-0.0456916 -0.00184778 0)
(-0.0452491 -0.00225706 0)
(-0.0447193 -0.0026593 0)
(-0.0441039 -0.00305299 0)
(-0.0434049 -0.00343664 0)
(-0.0426246 -0.00380876 0)
(-0.0417655 -0.00416782 0)
(-0.0408306 -0.00451234 0)
(-0.0398233 -0.00484081 0)
(-0.038747 -0.00515173 0)
(-0.0376056 -0.00544364 0)
(-0.0364034 -0.00571508 0)
(-0.0351447 -0.00596463 0)
(-0.0338344 -0.00619088 0)
(-0.0324774 -0.00639248 0)
(-0.0310792 -0.00656811 0)
(-0.0296452 -0.00671654 0)
(-0.0281813 -0.00683657 0)
(-0.0266935 -0.00692708 0)
(-0.0251881 -0.00698705 0)
(-0.0236715 -0.00701555 0)
(-0.0221503 -0.00701176 0)
(-0.0206312 -0.00697497 0)
(-0.019121 -0.00690463 0)
(-0.0176267 -0.00680034 0)
(-0.0161552 -0.00666188 0)
(-0.0147134 -0.00648921 0)
(-0.0133083 -0.00628254 0)
(-0.0119464 -0.00604232 0)
(-0.0106346 -0.00576932 0)
(-0.00937914 -0.00546461 0)
(-0.00818613 -0.00512968 0)
(-0.0070613 -0.00476647 0)
(-0.00600993 -0.00437747 0)
(-0.00503675 -0.00396576 0)
(-0.00414585 -0.00353521 0)
(-0.00334059 -0.00309056 0)
(-0.00262347 -0.00263762 0)
(-0.00199604 -0.00218346 0)
(-0.00145875 -0.00173667 0)
(-0.00101093 -0.00130766 0)
(-0.000650644 -0.000909012 0)
(-0.000374522 -0.00055592 0)
(-0.000177527 -0.000266563 0)
(-5.52431e-05 -6.26316e-05 0)
(-6.20472e-06 2.84306e-05 0)
(-1.03585e-05 2.44188e-05 0)
(-8.05895e-05 0.000214403 0)
(-0.000247104 0.00051601 0)
(-0.000505458 0.000906084 0)
(-0.00085656 0.00136138 0)
(-0.00130341 0.0018617 0)
(-0.00184751 0.00239019 0)
(-0.0024891 0.00293297 0)
(-0.00322743 0.0034786 0)
(-0.00406075 0.00401768 0)
(-0.00498642 0.00454258 0)
(-0.00600095 0.00504706 0)
(-0.00710014 0.00552612 0)
(-0.00827912 0.00597576 0)
(-0.0095325 0.00639283 0)
(-0.0108545 0.00677493 0)
(-0.0122387 0.00712023 0)
(-0.0136788 0.00742743 0)
(-0.015168 0.00769564 0)
(-0.0166994 0.00792436 0)
(-0.0182659 0.00811338 0)
(-0.0198606 0.00826276 0)
(-0.0214762 0.00837279 0)
(-0.0231059 0.00844393 0)
(-0.0247425 0.00847683 0)
(-0.0263792 0.00847225 0)
(-0.0280093 0.00843108 0)
(-0.029626 0.00835431 0)
(-0.0312231 0.00824301 0)
(-0.032794 0.00809834 0)
(-0.0343329 0.00792149 0)
(-0.0358338 0.00771372 0)
(-0.0372912 0.00747634 0)
(-0.0386994 0.00721068 0)
(-0.0400536 0.00691813 0)
(-0.0413486 0.00660009 0)
(-0.0425799 0.00625799 0)
(-0.0437432 0.00589328 0)
(-0.0448342 0.00550744 0)
(-0.0458491 0.00510196 0)
(-0.0467845 0.00467835 0)
(-0.047637 0.00423816 0)
(-0.0484037 0.00378291 0)
(-0.0490818 0.0033142 0)
(-0.0496691 0.00283359 0)
(-0.0501634 0.00234271 0)
(-0.0505629 0.00184316 0)
(-0.0508663 0.0013366 0)
(-0.0510722 0.000824686 0)
(-0.05118 0.000309103 0)
(-0.0511891 -0.000208446 0)
(-0.0510993 -0.000726239 0)
(-0.0509107 -0.00124254 0)
(-0.0506239 -0.00175558 0)
(-0.0502395 -0.00226359 0)
(-0.0497588 -0.00276477 0)
(-0.0491831 -0.00325733 0)
(-0.0485144 -0.00373943 0)
(-0.0477548 -0.00420925 0)
(-0.0469067 -0.00466497 0)
(-0.045973 -0.00510474 0)
(-0.0449569 -0.00552674 0)
(-0.0438619 -0.00592913 0)
(-0.0426917 -0.00631012 0)
(-0.0414507 -0.0066679 0)
(-0.0401432 -0.00700071 0)
(-0.0387742 -0.00730682 0)
(-0.0373487 -0.00758454 0)
(-0.0358721 -0.00783222 0)
(-0.0343503 -0.00804829 0)
(-0.0327891 -0.00823123 0)
(-0.0311948 -0.00837961 0)
(-0.0295739 -0.00849211 0)
(-0.0279331 -0.00856747 0)
(-0.0262794 -0.00860461 0)
(-0.0246197 -0.00860254 0)
(-0.0229613 -0.00856045 0)
(-0.0213116 -0.00847768 0)
(-0.0196779 -0.00835379 0)
(-0.0180676 -0.00818853 0)
(-0.0164881 -0.00798193 0)
(-0.0149469 -0.00773425 0)
(-0.0134511 -0.0074461 0)
(-0.0120079 -0.00711844 0)
(-0.0106239 -0.00675261 0)
(-0.00930585 -0.00635043 0)
(-0.0080598 -0.00591428 0)
(-0.00689145 -0.00544711 0)
(-0.00580594 -0.00495264 0)
(-0.00480779 -0.00443541 0)
(-0.00390078 -0.00390094 0)
(-0.00308787 -0.00335592 0)
(-0.00237111 -0.00280843 0)
(-0.00175156 -0.00226812 0)
(-0.00122925 -0.00174655 0)
(-0.000803104 -0.00125751 0)
(-0.000470753 -0.000817397 0)
(-0.000228336 -0.000445576 0)
(-7.36406e-05 -0.000164798 0)
(-9.12143e-06 -3.3499e-06 0)
(-1.31803e-05 6.91292e-05 0)
(-9.89968e-05 0.000351467 0)
(-0.00029858 0.000748436 0)
(-0.000603574 0.00123646 0)
(-0.00101256 0.00179174 0)
(-0.00152722 0.0023932 0)
(-0.00214788 0.00302314 0)
(-0.00287378 0.00366668 0)
(-0.0037033 0.00431145 0)
(-0.00463399 0.00494718 0)
(-0.00566257 0.00556536 0)
(-0.00678504 0.00615904 0)
(-0.00799667 0.00672253 0)
(-0.00929217 0.00725128 0)
(-0.0106657 0.00774163 0)
(-0.012111 0.00819076 0)
(-0.0136214 0.00859653 0)
(-0.01519 0.00895734 0)
(-0.0168096 0.00927214 0)
(-0.0184729 0.00954028 0)
(-0.0201725 0.00976146 0)
(-0.021901 0.00993572 0)
(-0.0236507 0.0100633 0)
(-0.0254142 0.0101448 0)
(-0.0271841 0.0101809 0)
(-0.0289531 0.0101725 0)
(-0.030714 0.0101205 0)
(-0.0324597 0.0100262 0)
(-0.0341835 0.00989085 0)
(-0.0358785 0.00971568 0)
(-0.0375384 0.00950217 0)
(-0.0391569 0.00925179 0)
(-0.040728 0.00896609 0)
(-0.0422459 0.00864666 0)
(-0.0437051 0.00829513 0)
(-0.0451004 0.00791316 0)
(-0.0464269 0.00750245 0)
(-0.0476798 0.00706475 0)
(-0.0488548 0.0066018 0)
(-0.0499478 0.0061154 0)
(-0.050955 0.00560734 0)
(-0.0518729 0.00507946 0)
(-0.0526984 0.00453361 0)
(-0.0534285 0.00397167 0)
(-0.0540608 0.00339553 0)
(-0.0545929 0.00280712 0)
(-0.0550232 0.00220837 0)
(-0.0553498 0.00160126 0)
(-0.0555717 0.000987761 0)
(-0.055688 0.0003699 0)
(-0.055698 -0.000250291 0)
(-0.0556017 -0.000870755 0)
(-0.055399 -0.00148941 0)
(-0.0550906 -0.00210416 0)
(-0.0546773 -0.00271287 0)
(-0.0541603 -0.00331341 0)
(-0.0535412 -0.00390362 0)
(-0.0528219 -0.00448132 0)
(-0.0520046 -0.00504435 0)
(-0.0510921 -0.00559052 0)
(-0.0500874 -0.00611764 0)
(-0.0489939 -0.00662352 0)
(-0.0478152 -0.007106 0)
(-0.0465555 -0.00756292 0)
(-0.0452193 -0.00799215 0)
(-0.0438113 -0.0083916 0)
(-0.0423366 -0.0087592 0)
(-0.0408008 -0.00909295 0)
(-0.0392096 -0.0093909 0)
(-0.0375691 -0.0096512 0)
(-0.0358857 -0.00987204 0)
(-0.034166 -0.0100517 0)