/*--------------------------------*- C++ -*----------------------------------*\
  =========                 |
  \\      /  F ield         | OpenFOAM: The Open Source CFD Toolbox
   \\    /   O peration     | Website:  https://openfoam.org
    \\  /    A nd           | Version:  11
     \\/     M anipulation  |
\*---------------------------------------------------------------------------*/
FoamFile
{
    format      ascii;
    class       volScalarField;
    location    "9.7";
    object      p;
}
// * * * * * * * * * * * * * * * * * * * * * * * * * * * * * * * * * * * * * //

dimensions      [0 2 -2 0 0 0 0];

internalField   nonuniform List<scalar> 
10100
(
2.89836e-08
0.0001003
-0.000109699
-0.000671071
-0.00153679
-0.00265384
-0.00396872
-0.00542911
-0.00698729
-0.00860081
-0.010232
-0.0118476
-0.0134184
-0.0149192
-0.0163283
-0.0176268
-0.0187984
-0.0198295
-0.0207082
-0.0214245
-0.0219706
-0.0223402
-0.0225287
-0.0225327
-0.0223499
-0.0219792
-0.0214204
-0.0206746
-0.0197438
-0.0186308
-0.017339
-0.0158726
-0.0142363
-0.0124355
-0.0104762
-0.00836506
-0.00610904
-0.00371575
-0.00119318
0.0014503
0.00420603
0.00706498
0.0100177
0.0130544
0.016165
0.0193393
0.0225669
0.025837
0.0291387
0.032461
0.0357926
0.0391225
0.0424392
0.0457315
0.0489881
0.0521979
0.0553496
0.0584321
0.0614344
0.0643459
0.0671559
0.0698544
0.0724313
0.0748768
0.077182
0.079338
0.081337
0.0831711
0.0848336
0.0863178
0.0876184
0.0887307
0.0896508
0.090376
0.0909043
0.0912349
0.0913684
0.0913065
0.0910522
0.0906098
0.0899853
0.0891864
0.0882223
0.0871043
0.0858455
0.0844611
0.0829687
0.0813886
0.0797443
0.0780624
0.0763731
0.0747104
0.0731125
0.0716226
0.0702888
0.0691636
0.0683004
0.0677505
0.0675562
0.0676653
-8.85296e-05
2.57233e-05
-0.000169688
-0.000665815
-0.00141285
-0.00237364
-0.0035081
-0.00477454
-0.00613272
-0.00754592
-0.00898102
-0.0104079
-0.0117995
-0.0131326
-0.0143863
-0.0155423
-0.0165854
-0.0175019
-0.0182802
-0.0189108
-0.0193854
-0.0196975
-0.0198423
-0.0198162
-0.0196165
-0.019242
-0.0186923
-0.0179677
-0.0170699
-0.0160011
-0.0147645
-0.0133636
-0.0118028
-0.0100871
-0.00822205
-0.00621364
-0.00406838
-0.00179336
0.000603827
0.00311531
0.00573296
0.00844829
0.0112523
0.0141358
0.0170892
0.020103
0.023167
0.0262712
0.0294051
0.0325583
0.0357204
0.0388805
0.0420279
0.0451519
0.048242
0.0512875
0.0542778
0.0572024
0.0600509
0.0628133
0.0654796
0.0680403
0.070486
0.0728076
0.0749965
0.0770449
0.0789452
0.0806904
0.082274
0.0836901
0.084934
0.0860013
0.0868888
0.0875941
0.0881157
0.0884533
0.0886076
0.0885809
0.0883761
0.087998
0.0874524
0.0867471
0.0858915
0.0848965
0.083775
0.0825415
0.081213
0.0798088
0.0783511
0.0768647
0.0753774
0.0739197
0.0725253
0.0712311
0.0700771
0.0691047
0.0683528
0.0678573
0.0676646
0.0677747
0.000143285
0.000260116
6.91371e-05
-0.000393164
-0.00107294
-0.00193906
-0.00295841
-0.0040957
-0.00531648
-0.00658857
-0.00788245
-0.00917092
-0.0104296
-0.0116365
-0.0127722
-0.0138195
-0.0147633
-0.0155908
-0.0162907
-0.0168539
-0.0172722
-0.0175391
-0.0176493
-0.0175992
-0.0173862
-0.0170088
-0.0164663
-0.015759
-0.0148879
-0.0138552
-0.0126633
-0.0113158
-0.00981649
-0.00817009
-0.00638178
-0.00445722
-0.00240244
-0.00022413
0.00207055
0.00447413
0.00697885
0.00957663
0.0122589
0.015017
0.0178417
0.020724
0.0236542
0.0266226
0.0296193
0.0326343
0.0356577
0.0386791
0.0416882
0.0446748
0.0476289
0.0505405
0.0533993
0.0561953
0.0589186
0.0615597
0.0641092
0.066558
0.0688973
0.0711183
0.0732132
0.0751745
0.0769952
0.0786684
0.0801883
0.0815496
0.0827477
0.0837789
0.0846402
0.0853295
0.0858455
0.0861884
0.0863592
0.08636
0.0861943
0.0858664
0.0853825
0.0847502
0.0839787
0.0830788
0.0820626
0.0809443
0.0797397
0.0784674
0.0771482
0.075805
0.0744631
0.0731502
0.071896
0.0707328
0.0696944
0.0688156
0.0681281
0.0676622
0.0674706
0.0675819
0.000745378
0.000804557
0.000583373
0.000120059
-0.000535222
-0.00135396
-0.00230696
-0.0033633
-0.00449308
-0.00566794
-0.00686132
-0.00804902
-0.00920856
-0.0103199
-0.011365
-0.0123279
-0.0131941
-0.0139513
-0.014589
-0.015098
-0.0154709
-0.0157011
-0.0157835
-0.0157144
-0.0154909
-0.0151114
-0.0145753
-0.0138826
-0.0130343
-0.0120321
-0.0108783
-0.00957611
-0.00812903
-0.00654147
-0.00481838
-0.00296508
-0.000987264
0.00110871
0.00331602
0.00562763
0.00803617
0.0105338
0.0131123
0.0157634
0.0184785
0.0212487
0.0240648
0.0269175
0.0297973
0.0326947
0.0356
0.0385034
0.0413948
0.0442648
0.0471036
0.0499015
0.0526487
0.0553357
0.057953
0.0604916
0.0629424
0.0652968
0.0675462
0.0696825
0.0716983
0.0735864
0.07534
0.0769529
0.0784194
0.0797346
0.0808945
0.0818953
0.0827345
0.08341
0.0839211
0.0842679
0.0844516
0.0844745
0.0843398
0.0840521
0.0836173
0.083043
0.082338
0.0815127
0.0805786
0.079549
0.0784392
0.0772665
0.0760502
0.0748116
0.0735736
0.0723611
0.0712006
0.0701205
0.0691505
0.0683206
0.0676589
0.0671931
0.0669738
0.0670344
0.00166765
0.00160924
0.00131902
0.000824913
0.000164848
-0.000635925
-0.00155098
-0.00255387
-0.00361862
-0.00472037
-0.00583583
-0.0069431
-0.008022
-0.0090543
-0.0100234
-0.0109145
-0.0117144
-0.0124114
-0.0129951
-0.0134572
-0.0137903
-0.0139883
-0.0140464
-0.0139607
-0.0137284
-0.0133479
-0.0128183
-0.0121396
-0.0113126
-0.0103388
-0.00922054
-0.00796049
-0.00656207
-0.00502936
-0.00336698
-0.00157993
0.000326249
0.00234552
0.0044715
0.00669748
0.00901636
0.0114207
0.0139026
0.0164541
0.0190671
0.0217329
0.0244427
0.0271877
0.0299588
0.0327468
0.0355423
0.0383358
0.0411181
0.0438797
0.0466115
0.0493039
0.0519477
0.0545337
0.057053
0.0594967
0.0618563
0.0641234
0.0662898
0.068348
0.0702908
0.0721114
0.0738034
0.0753607
0.076778
0.0780509
0.0791755
0.0801483
0.0809668
0.0816293
0.0821353
0.082485
0.0826797
0.0827216
0.0826138
0.0823608
0.0819686
0.0814444
0.0807966
0.0800351
0.0791708
0.0782161
0.0771853
0.0760946
0.074962
0.0738068
0.0726496
0.0715126
0.0704196
0.0693953
0.0684658
0.0676571
0.066994
0.0665015
0.0662194
0.0661734
0.00285441
0.00263518
0.00224393
0.00169272
0.00100177
0.000193703
-0.000708712
-0.00168253
-0.00270561
-0.00375637
-0.00481427
-0.00586013
-0.00687588
-0.00784478
-0.00875197
-0.00958379
-0.0103282
-0.0109744
-0.0115126
-0.0119348
-0.0122342
-0.0124048
-0.0124421
-0.0123425
-0.0121031
-0.0117224
-0.0111995
-0.0105343
-0.00972736
-0.00878012
-0.00769468
-0.00647364
-0.00512018
-0.00363814
-0.00203188
-0.00030612
0.0015339
0.00348239
0.00553327
0.00768013
0.00991618
0.0122343
0.0146269
0.0170865
0.0196052
0.0221746
0.0247863
0.0274319
0.0301028
0.0327899
0.0354842
0.0381766
0.0408583
0.0435203
0.0461536
0.0487491
0.0512978
0.0537912
0.0562205
0.0585773
0.0608532
0.0630403
0.0651309
0.0671178
0.0689939
0.0707529
0.0723884
0.0738949
0.0752674
0.0765017
0.0775939
0.0785409
0.0793402
0.0799904
0.0804911
0.0808426
0.0810462
0.0811039
0.0810188
0.0807952
0.080439
0.079957
0.0793573
0.078649
0.0778423
0.0769489
0.0759821
0.0749569
0.0738897
0.072798
0.0717004
0.0706165
0.0695672
0.0685745
0.0676608
0.0668484
0.0661593
0.0656154
0.0652407
0.0650473
0.00425001
0.00384262
0.00332667
0.00269653
0.00195292
0.00111484
0.000202801
-0.000764084
-0.0017669
-0.00278715
-0.00380689
-0.00480922
-0.00577832
-0.00669925
-0.00755832
-0.00834321
-0.00904299
-0.00964782
-0.0101487
-0.0105381
-0.0108097
-0.0109579
-0.0109783
-0.0108675
-0.010623
-0.0102431
-0.009727
-0.0090746
-0.00828642
-0.00736377
-0.00630855
-0.00512324
-0.00381092
-0.0023752
-0.000820169
0.000849603
0.00262913
0.004513
0.00649538
0.00857005
0.0107305
0.0129698
0.0152811
0.0176568
0.0200894
0.0225709
0.0250933
0.0276485
0.030228
0.0328231
0.0354253
0.0380259
0.0406162
0.0431876
0.0457314
0.0482389
0.0507016
0.053111
0.0554589
0.057737
0.0599373
0.0620522
0.0640743
0.0659968
0.0678129
0.0695162
0.0711009
0.0725617
0.0738938
0.0750932
0.0761561
0.0770795
0.0778612
0.0784998
0.078995
0.0793472
0.0795575
0.0796277
0.0795609
0.0793614
0.0790346
0.078587
0.0780262
0.0773606
0.0765996
0.0757542
0.0748368
0.0738611
0.0728419
0.071795
0.070737
0.0696852
0.0686581
0.0676748
0.0667546
0.0659165
0.0651798
0.0645637
0.0640735
0.0637057
0.00580312
0.00519123
0.00453422
0.00380835
0.00299417
0.00210784
0.00116736
0.000188617
-0.000812346
-0.00181993
-0.00281853
-0.00379335
-0.00473064
-0.00561723
-0.00644068
-0.00719014
-0.0078555
-0.00842782
-0.0088991
-0.00926237
-0.00951162
-0.00964191
-0.00964908
-0.00952987
-0.00928203
-0.00890398
-0.00839493
-0.00775483
-0.00698416
-0.00608417
-0.00505675
-0.00390419
-0.00262939
-0.00123583
0.00027251
0.00189133
0.00361592
0.00544105
0.0073611
0.00937012
0.0114619
0.0136298
0.0158671
0.0181667
0.0205212
0.0229229
0.0253643
0.0278374
0.0303341
0.032846
0.0353649
0.0378823
0.04039
0.0428796
0.0453426
0.0477708
0.0501558
0.0524896
0.0547642
0.0569716
0.0591039
0.0611539
0.0631147
0.0649795
0.0667417
0.0683952
0.0699343
0.0713541
0.0726501
0.0738181
0.0748546
0.0757567
0.076522
0.0771497
0.0776392
0.077991
0.0782059
0.0782857
0.0782332
0.0780526
0.077749
0.0773286
0.0767981
0.0761655
0.0754394
0.07463
0.0737487
0.072808
0.0718213
0.0708025
0.0697664
0.0687284
0.0677048
0.0667121
0.0657666
0.0648842
0.0640821
0.0633769
0.0627547
0.0621959
0.00746866
0.00664411
0.00583513
0.00500104
0.00410223
0.00315273
0.00216839
0.00116219
0.000147279
-0.000862871
-0.00185503
-0.00281649
-0.00373519
-0.00459955
-0.00539873
-0.00612288
-0.00676311
-0.00731126
-0.00776008
-0.00810332
-0.00833556
-0.00845219
-0.00844944
-0.00832438
-0.00807498
-0.00769977
-0.00719798
-0.00656967
-0.00581543
-0.00493639
-0.00393434
-0.00281163
-0.00157103
-0.000215784
0.00125028
0.00282299
0.00449782
0.0062698
0.00813351
0.0100832
0.0121129
0.0142163
0.0163869
0.0186176
0.0209015
0.0232314
0.0255997
0.0279989
0.030421
0.032858
0.0353018
0.0377446
0.040178
0.0425941
0.0449847
0.0473417
0.0496573
0.0519236
0.0541326
0.0562767
0.0583483
0.0603407
0.0622468
0.0640602
0.0657744
0.0673836
0.0688823
0.0702657
0.0715295
0.0726696
0.0736824
0.0745651
0.0753156
0.0759329
0.0764166
0.076767
0.0769845
0.077071
0.0770292
0.0768629
0.0765769
0.0761769
0.075669
0.0750605
0.0743594
0.0735751
0.0727181
0.0717995
0.0708313
0.0698259
0.0687964
0.0677565
0.0667204
0.0657023
0.0647157
0.0637738
0.0628919
0.0620847
0.0613193
0.0605603
0.00920784
0.00816783
0.00720035
0.00624903
0.00525503
0.00423037
0.00318947
0.0021426
0.0011006
7.47553e-05
-0.000923876
-0.00188424
-0.00279593
-0.00364892
-0.00443394
-0.00514204
-0.00576539
-0.00629681
-0.00672983
-0.0070588
-0.00727884
-0.00738576
-0.00737629
-0.00724785
-0.00699843
-0.00662684
-0.00613261
-0.00551572
-0.00477674
-0.00391693
-0.0029381
-0.00184247
-0.000632698
0.000687972
0.00211588
0.00364712
0.0052773
0.00700152
0.00881458
0.010711
0.0126851
0.0147307
0.0168413
0.0190103
0.0212311
0.0234966
0.0257996
0.0281327
0.0304881
0.0328581
0.0352352
0.0376113
0.0399787
0.0423293
0.0446555
0.0469494
0.0492034
0.0514098
0.0535607
0.0556489
0.057667
0.0596084
0.0614665
0.0632346
0.0649065
0.0664767
0.0679398
0.0692914
0.0705269
0.0716423
0.072634
0.0734993
0.0742364
0.0748441
0.075322
0.0756699
0.0758885
0.0759791
0.0759446
0.0757884
0.075515
0.0751291
0.0746367
0.0740442
0.0733593
0.0725904
0.071747
0.070839
0.069877
0.068872
0.0678357
0.0667802
0.0657179
0.0646607
0.0636199
0.0626061
0.0616334
0.0607148
0.059799
0.0588356
0.0109874
0.00973237
0.00860323
0.00752868
0.00643146
0.00532247
0.00421479
0.00311648
0.00203624
0.000983332
-3.27591e-05
-0.00100266
-0.0019176
-0.00276902
-0.00354867
-0.004249
-0.00486302
-0.00538449
-0.00580765
-0.00612749
-0.00633973
-0.00644069
-0.0064274
-0.00629766
-0.00604976
-0.00568264
-0.00519599
-0.00459002
-0.00386531
-0.00302311
-0.00206525
-0.000994001
0.000188032
0.00147777
0.0028717
0.00436595
0.00595627
0.00763794
0.00940597
0.0112551
0.0131797
0.0151738
0.0172312
0.0193455
0.0215103
0.0237188
0.0259639
0.0282383
0.0305347
0.0328457
0.0351638
0.0374812
0.0397903
0.0420833
0.0443529
0.0465915
0.0487915
0.0509453
0.0530455
0.0550848
0.0570564
0.0589536
0.0607697
0.0624984
0.0641336
0.06567
0.0671025
0.0684265
0.0696374
0.0707312
0.0717045
0.0725546
0.0732797
0.0738786
0.0743506
0.0746955
0.0749135
0.0750063
0.0749761
0.0748263
0.0745605
0.0741833
0.0736999
0.0731164
0.0724396
0.0716774
0.070838
0.0699303
0.0689636
0.0679477
0.0668931
0.0658103
0.06471
0.0636024
0.0624966
0.061401
0.060329
0.0592922
0.058222
0.0570535
0.0127792
0.0113117
0.0100198
0.00881808
0.00761199
0.00641146
0.00522895
0.00407047
0.00294275
0.00185345
0.000810479
-0.000178371
-0.00110552
-0.0019638
-0.00274607
-0.00344599
-0.0040574
-0.00457491
-0.00499362
-0.00530905
-0.00551738
-0.00561563
-0.00560126
-0.00547216
-0.00522693
-0.00486497
-0.00438608
-0.00379043
-0.00307878
-0.00225255
-0.00131362
-0.000264151
0.000893313
0.00215572
0.0035196
0.00498119
0.00653636
0.0081806
0.00990907
0.0117166
0.0135977
0.0155466
0.0175572
0.0196235
0.0217393
0.0238978
0.0260921
0.0283153
0.0305603
0.0328198
0.0350864
0.0373527
0.039611
0.0418541
0.0440747
0.0462655
0.0484188
0.0505273
0.0525838
0.0545813
0.056513
0.0583723
0.0601527
0.0618477
0.0634517
0.0649594
0.0663659
0.0676665
0.0688566
0.069932
0.0708896
0.0717266
0.0724413
0.0730323
0.0734986
0.0738398
0.0740563
0.0741493
0.074121
0.0739741
0.0737118
0.0733382
0.0728582
0.0722772
0.0716017
0.0708383
0.0699945
0.0690779
0.068097
0.0670605
0.0659775
0.0648574
0.0637092
0.0625416
0.061362
0.0601769
0.0589992
0.0578398
0.0566132
0.0552411
0.014559
0.012883
0.0114286
0.0100975
0.00877856
0.00748102
0.00621716
0.00499132
0.00380854
0.00267506
0.0015973
0.000581693
-0.000365444
-0.00123796
-0.00202989
-0.00273576
-0.00335063
-0.00386967
-0.00428853
-0.00460362
-0.0048118
-0.00491031
-0.00489694
-0.00477011
-0.00452881
-0.00417255
-0.00370122
-0.00311522
-0.00241554
-0.00160368
-0.000681496
0.000348856
0.00148481
0.00272335
0.00406104
0.00549422
0.0070189
0.00863069
0.0103249
0.0120964
0.0139398
0.0158495
0.0178197
0.0198447
0.021918
0.0240334
0.026184
0.0283631
0.0305639
0.0327792
0.0350017
0.0372242
0.0394392
0.0416399
0.0438189
0.045969
0.0480828
0.050153
0.0521728
0.0541352
0.0560336
0.0578612
0.0596116
0.0612787
0.0628569
0.0643411
0.0657263
0.0670076
0.0681804
0.0692407
0.0701853
0.0710117
0.0717176
0.0723015
0.0727624
0.0730999
0.073314
0.0734059
0.0733772
0.0732302
0.0729677
0.0725935
0.0721118
0.0715278
0.0708471
0.0700758
0.06922
0.0682868
0.0672834
0.0662177
0.0650979
0.0639319
0.0627275
0.061492
0.0602313
0.0589508
0.0576627
0.0563777
0.0549943
0.0534214
0.016306
0.0144258
0.0128103
0.0113488
0.0099144
0.00851608
0.00716569
0.0058666
0.00462257
0.0034384
0.00231908
0.00126997
0.000296383
-0.000596626
-0.00140437
-0.00212202
-0.00274538
-0.00327056
-0.00369396
-0.00401244
-0.00422346
-0.0043247
-0.00431435
-0.00419127
-0.00395474
-0.00360441
-0.0031404
-0.00256337
-0.00187448
-0.00107528
-0.000167639
0.000846224
0.00196371
0.00318179
0.0044971
0.00590606
0.00740483
0.00898907
0.0106541
0.0123949
0.0142063
0.0160828
0.0180189
0.0200088
0.0220463
0.0241251
0.0262388
0.0283809
0.0305446
0.0327227
0.0349083
0.0370942
0.0392733
0.0414387
0.0435832
0.0456997
0.0477809
0.0498198
0.0518097
0.0537437
0.055615
0.057417
0.0591434
0.0607882
0.062346
0.0638116
0.0651799
0.066446
0.0676053
0.0686539
0.0695885
0.0704064
0.0711052
0.0716834
0.0721396
0.0724733
0.0726846
0.0727742
0.0727433
0.0725937
0.0723279
0.0719492
0.0714616
0.0708697
0.0701784
0.0693929
0.0685187
0.067562
0.0665291
0.0654271
0.064263
0.0630439
0.0617764
0.0604665
0.059119
0.0577382
0.0563365
0.0549241
0.0533844
0.0516143
0.0180019
0.0159222
0.0141478
0.0125556
0.0110041
0.00950214
0.00806163
0.00668483
0.00537425
0.0041337
0.00296735
0.0018792
0.000873432
-4.5707e-05
-0.00087423
-0.00160854
-0.00224503
-0.00278044
-0.00321194
-0.00353704
-0.00375355
-0.00385963
-0.00385396
-0.00373581
-0.00350465
-0.0031603
-0.00270322
-0.00213436
-0.00145498
-0.000666643
0.00022871
0.00122873
0.00233073
0.00353172
0.00482845
0.0062174
0.00769473
0.00925615
0.010897
0.0126125
0.0143974
0.0162467
0.0181547
0.0201156
0.0221236
0.0241724
0.026256
0.0283679
0.0305013
0.0326492
0.0348048
0.0369612
0.0391115
0.0412486
0.0433656
0.0454553
0.0475108
0.0495253
0.0514919
0.0534039
0.0552543
0.0570367
0.0587449
0.060373
0.0619157
0.0633676
0.0647236
0.0659786
0.0671283
0.0681686
0.0690961
0.0699079
0.0706016
0.0711754
0.0716278
0.0719583
0.0721666
0.072253
0.0722184
0.0720641
0.0717924
0.0714062
0.070909
0.0703049
0.0695982
0.0687933
0.0678951
0.0669089
0.0658405
0.0646959
0.0634815
0.0622032
0.0608666
0.059477
0.0580383
0.0565537
0.0550359
0.0534952
0.0518004
0.0498368
0.0196307
0.0173565
0.0154252
0.0137026
0.0120331
0.0104258
0.00889238
0.0074342
0.00605313
0.00475187
0.0035336
0.00240155
0.00135903
0.000409131
-0.000444806
-0.00119987
-0.00185325
-0.00240246
-0.00284525
-0.0031796
-0.00340374
-0.00351644
-0.00351688
-0.00340451
-0.00317897
-0.00284049
-0.00238989
-0.00182827
-0.00115691
-0.000377503
0.000507822
0.00149659
0.00258612
0.00377347
0.00505543
0.00642848
0.00788876
0.00943199
0.0110537
0.0127491
0.0145132
0.0163408
0.0182265
0.0201646
0.0221493
0.0241748
0.0262348
0.028323
0.0304328
0.0325573
0.0346898
0.0368237
0.038952
0.0410677
0.043164
0.0452338
0.0472704
0.0492671
0.0512169
0.0531131
0.0549488
0.0567176
0.0584134
0.0600305
0.0615632
0.0630062
0.0643544
0.0656027
0.0667466
0.0677821
0.0687056
0.069514
0.0702046
0.0707756
0.0712255
0.0715534
0.0717588
0.0718416
0.0718022
0.0716417
0.0713621
0.0709657
0.0704558
0.0698359
0.0691096
0.0682808
0.0673538
0.0663332
0.0652241
0.0640318
0.0627617
0.061419
0.0600087
0.0585351
0.0570014
0.0554103
0.0537748
0.0521054
0.0502569
0.0481037
0.0211785
0.0187142
0.0166285
0.0147764
0.0129883
0.0112741
0.00964592
0.00810382
0.00664889
0.00528337
0.00400946
0.00282956
0.00174612
0.000761662
-0.0001214
-0.000900732
-0.00157434
-0.00214036
-0.00259699
-0.00294267
-0.0031763
-0.00329717
-0.00330469
-0.00319849
-0.00297868
-0.00264587
-0.0022011
-0.00164553
-0.000980573
-0.000208141
0.000669424
0.00164961
0.00272975
0.00390695
0.00517793
0.00653912
0.00798664
0.00951632
0.0111238
0.0128043
0.014553
0.0163647
0.0182338
0.0201551
0.0221228
0.0241311
0.026174
0.0282451
0.0303378
0.0324456
0.034562
0.0366802
0.0387932
0.0408942
0.0429764
0.0450331
0.0470575
0.0490429
0.0509823
0.052869
0.0546961
0.0564572
0.0581464
0.0597579
0.0612859
0.0627249
0.0640699
0.0653158
0.066458
0.0674923
0.068415
0.0692226
0.0699126
0.0704827
0.0709314
0.0712577
0.0714605
0.0715396
0.0714949
0.0713272
0.0710379
0.0706294
0.0701042
0.0694655
0.0687162
0.0678597
0.0668998
0.0658405
0.0646863
0.0634418
0.0621117
0.0607004
0.0592123
0.0576513
0.0560198
0.0543202
0.0525658
0.0507675
0.0487671
0.0464279
0.0226328
0.0199825
0.017745
0.0157643
0.0138578
0.0120358
0.010311
0.00868297
0.00715178
0.00571904
0.00438636
0.00315537
0.00202778
0.00100555
9.03259e-05
-0.000716291
-0.00141289
-0.00199806
-0.00247054
-0.0028294
-0.00307407
-0.00320416
-0.00321929
-0.00311949
-0.00290536
-0.00257781
-0.00213794
-0.00158702
-0.000926754
-0.000159333
0.000712811
0.00168719
0.00276116
0.00393168
0.00519539
0.0065487
0.0079878
0.00950861
0.0111068
0.0127776
0.0145162
0.0163173
0.0181757
0.0200861
0.0220429
0.0240404
0.0260724
0.0281327
0.030215
0.0323128
0.0344197
0.0365287
0.0386331
0.0407261
0.0428011
0.0448513
0.04687
0.0488505
0.0507859
0.0526692
0.0544937
0.0562532
0.0579416
0.0595529
0.0610814
0.0625215
0.063868
0.0651159
0.0662605
0.0672973
0.0682224
0.0690323
0.0697241
0.0702955
0.0707448
0.0710706
0.0712717
0.0713472
0.071297
0.0711214
0.0708215
0.0703993
0.0698569
0.0691968
0.0684216
0.0675343
0.0665381
0.0654366
0.0642336
0.0629333
0.0615395
0.0600561
0.058487
0.0568356
0.0551041
0.0532942
0.0514201
0.0494933
0.0473424
0.0448205
0.0239822
0.0211497
0.0187626
0.0166546
0.01463
0.0126997
0.0108772
0.0091616
0.00755222
0.00604999
0.00465602
0.00337132
0.00219704
0.00113434
0.000184368
-0.000651939
-0.00137366
-0.00197985
-0.00246985
-0.00284337
-0.00310017
-0.00324003
-0.00326303
-0.00316973
-0.00296107
-0.00263804
-0.00220183
-0.00165406
-0.000996785
-0.000232314
0.000636939
0.00160846
0.00267944
0.00384671
0.00510686
0.00645634
0.00789141
0.00940801
0.0110017
0.0126679
0.0144016
0.0161977
0.0180512
0.0199566
0.0219086
0.0239012
0.0259286
0.0279846
0.030063
0.0321574
0.0342612
0.0363677
0.0384702
0.0405618
0.0426361
0.0446864
0.046706
0.048688
0.0506255
0.0525117
0.0543398
0.0561037
0.0577969
0.0594136
0.0609478
0.062394
0.0637468
0.0650013
0.0661524
0.0671956
0.0681267
0.0689419
0.0696384
0.0702135
0.0706654
0.0709922
0.0711924
0.0712651
0.0712095
0.0710258
0.0707147
0.0702778
0.0697166
0.0690332
0.06823
0.0673093
0.066274
0.0651273
0.0638725
0.0625132
0.0610526
0.0594942
0.0578414
0.0560974
0.054264
0.0523427
0.0503484
0.0482931
0.0459931
0.0432913
0.0252166
0.022205
0.0196703
0.0174361
0.015294
0.0132554
0.0113345
0.00953005
0.00784091
0.00626746
0.00481024
0.00346976
0.00224668
0.00114143
0.000154616
-0.000713241
-0.00146166
-0.00209038
-0.00259932
-0.00298851
-0.00325796
-0.00340787
-0.00343889
-0.00335198
-0.00314816
-0.00282855
-0.00239468
-0.00184855
-0.00119243
-0.000428624
0.000440439
0.00141206
0.00248324
0.0036507
0.00491106
0.00626085
0.0076963
0.00921327
0.0108074
0.0124738
0.0142079
0.0160046
0.0178588
0.0197651
0.0217181
0.0237121
0.0257411
0.0277991
0.0298801
0.0319775
0.0340849
0.0361954
0.0383024
0.0403994
0.0424796
0.0445366
0.0465635
0.0485533
0.0504993
0.0523946
0.0542325
0.0560065
0.0577104
0.059338
0.0608833
0.0623407
0.0637048
0.0649704
0.0661325
0.067186
0.0681268
0.0689508
0.0696548
0.0702363
0.0706929
0.0710226
0.0712234
0.0712941
0.0712338
0.0710422
0.0707198
0.0702675
0.0696866
0.0689786
0.0681455
0.0671894
0.0661129
0.0649186
0.0636094
0.0621885
0.0606586
0.0590228
0.0572841
0.0554456
0.0535088
0.051475
0.04936
0.0471766
0.0447287
0.0418492
0.0263264
0.0231385
0.020458
0.0180986
0.0158394
0.0136926
0.011673
0.0097789
0.00800883
0.00636278
0.00484087
0.00344309
0.0021694
0.00101996
-5.15024e-06
-0.000905866
-0.00168231
-0.00233477
-0.00286352
-0.00326885
-0.00355117
-0.00371129
-0.00375028
-0.00366922
-0.00346923
-0.0031518
-0.00271892
-0.00217281
-0.00151575
-0.000750087
0.000121557
0.00109623
0.00217079
0.00334199
0.00460647
0.00596073
0.00740092
0.00892283
0.010522
0.0121939
0.0139337
0.0157364
0.0175969
0.01951
0.0214699
0.0234712
0.0255081
0.0275745
0.0296644
0.0317714
0.0338887
0.0360098
0.0381281
0.0402369
0.0423298
0.0443999
0.0464404
0.0484445
0.0504053
0.0523159
0.0541697
0.0559601
0.0576804
0.0593245
0.0608863
0.0623601
0.0637406
0.0650221
0.0661995
0.0672677
0.0682219
0.0690583
0.0697733
0.0703641
0.0708279
0.0711625
0.0713656
0.0714357
0.0713716
0.0711727
0.0708392
0.0703714
0.0697702
0.0690367
0.0681725
0.0671796
0.0660601
0.0648163
0.0634508
0.0619661
0.0603649
0.0586496
0.0568233
0.0548886
0.0528472
0.0507002
0.0484641
0.0461524
0.0435574
0.0405021
0.0273025
0.023941
0.0211163
0.0186324
0.0162567
0.0140018
0.0118831
0.00989886
0.00804715
0.00632759
0.00473982
0.00328346
0.001958
0.000763208
-0.000301261
-0.00123588
-0.00204135
-0.00271826
-0.00326715
-0.00368874
-0.00398406
-0.00415433
-0.00420077
-0.00412459
-0.00392726
-0.00361077
-0.00317738
-0.00262936
-0.001969
-0.00119886
-0.000321867
0.000658848
0.00174011
0.00291873
0.00419132
0.00555423
0.00700349
0.00853488
0.010144
0.0118263
0.0135771
0.0153913
0.0172638
0.0191892
0.0211621
0.0231768
0.0252277
0.0273089
0.0294141
0.0315368
0.0336706
0.0358089
0.037945
0.0400724
0.0421844
0.0442742
0.0463349
0.0483596
0.0503416
0.052274
0.0541499
0.0559625
0.0577051
0.0593715
0.0609554
0.0624512
0.063853
0.0651554
0.0663528
0.0674399
0.0684118
0.0692644
0.069994
0.0705971
0.071071
0.0714128
0.0716203
0.0716915
0.0716249
0.0714199
0.0710758
0.0705927
0.0699711
0.0692117
0.0683158
0.067285
0.0661213
0.0648266
0.0634031
0.061853
0.0601786
0.0583823
0.0564668
0.0544348
0.0522877
0.0500265
0.0476688
0.0452289
0.0424873
0.0392573
0.0281365
0.0246034
0.0216359
0.0190284
0.0165365
0.0141737
0.0119559
0.00988111
0.00794721
0.00615341
0.00449901
0.00298317
0.0016052
0.000364318
-0.000740306
-0.00170961
-0.00254457
-0.00324611
-0.00381518
-0.00425307
-0.00456126
-0.00474114
-0.00479407
-0.00472161
-0.00452575
-0.00420881
-0.0037731
-0.00322091
-0.00255476
-0.00177753
-0.00089238
9.75142e-05
0.00118901
0.00237887
0.00366355
0.00503925
0.00650192
0.00804739
0.00967136
0.0113693
0.0131363
0.0149674
0.0168574
0.0188009
0.0207925
0.0228267
0.0248979
0.027
0.0291268
0.0312718
0.0334286
0.0355906
0.0377512
0.0399037
0.0420414
0.0441573
0.0462447
0.0482967
0.0503065
0.052267
0.0541712
0.0560121
0.057783
0.0594775
0.0610894
0.0626126
0.0640413
0.0653696
0.0665918
0.0677024
0.0686964
0.0695693
0.0703171
0.0709362
0.0714231
0.071775
0.0719891
0.0720634
0.0719962
0.0717862
0.0714326
0.0709349
0.0702932
0.0695079
0.06858
0.0675108
0.0663021
0.0649555
0.0634728
0.0618559
0.060107
0.0582283
0.0562224
0.0540919
0.0518381
0.0494621
0.0469822
0.0444138
0.0415256
0.0381216
0.0288202
0.0251169
0.0220079
0.0192774
0.0166699
0.0141992
0.0118823
0.00971688
0.00770043
0.0058319
0.00411035
0.00253461
0.00110361
-0.000183891
-0.00132913
-0.00233337
-0.00319785
-0.00392392
-0.00451308
-0.00496706
-0.00528752
-0.00547603
-0.00553427
-0.00546436
-0.00526865
-0.00494951
-0.0045093
-0.00395051
-0.00327604
-0.00248907
-0.00159278
-0.000590326
0.000515097
0.00172005
0.00302079
0.00441342
0.00589393
0.00745821
0.00910197
0.0108206
0.0126091
0.0144625
0.0163754
0.0183428
0.0203591
0.0224189
0.0245164
0.0266456
0.0288002
0.0309739
0.0331602
0.0353526
0.0375443
0.0397286
0.0418985
0.0440472
0.046168
0.0482538
0.0502978
0.0522929
0.0542318
0.0561073
0.0579128
0.0596415
0.0612872
0.0628436
0.0643046
0.065664
0.0669161
0.068055
0.0690757
0.0699734
0.0707435
0.0713822
0.0718856
0.0722505
0.072474
0.0725539
0.0724881
0.0722749
0.071913
0.0714017
0.0707405
0.0699297
0.06897
0.0678624
0.0666083
0.0652091
0.0636663
0.0619817
0.0601571
0.058195
0.0560976
0.0538677
0.0515064
0.0490146
0.0464118
0.0437143
0.0406795
0.0371015
0.0293457
0.0254734
0.0222235
0.0193707
0.0166478
0.0140696
0.0116536
0.0093974
0.00729823
0.0053548
0.00356587
0.00193004
0.000445692
-0.000888673
-0.00207458
-0.00311359
-0.00400736
-0.00475774
-0.00536667
-0.00583605
-0.00616773
-0.00636364
-0.00642602
-0.00635734
-0.00616006
-0.00583657
-0.00538947
-0.00482164
-0.00413631
-0.00333672
-0.00242602
-0.00140741
-0.000284328
0.000939548
0.00226035
0.00367419
0.00517711
0.00676501
0.00843351
0.0101779
0.0119931
0.013874
0.0158157
0.0178127
0.0198597
0.021951
0.0240809
0.0262433
0.0284321
0.0306409
0.0328634
0.0350927
0.0373221
0.0395447
0.0417535
0.0439417
0.0461025
0.048229
0.0503139
0.05235
0.05433
0.0562466
0.0580929
0.0598621
0.0615477
0.0631432
0.0646421
0.0660382
0.0673254
0.0684979
0.0695503
0.0704772
0.071274
0.0719362
0.0724598
0.0728412
0.0730773
0.0731654
0.0731034
0.072889
0.0725206
0.071997
0.0713175
0.070482
0.0694911
0.0683453
0.0670457
0.0655935
0.0639901
0.062237
0.0603362
0.0582897
0.0561001
0.0537698
0.0513
0.0486916
0.045965
0.0431378
0.0399556
0.0362032
0.0297055
0.0256647
0.0222744
0.0192997
0.0164618
0.0137761
0.0112611
0.00891409
0.00673215
0.00471384
0.00285751
0.00116145
-0.000376229
-0.00175727
-0.00298355
-0.00405697
-0.00497969
-0.00575392
-0.00638181
-0.00686547
-0.00720711
-0.00740921
-0.00747438
-0.0074052
-0.00720419
-0.00687399
-0.0064176
-0.00583826
-0.00513927
-0.00432386
-0.00339522
-0.00235682
-0.00121235
3.43143e-05
0.00137932
0.00281883
0.00434887
0.00596524
0.0076634
0.00943854
0.0112857
0.0131997
0.0151757
0.0172082
0.0192916
0.0214205
0.0235888
0.0257907
0.0280201
0.0302705
0.0325356
0.0348084
0.0370821
0.0393496
0.0416041
0.0438387
0.0460464
0.0482201
0.0503526
0.0524364
0.0544641
0.0564284
0.0583221
0.0601383
0.0618701
0.0635106
0.0650534
0.0664919
0.0678199
0.0690314
0.0701204
0.0710816
0.0719096
0.0725997
0.0731475
0.0735491
0.0738013
0.0739009
0.0738453
0.0736321
0.0732592
0.0727251
0.0720287
0.0711698
0.0701485
0.0689651
0.0676204
0.0661152
0.0644509
0.062629
0.0606513
0.0585199
0.0562372
0.0538057
0.0512264
0.0485004
0.0456491
0.0426912
0.0393608
0.0354328
0.0298919
0.0256828
0.0221522
0.0190558
0.0161029
0.0133099
0.010696
0.0082584
0.00599381
0.0039006
0.00197699
0.000220856
-0.00136983
-0.00279714
-0.0040633
-0.00517068
-0.00612172
-0.00691888
-0.00756453
-0.00806117
-0.00841151
-0.00861839
-0.00868457
-0.00861273
-0.00840563
-0.00806634
-0.00759821
-0.00700461
-0.0062888
-0.00545408
-0.00450393
-0.00344209
-0.00227248
-0.000998961
0.000374628
0.00184442
0.00340633
0.00505597
0.00678872
0.00859978
0.0104842
0.012437
0.0144529
0.0165266
0.0186525
0.0208247
0.0230377
0.0252854
0.0275617
0.0298603
0.0321745
0.0344974
0.0368219
0.0391411
0.0414481
0.0437359
0.0459974
0.0482252
0.0504121
0.0525504
0.0546326
0.0566513
0.0585992
0.0604689
0.0622532
0.0639452
0.065538
0.067025
0.0683996
0.0696557
0.0707869
0.0717874
0.0726516
0.0733742
0.0739506
0.0743767
0.0746487
0.0747633
0.0747174
0.074508
0.074133
0.0735905
0.0728792
0.0719984
0.0709479
0.0697278
0.0683385
0.0667807
0.0650556
0.0631647
0.0611097
0.0588929
0.0565165
0.0539829
0.0512931
0.0484483
0.0454713
0.0423815
0.0389014
0.0347963
0.029897
0.0255195
0.0218487
0.0186306
0.0155628
0.0126625
0.00994986
0.00742168
0.0050746
0.0029067
0.000916026
-0.000899733
-0.00254292
-0.00401597
-0.00532144
-0.00646202
-0.00744038
-0.0082592
-0.00892126
-0.00942953
-0.00978707
-0.00999692
-0.0100619
-0.00998504
-0.00976945
-0.00941862
-0.00893602
-0.00832501
-0.00758895
-0.00673137
-0.00575612
-0.00466714
-0.00346839
-0.00216372
-0.000756986
0.000747768
0.00234626
0.00403401
0.00580638
0.00765864
0.00958586
0.0115829
0.0136446
0.0157653
0.0179394
0.0201611
0.0224249
0.0247247
0.0270545
0.0294076
0.0317775
0.0341569
0.0365391
0.0389169
0.0412833
0.0436312
0.0459533
0.0482422
0.0504903
0.0526901
0.0548338
0.0569139
0.0589227
0.0608527
0.0626963
0.0644463
0.0660956
0.0676373
0.0690648
0.0703714
0.0715505
0.0725957
0.0735013
0.0742615
0.0748714
0.0753264
0.0756226
0.075756
0.0757231
0.0755208
0.0751465
0.0745981
0.0738741
0.0729733
0.0718952
0.0706396
0.0692066
0.0675968
0.0658112
0.0638513
0.0617191
0.0594163
0.0569454
0.0543088
0.0515075
0.0485429
0.0454387
0.0422157
0.0385843
0.0342999
0.0297131