/*--------------------------------*- C++ -*----------------------------------*\
  =========                 |
  \\      /  F ield         | OpenFOAM: The Open Source CFD Toolbox
   \\    /   O peration     | Website:  https://openfoam.org
    \\  /    A nd           | Version:  11
     \\/     M anipulation  |
\*---------------------------------------------------------------------------*/
FoamFile
{
    format      ascii;
    class       surfaceScalarField;
    location    "0.5";
    object      phi;
}
// * * * * * * * * * * * * * * * * * * * * * * * * * * * * * * * * * * * * * //

dimensions      [0 3 -1 0 0 0 0];

internalField   nonuniform List<scalar> 
19980
(
4.35822e-06
-4.35815e-06
-2.54843e-05
2.98428e-05
-0.000113675
8.81906e-05
-0.00022993
0.000116255
-0.00034541
0.000115479
-0.000445675
0.000100266
-0.000523407
7.77315e-05
-0.000577597
5.41901e-05
-0.000609968
3.23713e-05
-0.00062404
1.40718e-05
-0.000624108
6.85792e-08
-0.000614316
-9.79255e-06
-0.000598105
-1.62111e-05
-0.000577633
-2.04716e-05
-0.000554559
-2.30746e-05
-0.000530246
-2.43127e-05
-0.000505731
-2.45149e-05
-0.000481444
-2.42867e-05
-0.000457985
-2.34593e-05
-0.000435389
-2.25958e-05
-0.000414103
-2.12864e-05
-0.000394678
-1.94246e-05
-0.000377345
-1.7333e-05
-0.000362352
-1.49927e-05
-0.000349787
-1.2565e-05
-0.000339421
-1.03661e-05
-0.00033121
-8.21039e-06
-0.000325162
-6.04821e-06
-0.000320922
-4.24043e-06
-0.000317887
-3.0348e-06
-0.000315648
-2.23907e-06
-0.00031396
-1.6882e-06
-0.000312601
-1.35936e-06
-0.00031152
-1.08018e-06
-0.000310809
-7.1078e-07
-0.000310433
-3.76026e-07
-0.000310123
-3.10497e-07
-0.00030951
-6.12887e-07
-0.000308272
-1.2384e-06
-0.000306077
-2.19452e-06
-0.000302627
-3.44993e-06
-0.000297878
-4.74951e-06
-0.000292122
-5.75529e-06
-0.000285842
-6.28046e-06
-0.000279465
-6.37693e-06
-0.000273294
-6.17095e-06
-0.000267557
-5.73715e-06
-0.000262236
-5.32083e-06
-0.000256976
-5.25984e-06
-0.000251463
-5.51262e-06
-0.00024561
-5.85297e-06
-0.000239483
-6.12733e-06
-0.000233318
-6.16545e-06
-0.000227289
-6.02815e-06
-0.000221117
-6.17246e-06
-0.00021426
-6.85654e-06
-0.000206302
-7.95839e-06
-0.000196797
-9.50561e-06
-0.000185308
-1.14882e-05
-0.000171998
-1.331e-05
-0.000157656
-1.43425e-05
-0.000142958
-1.46974e-05
-0.000128126
-1.48328e-05
-0.000113155
-1.49709e-05
-9.78574e-05
-1.5297e-05
-8.18493e-05
-1.60082e-05
-6.49939e-05
-1.68552e-05
-4.77186e-05
-1.72751e-05
-3.05952e-05
-1.71235e-05
-1.38635e-05
-1.67317e-05
2.44831e-06
-1.63118e-05
1.82755e-05
-1.58274e-05
3.36961e-05
-1.54204e-05
4.90345e-05
-1.53384e-05
6.44916e-05
-1.54572e-05
7.98482e-05
-1.53567e-05
9.47571e-05
-1.49088e-05
0.000109085
-1.43285e-05
0.000122694
-1.36083e-05
0.000135038
-1.2344e-05
0.000145351
-1.03129e-05
0.000153129
-7.77912e-06
0.000158269
-5.13916e-06
0.000160699
-2.43001e-06
0.000160218
4.80278e-07
0.000156835
3.38352e-06
0.000151047
5.78781e-06
0.000143576
7.47155e-06
0.00013483
8.74534e-06
0.000124771
1.00596e-05
0.000113283
1.14878e-05
0.000100544
1.27385e-05
8.69973e-05
1.35469e-05
7.30461e-05
1.39514e-05
5.87553e-05
1.42908e-05
4.40555e-05
1.46996e-05
2.94926e-05
1.4563e-05
1.62018e-05
1.32909e-05
5.86145e-06
1.03405e-05
5.86143e-06
4.83484e-05
-5.27063e-05
6.13365e-05
1.68539e-05
-1.23378e-05
0.000161865
-0.00013411
0.000238027
-0.000271251
0.00025262
-0.000401925
0.00023094
-0.000515976
0.000191783
-0.000607878
0.000146093
-0.000677652
0.000102144
-0.000727124
6.3544e-05
-0.000759386
3.23301e-05
-0.000777981
8.8025e-06
-0.000786309
-7.88284e-06
-0.00078736
-1.94204e-05
-0.000783512
-2.69225e-05
-0.000776056
-3.17687e-05
-0.000766265
-3.4306e-05
-0.000755319
-3.52335e-05
-0.0007436
-3.51785e-05
-0.000731944
-3.42518e-05
-0.000720897
-3.23332e-05
-0.000710648
-2.96742e-05
-0.000701641
-2.63394e-05
-0.000694297
-2.23371e-05
-0.000688676
-1.81856e-05
-0.000684972
-1.40705e-05
-0.000683349
-9.8325e-06
-0.000683492
-5.90608e-06
-0.000685013
-2.71837e-06
-0.000687761
-2.86976e-07
-0.000691416
1.41575e-06
-0.00069553
2.42586e-06
-0.000699891
3.00152e-06
-0.000704492
3.5209e-06
-0.000709222
4.02006e-06
-0.000713789
4.19074e-06
-0.000717908
3.80869e-06
-0.000721332
2.81097e-06
-0.00072369
1.11959e-06
-0.000724571
-1.31317e-06
-0.000723756
-4.26504e-06
-0.000721266
-7.24018e-06
-0.000717258
-9.76243e-06
-0.000711977
-1.15618e-05
-0.000705775
-1.25792e-05
-0.000699013
-1.29329e-05
-0.000691897
-1.28523e-05
-0.000684488
-1.27306e-05
-0.000676691
-1.30565e-05
-0.000668271
-1.39326e-05
-0.000659142
-1.49813e-05
-0.000649367
-1.59031e-05
-0.000638807
-1.67251e-05
-0.000627236
-1.7599e-05
-0.000614586
-1.88224e-05
-0.000600613
-2.08301e-05
-0.000584735
-2.38359e-05
-0.000566598
-2.76423e-05
-0.000546301
-3.17853e-05
-0.000523959
-3.5652e-05
-0.000499667
-3.86349e-05
-0.000473862
-4.0502e-05
-0.000447083
-4.16115e-05
-0.000419433
-4.26214e-05
-0.00039078
-4.39496e-05
-0.000361303
-4.54852e-05
-0.000331383
-4.67754e-05
-0.000301203
-4.74547e-05
-0.00027086
-4.74659e-05
-0.000240643
-4.69492e-05
-0.000210839
-4.61162e-05
-0.000181402
-4.52643e-05
-0.000152119
-4.47036e-05
-0.000122967
-4.44903e-05
-9.40776e-05
-4.43465e-05
-6.54902e-05
-4.39442e-05
-3.72423e-05
-4.31566e-05
-9.66868e-06
-4.1902e-05
1.66252e-05
-3.99024e-05
4.10841e-05
-3.68032e-05
6.32701e-05
-3.24989e-05
8.26811e-05
-2.71903e-05
9.87121e-05
-2.11703e-05
0.00011097
-1.46877e-05
0.000119509
-8.05902e-06
0.000124623
-1.73026e-06
0.00012649
3.92093e-06
0.000125175
8.78665e-06
0.000120918
1.30026e-05
0.0001142
1.6777e-05
0.000105451
2.02368e-05
9.48107e-05
2.33792e-05
8.2281e-05
2.60766e-05
6.80359e-05
2.81964e-05
5.25777e-05
2.9749e-05
3.69325e-05
3.0345e-05
2.26845e-05
2.88111e-05
1.09669e-05
2.50085e-05
3.59703e-06
1.77104e-05
9.45853e-06
0.000105377
-0.000158084
0.000197883
-7.5651e-05
0.000200755
0.000158992
0.000147193
0.000291589
6.63806e-05
0.000333432
-2.55645e-05
0.000322885
-0.000119045
0.000285263
-0.000208812
0.000235859
-0.000291251
0.000184584
-0.000365167
0.000137461
-0.000430194
9.73571e-05
-0.000486664
6.5272e-05
-0.000535278
4.07312e-05
-0.000577328
2.26296e-05
-0.00061362
9.36956e-06
-0.000645767
3.78958e-07
-0.000674115
-5.95808e-06
-0.000699403
-9.94519e-06
-0.000722272
-1.23092e-05
-0.000743273
-1.32511e-05
-0.000762639
-1.29672e-05
-0.000780857
-1.14562e-05
-0.000798127
-9.06876e-06
-0.000814572
-5.89243e-06
-0.000830525
-2.23273e-06
-0.000846169
1.57386e-06
-0.000861474
5.47185e-06
-0.000876565
9.18481e-06
-0.000891575
1.22916e-05
-0.000906493
1.46308e-05
-0.000921237
1.61598e-05
-0.000935811
1.70002e-05
-0.000950198
1.73882e-05
-0.000964143
1.74656e-05
-0.000977382
1.72595e-05
-0.000989805
1.66135e-05
-0.00100127
1.52725e-05
-0.00101158
1.31204e-05
-0.00102054
1.00865e-05
-0.00102806
6.20494e-06
-0.00103414
1.81624e-06
-0.00103877
-2.61588e-06
-0.00104186
-6.67584e-06
-0.00104337
-1.00438e-05
-0.00104336
-1.25933e-05
-0.0010419
-1.43904e-05
-0.00103903
-1.57218e-05
-0.00103473
-1.70318e-05
-0.00102917
-1.86202e-05
-0.00102254
-2.05568e-05
-0.00101474
-2.27806e-05
-0.00100558
-2.50669e-05
-0.000995043
-2.72619e-05
-0.000982998
-2.96434e-05
-0.000969163
-3.26577e-05
-0.000953517
-3.64754e-05
-0.000936214
-4.11396e-05
-0.000917182
-4.66737e-05
-0.000896285
-5.26826e-05
-0.000873595
-5.83417e-05
-0.000849177
-6.30527e-05
-0.000822907
-6.67725e-05
-0.00079478
-6.97381e-05
-0.000765125
-7.22761e-05
-0.000734339
-7.47361e-05
-0.000702645
-7.71791e-05
-0.000670196
-7.92239e-05
-0.000637179
-8.04716e-05
-0.000603726
-8.09197e-05
-0.000569873
-8.08015e-05
-0.000535689
-8.03004e-05
-0.000501324
-7.96288e-05
-0.000466925
-7.91025e-05
-0.000432563
-7.88527e-05
-0.00039829
-7.86194e-05
-0.000364208
-7.80266e-05
-0.000330455
-7.69095e-05
-0.000297182
-7.51756e-05
-0.00026458
-7.25042e-05
-0.000232922
-6.84608e-05
-0.000202525
-6.2896e-05
-0.000173662
-5.60534e-05
-0.000146552
-4.82812e-05
-0.000121425
-3.9814e-05
-9.85709e-05
-3.09135e-05
-7.82658e-05
-2.20353e-05
-6.06692e-05
-1.36754e-05
-4.57978e-05
-6.0849e-06
-3.36205e-05
8.25064e-07
-2.41663e-05
7.32296e-06
-1.74886e-05
1.35593e-05
-1.34819e-05
1.93725e-05
-1.17999e-05
2.43947e-05
-1.20336e-05
2.84303e-05
-1.3633e-05
3.13486e-05
-1.54473e-05
3.21593e-05
-1.65512e-05
2.99151e-05
-1.4199e-05
2.26567e-05
-6.92553e-06
1.04369e-05
2.53315e-06
0.000130316
-0.000288401
0.000262558
-0.000207893
0.000309589
0.000111961
0.000298976
0.000302203
0.000255768
0.00037664
0.000192426
0.000386227
0.000117358
0.000360331
3.55583e-05
0.000317659
-4.89629e-05
0.000269105
-0.000133485
0.000221983
-0.000215668
0.00017954
-0.000294278
0.000143882
-0.000368441
0.000114894
-0.000437652
9.18411e-05
-0.000502301
7.40185e-05
-0.000562329
6.04061e-05
-0.000618166
4.98792e-05
-0.000670369
4.22582e-05
-0.000719323
3.66449e-05
-0.000765248
3.26735e-05
-0.000808448
3.02328e-05
-0.000848937
2.90334e-05
-0.000887054
2.90474e-05
-0.000922963
3.00176e-05
-0.000956782
3.15858e-05
-0.000988802
3.35942e-05
-0.00101913
3.58035e-05
-0.0010478
3.78478e-05
-0.00107498
3.94759e-05
-0.00110099
4.06373e-05
-0.00112602
4.11914e-05
-0.00115009
4.10671e-05
-0.00117316
4.04645e-05
-0.00119518
3.94879e-05
-0.00121594
3.80194e-05
-0.00123528
3.59465e-05
-0.00125314
3.31367e-05
-0.00126949
2.94659e-05
-0.00128432
2.4917e-05
-0.0012977
1.95877e-05
-0.00130961
1.37276e-05
-0.00131998
7.75222e-06
-0.00132874
2.08167e-06
-0.00133574
-3.04252e-06
-0.0013408
-7.53495e-06
-0.00134381
-1.13732e-05
-0.00134482
-1.47167e-05
-0.00134388
-1.79686e-05
-0.00134103
-2.14683e-05
-0.00133637
-2.52199e-05
-0.00133007
-2.90845e-05
-0.00132209
-3.30428e-05
-0.00131215
-3.72011e-05
-0.00130012
-4.1677e-05
-0.00128614
-4.66303e-05
-0.00127031
-5.23089e-05
-0.00125257
-5.88828e-05
-0.00123305
-6.61924e-05
-0.00121198
-7.37563e-05
-0.00118927
-8.10454e-05
-0.00116465
-8.7676e-05
-0.00113799
-9.34264e-05
-0.00110942
-9.83105e-05
-0.00107907
-0.000102632
-0.0010471
-0.000106699
-0.00101385
-0.000110437
-0.000979581
-0.000113488
-0.000944381
-0.000115672
-0.000908188
-0.000117113
-0.000871036
-0.000117952
-0.000833088
-0.000118249
-0.000794517
-0.0001182
-0.000755476
-0.000118143
-0.000716119
-0.000118209
-0.00067659
-0.000118149
-0.000636993
-0.000117624
-0.000597426
-0.000116476
-0.000558008
-0.000114594
-0.000518825
-0.000111688
-0.000479905
-0.000107381
-0.00044131
-0.000101491
-0.000403236
-9.41271e-05
-0.000365959
-8.55581e-05
-0.000329705
-7.60684e-05
-0.000294654
-6.59647e-05
-0.000261083
-5.56056e-05
-0.000229432
-4.53267e-05
-0.000200164
-3.53529e-05
-0.00017359
-2.5749e-05
-0.000149843
-1.6424e-05
-0.000128941
-7.34229e-06
-0.000110801
1.23223e-06
-9.53161e-05
8.90992e-06
-8.23553e-05
1.54696e-05
-7.12809e-05
2.02742e-05
-6.08271e-05
2.17056e-05
-4.94314e-05
1.85195e-05
-3.44996e-05
7.72492e-06
-1.49325e-05
-9.13025e-06
-1.23993e-05
0.000126034
-0.000414435
0.000266076
-0.000347936
0.000330435
4.76022e-05
0.000340848
0.00029179
0.000317963
0.000399525
0.000272463
0.000431728
0.00021038
0.000422414
0.000136643
0.000391396
5.42957e-05
0.000351452
-3.25318e-05
0.00030881
-0.000121755
0.000268764
-0.000210774
0.000232902
-0.000297997
0.000202117
-0.000382584
0.000176428
-0.000463765
0.000155199
-0.000541007
0.000137648
-0.000614736
0.000123608
-0.000684472
0.000111995
-0.000750613
0.000102786
-0.000813381
9.54414e-05
-0.000872934
8.97864e-05
-0.000929285
8.53844e-05
-0.000982457
8.22186e-05
-0.00103257
8.01268e-05
-0.00107986
7.88791e-05
-0.0011245
7.82348e-05
-0.00116654
7.78424e-05
-0.00120619
7.75015e-05
-0.00124374
7.70199e-05
-0.00127927
7.61716e-05
-0.00131294
7.48633e-05
-0.00134497
7.30924e-05
-0.0013754
7.08974e-05
-0.00140417
6.82594e-05
-0.00143117
6.50178e-05
-0.00145631
6.10852e-05
-0.00147964
5.64637e-05
-0.0015012
5.10258e-05
-0.00152094
4.46625e-05
-0.00153895
3.75913e-05
-0.00155536
3.01425e-05
-0.00157015
2.25395e-05
-0.00158307
1.50038e-05
-0.00159391
7.80173e-06
-0.00160261
1.16403e-06
-0.00160909
-4.9005e-06
-0.00161313
-1.06774e-05
-0.00161468
-1.64109e-05
-0.00161401
-2.21437e-05
-0.00161124
-2.79826e-05
-0.00160627
-3.40557e-05
-0.00159904
-4.02785e-05
-0.00158962
-4.66196e-05
-0.00157797
-5.33272e-05
-0.001564
-6.06041e-05
-0.00154785
-6.84581e-05
-0.00152978
-7.69502e-05
-0.00150988
-8.60957e-05
-0.00148812
-9.55126e-05
-0.00146455
-0.000104615
-0.00143914
-0.000113087
-0.00141169
-0.000120877
-0.00138206
-0.000127938
-0.00135039
-0.000134299
-0.00131696
-0.000140128
-0.00128195
-0.000145445
-0.00124544
-0.00015
-0.00120751
-0.000153606
-0.00116824
-0.000156381
-0.00112768
-0.000158517
-0.00108585
-0.000160075
-0.0010429
-0.000161144
-0.00099908
-0.000161968
-0.000954588
-0.0001627
-0.000909569
-0.000163168
-0.000864137
-0.000163057
-0.000818408
-0.000162205
-0.00077246
-0.000160542
-0.000726319
-0.000157829
-0.000680015
-0.000153684
-0.000633626
-0.00014788
-0.000587251
-0.000140502
-0.000541006
-0.000131803
-0.000495091
-0.000121984
-0.000449865
-0.000111191
-0.00040579
-9.96803e-05
-0.000363287
-8.78291e-05
-0.000322703
-7.59378e-05
-0.000284408
-6.40435e-05
-0.000248842
-5.199e-05
-0.000216334
-3.985e-05
-0.000186929
-2.8173e-05
-0.00016051
-1.75093e-05
-0.000136811
-8.2292e-06
-0.00011506
-1.47674e-06
-9.45285e-05
1.17364e-06
-7.34286e-05
-2.58031e-06
-4.93952e-05
-1.63086e-05
-2.01609e-05
-3.83644e-05
-3.25603e-05
0.00010686
-0.000521294
0.000233429
-0.000474505
0.000300772
-1.97409e-05
0.000322041
0.000270521
0.000311372
0.000410194
0.000277484
0.000465616
0.000225561
0.000474337
0.000158907
0.00045805
8.16844e-05
0.000428674
-3.82053e-06
0.000394315
-9.41745e-05
0.000359117
-0.000187058
0.000325785
-0.000280535
0.000295595
-0.00037296
0.000268853
-0.000463424
0.000245664
-0.000551352
0.000225575
-0.000636007
0.000208264
-0.000717385
0.000193372
-0.000795291
0.000180693
-0.000869755
0.000169905
-0.000940704
0.000160736
-0.00100835
0.000153031
-0.00107271
0.000146578
-0.00113371
0.000141125
-0.0011914
0.000136572
-0.00124594
0.000132776
-0.00129749
0.000129391
-0.00134619
0.000126199
-0.00139222
0.000123055
-0.00143574
0.000119685
-0.00147688
0.000116004
-0.00151584
0.000112053
-0.00155263
0.000107688
-0.00158716
0.000102792
-0.00161953
9.73853e-05
-0.00164982
9.13736e-05
-0.00167794
8.4583e-05
-0.00170388
7.69659e-05
-0.00172782
6.86036e-05
-0.0017499
5.967e-05
-0.00177005
5.02899e-05
-0.00178814
4.0637e-05
-0.0018042
3.10619e-05
-0.00181815
2.17554e-05
-0.0018297
1.27118e-05
-0.00183863
4.02666e-06
-0.00184498
-4.32836e-06
-0.00184876
-1.26333e-05
-0.00184988
-2.10183e-05
-0.00184843
-2.94306e-05
-0.00184456
-3.7931e-05
-0.00183821
-4.66285e-05
-0.00182927
-5.55621e-05
-0.00181778
-6.48129e-05
-0.00180389
-7.44947e-05
-0.00178768
-8.46705e-05
-0.00176923
-9.53998e-05
-0.00174869
-0.000106638
-0.00172617
-0.000118028
-0.00170169
-0.00012909
-0.00167517
-0.000139608
-0.00164648
-0.000149567
-0.00161556
-0.000158867
-0.00158245
-0.000167405
-0.00154732
-0.000175259
-0.00151029
-0.000182472
-0.00147144
-0.000188854
-0.00143082
-0.000194228
-0.00138849
-0.000198712
-0.00134449
-0.000202512
-0.0012989
-0.00020567
-0.00125184
-0.000208197
-0.00120354
-0.000210273
-0.00115418
-0.000212064
-0.0011039
-0.000213439
-0.00105287
-0.000214092
-0.00100122
-0.000213857
-0.000949048
-0.000212712
-0.000896379
-0.000210497
-0.000843222
-0.000206841
-0.000789647
-0.000201455
-0.000735788
-0.000194361
-0.000681804
-0.000185787
-0.00062789
-0.000175898
-0.000574338
-0.000164744
-0.000521563
-0.000152455
-0.000470042
-0.00013935
-0.000420266
-0.000125714
-0.000372743
-0.000111566
-0.000327924
-9.68089e-05
-0.00028605
-8.17245e-05
-0.000247213
-6.70094e-05
-0.000211541
-5.31816e-05
-0.000178946
-4.08243e-05
-0.000148844
-3.15787e-05
-0.000120336
-2.73342e-05
-9.14118e-05
-3.15047e-05
-5.97863e-05
-4.79338e-05
-2.35628e-05
-7.45879e-05
-5.61231e-05
8.0206e-05
-0.0006015
0.000183734
-0.000578033
0.000245865
-8.18717e-05
0.000271239
0.000245146
0.000268531
0.000412903
0.000243094
0.000491053
0.000199141
0.00051829
0.000139901
0.00051729
6.78139e-05
0.000500761
-1.38082e-05
0.000475937
-0.000102446
0.000447756
-0.000195601
0.000418939
-0.00029108
0.000391074
-0.000387294
0.000365066
-0.000482606
0.000340976
-0.000576472
0.000319442
-0.000668071
0.000299863
-0.000757087
0.000282388
-0.00084296
0.000266565
-0.000925621
0.000252567
-0.00100501
0.000240128
-0.00108105
0.000229068
-0.00115365
0.000219175
-0.00122291
0.000210389
-0.00128885
0.000202514
-0.00135141
0.000195329
-0.0014107
0.000188678
-0.00146684
0.00018234
-0.00151995
0.000176164
-0.00157023
0.000169974
-0.00161779
0.000163565
-0.00166264
0.000156899
-0.0017049
0.000149951
-0.00174468
0.000142564
-0.0017819
0.000134613
-0.00181657
0.000126041
-0.00184882
0.000116837
-0.00187881
0.000106947
-0.0019065
9.62936e-05
-0.00193189
8.50636e-05
-0.00195513
7.35276e-05
-0.00197622
6.17274e-05
-0.00199493
4.97773e-05
-0.00201115
3.79688e-05
-0.00202488
2.64421e-05
-0.00203598
1.51291e-05
-0.00204421
3.89915e-06
-0.00204953
-7.306e-06
-0.0020521
-1.84488e-05
-0.00205195
-2.9587e-05
-0.00204898
-4.0896e-05
-0.0020432
-5.24133e-05
-0.00203468
-6.40766e-05
-0.00202351
-7.59865e-05
-0.00200969
-8.83158e-05
-0.00199328
-0.000101082
-0.00197443
-0.000114242
-0.00195333
-0.000127746
-0.00193003
-0.000141329
-0.00190454
-0.000154578
-0.00187683
-0.00016731
-0.00184684
-0.000179564
-0.00181447
-0.000191235
-0.00177977
-0.000202109
-0.00174286
-0.000212168
-0.00170383
-0.000221505
-0.00166267
-0.000230008
-0.00161942
-0.000237479
-0.00157417
-0.000243963
-0.001527
-0.000249682
-0.00147794
-0.000254723
-0.00142709
-0.000259048
-0.00137464
-0.000262725
-0.00132083
-0.000265877
-0.00126583
-0.000268432
-0.00120978
-0.000270151
-0.00115275
-0.000270878
-0.00109489
-0.000270578
-0.00103628
-0.000269101
-0.000977024
-0.000266101
-0.000917181
-0.000261298
-0.000856839
-0.000254702
-0.00079614
-0.000246486
-0.000735328
-0.00023671
-0.000674763
-0.000225308
-0.000614865
-0.000212353
-0.000556059
-0.000198156
-0.000498817
-0.000182957
-0.000443679
-0.000166704
-0.000391118
-0.000149369
-0.00034144
-0.000131402
-0.000294932
-0.000113518
-0.000251846
-9.62673e-05
-0.000212013
-8.06574e-05
-0.000174973
-6.86184e-05
-0.000139759
-6.25484e-05
-0.000104813
-6.64506e-05
-6.73899e-05
-8.53566e-05
-2.61692e-05
-0.000115809
-8.22921e-05
5.31382e-05
-0.000654638
0.000128941
-0.000653836
0.00018151
-0.000134441
0.00020712
0.000219537
0.000208752
0.00041127
0.000189885
0.00050992
0.000152309
0.000555866
9.91251e-05
0.000570474
3.2758e-05
0.000567128
-4.44802e-05
0.000553175
-0.000129981
0.000533257
-0.000221355
0.000510313
-0.000316535
0.000486255
-0.000413642
0.000462172
-0.000511474
0.000438807
-0.000608565
0.000416532
-0.000704306
0.000395603
-0.000797997
0.00037608
-0.00088938
0.000357948
-0.000977952
0.000341139
-0.00106344
0.000325616
-0.00114574
0.000311364
-0.00122477
0.000298205
-0.0013005
0.000286118
-0.00137287
0.000274888
-0.00144181
0.000264265
-0.00150739
0.000254268
-0.00156978
0.000244723
-0.00162891
0.000235292
-0.00168481
0.000225882
-0.00173775
0.000216499
-0.00178783
0.000206981
-0.00183497
0.000197094
-0.00187917
0.000186764
-0.00192062
0.000176065
-0.00195944
0.000164853
-0.0019955
0.000152902
-0.00202884
0.000140285
-0.00205973
0.000127181
-0.00208827
0.000113604
-0.00211427
9.95329e-05
-0.00213767
8.51285e-05
-0.00215859
7.06966e-05
-0.00217698
5.63528e-05
-0.00219256
4.20277e-05
-0.00220519
2.77596e-05
-0.00221489
1.35979e-05
-0.00222167
-5.30544e-07
-0.00222545
-1.46685e-05
-0.00222619
-2.88419e-05
-0.00222394
-4.31511e-05
-0.00221874
-5.76161e-05
-0.00221062
-7.21886e-05
-0.00219964
-8.6973e-05
-0.00218581
-0.000102144
-0.00216921
-0.000117678
-0.00215
-0.000133456
-0.00212832
-0.000149426
-0.00210424
-0.00016541
-0.00207776
-0.00018106
-0.00204887
-0.000196198
-0.00201754
-0.000210888
-0.00198373
-0.00022505
-0.00194743
-0.000238406
-0.00190874
-0.00025086
-0.00186772
-0.000262526
-0.00182436
-0.000273365
-0.00177868
-0.000283165
-0.00173074
-0.000291898
-0.00168065
-0.000299778
-0.00162843
-0.000306939
-0.00157416
-0.000313317
-0.00151802
-0.000318865
-0.00146025
-0.000323645
-0.00140104
-0.000327641
-0.00134051
-0.000330687
-0.00127875
-0.000332637
-0.0012159
-0.000333423
-0.00115211
-0.000332892
-0.00108749
-0.000330729
-0.00102211
-0.000326678
-0.000956084
-0.000320724
-0.000889611
-0.000312959
-0.000822963
-0.000303357
-0.00075647
-0.000291802
-0.000690498
-0.000278325
-0.000625482
-0.000263171
-0.000561954
-0.000246485
-0.000500492
-0.000228167
-0.000441557
-0.000208304
-0.000385493
-0.000187467
-0.000332683
-0.000166328
-0.000283468
-0.000145482
-0.000237734
-0.000126391
-0.000195162
-0.00011119
-0.000154735
-0.000102976
-0.000115059
-0.000106126
-7.31017e-05
-0.000127314
-2.82974e-05
-0.000160613
-0.00011059
2.89129e-05
-0.000683551
7.79824e-05
-0.000702905
0.000117996
-0.000174455
0.00014051
0.000197023
0.000144338
0.000407443
0.000129041
0.000525217
9.67414e-05
0.000588165
4.86404e-05
0.000618575
-1.28869e-05
0.000628656
-8.57351e-05
0.000626024
-0.000167573
0.000615094
-0.000256281
0.000599022
-0.000349914
0.000579887
-0.000446596
0.000558854
-0.000545009
0.000537221
-0.000643635
0.000515158
-0.000741802
0.00049377
-0.000838572
0.00047285
-0.000933479
0.000452854
-0.00102608
0.000433745
-0.00111605
0.000415577
-0.00120311
0.000398432
-0.00128714
0.00038223
-0.00136787
0.00036685
-0.00144528
0.000352295
-0.00151946
0.000338453
-0.00159029
0.000325094
-0.00165764
0.000312071
-0.00172168
0.000299336
-0.00178258
0.000286781
-0.00184024
0.000274159
-0.0018946
0.000261342
-0.00194588
0.000248375
-0.00199425
0.000235135
-0.00203957
0.000221385
-0.00208178
0.000207058
-0.00212113
0.000192254
-0.00215779
0.000176948
-0.00219165
0.000161034
-0.00222266
0.000144612
-0.00225098
0.000127855
-0.00227667
0.000110821
-0.00229959
9.36208e-05
-0.00231962
7.63739e-05
-0.00233668
5.90966e-05
-0.00235076
4.18322e-05
-0.00236176
2.45959e-05
-0.00236961
7.32147e-06
-0.00237429
-9.98914e-06
-0.00237581
-2.73179e-05
-0.0023742
-4.47612e-05
-0.00236946
-6.23549e-05
-0.00236163
-8.00235e-05
-0.00235076
-9.7837e-05
-0.00233691
-0.000115994
-0.00232012
-0.000134472
-0.00230052
-0.000153059
-0.00227827
-0.000171668
-0.00225346
-0.000190229
-0.00222603
-0.000208487
-0.00219599
-0.000226238
-0.00216336
-0.000243511
-0.00212815
-0.000260265
-0.00209032
-0.000276233
-0.00204992
-0.000291264
-0.00200699
-0.000305455
-0.00196155
-0.000318805
-0.00191361
-0.000331103
-0.00186323
-0.000342276
-0.00181048
-0.00035253
-0.0017554
-0.00036202
-0.00169807
-0.000370644
-0.00163867
-0.000378261
-0.00157744
-0.000384884
-0.00151453
-0.00039055
-0.00145005
-0.000395166
-0.00138411
-0.000398575
-0.00131688
-0.00040065
-0.00124855
-0.000401228
-0.00117923
-0.00040005
-0.00110901
-0.000396893
-0.00103803
-0.000391704
-0.000966505
-0.000384485
-0.000894739
-0.000375123
-0.000823073
-0.000363468
-0.000751866
-0.000349531
-0.000681573
-0.000333464
-0.000612768
-0.000315291
-0.00054602
-0.000294914
-0.000481755
-0.000272569
-0.000420392
-0.000248829
-0.000362475
-0.000224246
-0.000308316
-0.000199641
-0.000257838
-0.00017687
-0.00021071
-0.000158318
-0.000166069
-0.000147617
-0.000122546
-0.000149649
-7.72206e-05
-0.00017264
-2.98129e-05
-0.000208021
-0.000140403
8.97793e-06
-0.000692529
3.41419e-05
-0.000728069
6.10484e-05
-0.000201361
7.84383e-05
0.000179633
8.1072e-05
0.00040481
6.79557e-05
0.000538333
3.86738e-05
0.000617447
-5.44124e-06
0.00066269
-6.28668e-05
0.000686082
-0.000131781
0.000694938
-0.000210228
0.000693542
-0.000296202
0.000684996
-0.000387659
0.000671343
-0.000483149
0.000654345
-0.000581008
0.000635079
-0.000680256
0.000614406
-0.000779531
0.000593045
-0.000878155
0.000571473
-0.000975383
0.000550082
-0.00107082
0.000529183
-0.00116403
0.000508786
-0.00125455
0.000488954
-0.00134228
0.000469951
-0.00142708
0.000451654
-0.00150866
0.000433881
-0.00158689
0.000416677
-0.00166183
0.000400037
-0.00173353
0.000383771
-0.00180184
0.000367643
-0.00186666
0.000351607
-0.0019282
0.000335695
-0.00198658
0.000319726
-0.00204166
0.000303447
-0.00209335
0.000286835
-0.00214191
0.000269942
-0.00218745
0.000252597
-0.00222987
0.000234675
-0.00226918
0.000216252
-0.00230551
0.000197372
-0.00233896
0.000178057
-0.00236946
0.000158356
-0.00239698
0.000138339
-0.00242152
0.000118167
-0.00244307
9.7918e-05
-0.00246151
7.75364e-05
-0.00247675
5.70698e-05
-0.00248875
3.66005e-05
-0.00249751
1.6081e-05
-0.00250298
-4.5213e-06
-0.00250513
-2.51666e-05
-0.002504
-4.58871e-05
-0.00249963
-6.67228e-05
-0.00249204
-8.76207e-05
-0.00248124
-0.00010863
-0.00246731
-0.00012993
-0.0024503
-0.000151484
-0.00243034
-0.000173019
-0.00240757
-0.000194435
-0.00238203
-0.000215767
-0.00235369
-0.000236829
-0.00232257
-0.000257357
-0.00228874
-0.000277341
-0.0022522
-0.000296807
-0.00221289
-0.000315538
-0.00217084
-0.000333317
-0.00212612
-0.00035018
-0.00207876
-0.000366164
-0.00202876
-0.000381105
-0.00197613
-0.000394906
-0.00192093
-0.000407724
-0.00186326
-0.000419698
-0.0018032
-0.0004307
-0.00174093
-0.000440535
-0.00167662
-0.000449192
-0.00161042
-0.000456747
-0.00154244
-0.000463145
-0.00147282
-0.0004682
-0.00140174
-0.00047173
-0.00132939
-0.000473571
-0.00125592
-0.000473524
-0.00118142
-0.000471395
-0.00110606
-0.000467066
-0.00103011
-0.000460435
-0.000953892
-0.000451337
-0.000877739
-0.000439622
-0.000802009
-0.000425261
-0.000727202
-0.000408271
-0.00065392
-0.000388572
-0.000582691
-0.000366144
-0.000513956
-0.000341304
-0.000448184
-0.000314602
-0.000385952
-0.000286478
-0.000327539
-0.000258053
-0.000273011
-0.000231398
-0.000222064
-0.000209265
-0.000174067
-0.000195613
-0.000127509
-0.000196208
-7.98766e-05
-0.000220272
-3.0575e-05
-0.000257322
-0.000170978
-6.12866e-06
-0.000686401
-1.26464e-06
-0.000732933
1.27001e-05
-0.000215326
2.33132e-05
0.00016902
2.35308e-05
0.000404592
1.00821e-05
0.000551782
-1.77078e-05
0.000645237
-5.94318e-05
0.000704414
-0.000113999
0.000740649
-0.000179802
0.000760741
-0.000255221
0.000768961
-0.000338474
0.000768249
-0.000427852
0.000760721
-0.000521851
0.000748343
-0.000618801
0.00073203
-0.000717709
0.000713314
-0.00081731
0.000692646
-0.000916989
0.000671151
-0.00101581
0.000648904
-0.00111304
0.000626413
-0.00120843
0.000604178
-0.00130174
0.000582262
-0.00139241
0.000560622
-0.00148011
0.000539354
-0.00156489
0.000518656
-0.00164669
0.000498478
-0.00172517
0.000478522
-0.00180015
0.000458752
-0.00187184
0.000439332
-0.00194033
0.000420095
-0.00200536
0.000400722
-0.00206684
0.00038121
-0.00212501
0.000361617
-0.00217995
0.000341777
-0.00223152
0.000321513
-0.00227971
0.00030078
-0.00232466
0.00027963
-0.00236649
0.000258077
-0.00240514
0.000236023
-0.00244059
0.000213504
-0.00247289
0.000190659
-0.0025021
0.000167548
-0.00252816
0.000144231
-0.00255099
0.000120745
-0.00257053
9.70792e-05
-0.00258678
7.33138e-05
-0.00259969
4.95149e-05
-0.00260921
2.56043e-05
-0.00261529
1.55553e-06
-0.00261794
-2.25145e-05
-0.00261724
-4.65892e-05
-0.00261319
-7.07758e-05
-0.00260574
-9.50642e-05
-0.00259495
-0.000119421
-0.00258091
-0.000143967
-0.00256371
-0.000168692
-0.0025434
-0.000193326
-0.0025201
-0.000217735
-0.00249386
-0.000242002
-0.00246468
-0.000266012
-0.00243257
-0.00028947
-0.00239759
-0.000312317
-0.00235977
-0.00033463
-0.00231905
-0.000356252
-0.00227545
-0.000376916
-0.00222905
-0.000396586
-0.00217989
-0.000415325
-0.00212795
-0.000433043
-0.00207323
-0.000449628
-0.00201579
-0.000465158
-0.00195576
-0.000479729
-0.00189325
-0.000493214
-0.00182838
-0.000505402
-0.00176131
-0.000516263
-0.00169216
-0.000525891
-0.00162106
-0.000534246
-0.00154816
-0.000541104
-0.00147366
-0.000546228
-0.00139776
-0.000549469
-0.0013206
-0.000550684
-0.00124232
-0.000549683
-0.00116311
-0.00054627
-0.00108329
-0.000540255
-0.00100319
-0.000531438
-0.000923128
-0.000519684
-0.000843474
-0.000504915
-0.000764746
-0.000487
-0.000687551
-0.000465767
-0.000612391
-0.000441303
-0.000539684
-0.000414011
-0.000470006
-0.000384279
-0.000403958
-0.000352525
-0.000341878
-0.000320133
-0.000283908
-0.000289369
-0.000229846
-0.000263326
-0.000179177
-0.000246283
-0.0001303
-0.000245084
-8.1114e-05
-0.000269458
-3.0659e-05
-0.000307777
-0.000201637
-1.72736e-05
-0.000669127
-2.88123e-05
-0.000721394
-2.67113e-05
-0.000217426
-2.33421e-05
0.000165651
-2.73535e-05
0.000408604
-4.26284e-05
0.000567057
-7.05107e-05
0.00067312
-0.000111253
0.000745157
-0.000164102
0.000793498
-0.000227733
0.000824371
-0.000300861
0.000842089
-0.000381935
0.000849323
-0.000469499
0.000848285
-0.000561739
0.000840583
-0.000657673
0.000827963
-0.000755994
0.000811635
-0.000855683
0.000792335
-0.000955527
0.000770996
-0.00105509
0.000748463
-0.00115383
0.000725154
-0.00125097
0.000701318
-0.00134599
0.000677281
-0.00143873
0.000653363
-0.00152907
0.000629701
-0.00161659
0.000606167
-0.00170088
0.000582773
-0.00178205
0.000559692
-0.00186016
0.000536859
-0.0019349
0.000514072
-0.00200609
0.000491285
-0.00207387
0.000468508
-0.00213834
0.000445673
-0.00219935
0.00042263
-0.00225683
0.000399254
-0.00231085
0.000375537
-0.00236152
0.00035145
-0.00240883
0.000326943
-0.00245275
0.000301993
-0.0024933
0.000276572
-0.00253055
0.00025076
-0.00256454
0.000224649
-0.00259522
0.000198228
-0.00262254
0.000171553
-0.00264649
0.000144696
-0.00266707
0.000117652
-0.0026842
9.04528e-05
-0.00269785
6.31624e-05
-0.00270799
3.57415e-05
-0.00271461
8.17379e-06
-0.00271772
-1.94044e-05
-0.00271735
-4.69532e-05
-0.00271351
-7.46204e-05
-0.00270615
-0.000102418
-0.00269535
-0.000130224
-0.00268121
-0.000158106
-0.00266379
-0.000186115
-0.00264312
-0.000214
-0.00261928
-0.000241567
-0.00259238
-0.000268907
-0.0025624
-0.000295987
-0.00252935
-0.000322522
-0.00249327
-0.000348394
-0.00245421
-0.000373694
-0.00241215
-0.000398315
-0.00236709
-0.000421974
-0.0023191
-0.00044458
-0.00226821
-0.00046621
-0.00221443
-0.000486821
-0.00215777
-0.000506294
-0.00209828
-0.000524647
-0.00203608
-0.000541923
-0.00197131
-0.000557984
-0.00190409
-0.000572628
-0.00183451
-0.00058584
-0.00176269
-0.000597707
-0.00168877
-0.000608164
-0.00161294
-0.000616941
-0.00153539
-0.000623774
-0.00145633
-0.000628529
-0.0013759
-0.000631115
-0.00129425
-0.000631334
-0.00121163
-0.000628891
-0.00112837
-0.000623516
-0.00104479
-0.000615019
-0.000961197
-0.000603273
-0.000877995
-0.000588117
-0.000795738
-0.000569257
-0.000714978