/*--------------------------------*- C++ -*----------------------------------*\
  =========                 |
  \\      /  F ield         | OpenFOAM: The Open Source CFD Toolbox
   \\    /   O peration     | Website:  https://openfoam.org
    \\  /    A nd           | Version:  11
     \\/     M anipulation  |
\*---------------------------------------------------------------------------*/
FoamFile
{
    format      ascii;
    class       volVectorField;
    location    "0.5";
    object      U;
}
// * * * * * * * * * * * * * * * * * * * * * * * * * * * * * * * * * * * * * //

dimensions      [0 1 -1 0 0 0 0];

internalField   nonuniform List<vector> 
10100
(
(9.18724e-05 3.52204e-05 0)
(-1.09469e-05 0.00032425 0)
(-0.000614377 0.000680409 0)
(-0.00168446 0.000845132 0)
(-0.00288493 0.000839545 0)
(-0.00398725 0.00073747 0)
(-0.00488974 0.000579323 0)
(-0.00555457 0.000414921 0)
(-0.00598131 0.00025527 0)
(-0.00620739 0.000124258 0)
(-0.00626979 1.50652e-05 0)
(-0.00621417 -5.93018e-05 0)
(-0.00607562 -0.000112884 0)
(-0.00588922 -0.00015259 0)
(-0.00566237 -0.000174057 0)
(-0.00542373 -0.000183258 0)
(-0.00518365 -0.000184774 0)
(-0.00493496 -0.000181494 0)
(-0.00469584 -0.000183429 0)
(-0.0044657 -0.000185837 0)
(-0.00424236 -0.000178844 0)
(-0.00403974 -0.000166261 0)
(-0.00385876 -0.000151424 0)
(-0.00369509 -0.000134715 0)
(-0.00355514 -0.000120449 0)
(-0.00344078 -0.000108806 0)
(-0.00334817 -9.4183e-05 0)
(-0.00327681 -7.58995e-05 0)
(-0.00322727 -5.98868e-05 0)
(-0.00319285 -4.92983e-05 0)
(-0.00316653 -4.26674e-05 0)
(-0.00314634 -3.94216e-05 0)
(-0.00313183 -3.83941e-05 0)
(-0.00312072 -3.72625e-05 0)
(-0.00311119 -3.42411e-05 0)
(-0.00310549 -2.96328e-05 0)
(-0.00310304 -2.66978e-05 0)
(-0.00309907 -2.6729e-05 0)
(-0.00309036 -2.82205e-05 0)
(-0.00307328 -3.19605e-05 0)
(-0.00304494 -3.81262e-05 0)
(-0.00300487 -4.40031e-05 0)
(-0.00295236 -4.77419e-05 0)
(-0.00289094 -4.81579e-05 0)
(-0.00282736 -4.55765e-05 0)
(-0.00276425 -4.25348e-05 0)
(-0.00270386 -3.90257e-05 0)
(-0.00264836 -3.42425e-05 0)
(-0.00259479 -3.0962e-05 0)
(-0.00254059 -3.05284e-05 0)
(-0.00248563 -3.07383e-05 0)
(-0.00242741 -3.09624e-05 0)
(-0.00236586 -3.13135e-05 0)
(-0.0023052 -3.08161e-05 0)
(-0.00224501 -3.08364e-05 0)
(-0.00217967 -3.39389e-05 0)
(-0.00210518 -3.98083e-05 0)
(-0.00201774 -4.75057e-05 0)
(-0.00191222 -5.73152e-05 0)
(-0.00178819 -6.72633e-05 0)
(-0.00165121 -7.35429e-05 0)
(-0.00150665 -7.5424e-05 0)
(-0.00135765 -7.52064e-05 0)
(-0.00120679 -7.47801e-05 0)
(-0.00105435 -7.56281e-05 0)
(-0.000897194 -7.91722e-05 0)
(-0.000732834 -8.43935e-05 0)
(-0.000562899 -8.80844e-05 0)
(-0.000391383 -8.883e-05 0)
(-0.000221804 -8.79269e-05 0)
(-5.65841e-05 -8.63321e-05 0)
(0.000103424 -8.41109e-05 0)
(0.000259654 -8.24494e-05 0)
(0.000414439 -8.27462e-05 0)
(0.000568596 -8.37918e-05 0)
(0.000721439 -8.29704e-05 0)
(0.000872397 -7.99413e-05 0)
(0.00102063 -7.62052e-05 0)
(0.00116297 -7.12639e-05 0)
(0.00129361 -6.23767e-05 0)
(0.00140656 -4.87515e-05 0)
(0.00149762 -3.32716e-05 0)
(0.00156385 -1.83065e-05 0)
(0.00160228 -2.60795e-06 0)
(0.00161074 1.54473e-05 0)
(0.00159002 3.36771e-05 0)
(0.00154417 4.7723e-05 0)
(0.00147833 5.62032e-05 0)
(0.00139621 6.22377e-05 0)
(0.00129954 6.91085e-05 0)
(0.00119002 7.64476e-05 0)
(0.00107012 8.24084e-05 0)
(0.000941429 8.65255e-05 0)
(0.000804265 8.90326e-05 0)
(0.000659864 9.06187e-05 0)
(0.000512157 9.24632e-05 0)
(0.00036428 9.16776e-05 0)
(0.000223909 8.14661e-05 0)
(0.000103337 7.00926e-05 0)
(3.22511e-05 3.80337e-05 0)
(0.000435459 -0.00019089 0)
(0.00072233 0.00039369 0)
(0.000390295 0.00138812 0)
(-0.000655517 0.00190332 0)
(-0.00200905 0.00193321 0)
(-0.00338391 0.00171874 0)
(-0.00463198 0.00136361 0)
(-0.00566959 0.000978857 0)
(-0.00647895 0.000617715 0)
(-0.00706758 0.000303688 0)
(-0.00747093 6.43449e-05 0)
(-0.0077171 -0.000112652 0)
(-0.00784775 -0.000233145 0)
(-0.00788109 -0.000310722 0)
(-0.00786261 -0.00035936 0)
(-0.00780472 -0.000386969 0)
(-0.00771166 -0.000389256 0)
(-0.0076119 -0.00038607 0)
(-0.00750036 -0.000375533 0)
(-0.00737715 -0.000362226 0)
(-0.00726288 -0.000342905 0)
(-0.00715679 -0.000316014 0)
(-0.00705894 -0.000281519 0)
(-0.0069782 -0.000242631 0)
(-0.00691276 -0.000204434 0)
(-0.00686367 -0.000168735 0)
(-0.00683663 -0.00013286 0)
(-0.00683014 -9.82935e-05 0)
(-0.00683953 -6.86243e-05 0)
(-0.00686165 -4.64325e-05 0)
(-0.00689453 -3.10311e-05 0)
(-0.00693458 -2.15639e-05 0)
(-0.00697723 -1.66504e-05 0)
(-0.00702193 -1.17531e-05 0)
(-0.00706905 -5.96215e-06 0)
(-0.00711561 -1.98413e-06 0)
(-0.0071593 -1.24582e-06 0)
(-0.00719806 -5.78172e-06 0)
(-0.00722727 -1.63127e-05 0)
(-0.00724365 -3.22087e-05 0)
(-0.00724491 -5.3311e-05 0)
(-0.00722844 -7.52199e-05 0)
(-0.00719595 -9.19461e-05 0)
(-0.00714998 -0.000102299 0)
(-0.00709166 -0.000106282 0)
(-0.00702637 -0.000104135 0)
(-0.00695739 -9.93166e-05 0)
(-0.00688226 -9.54833e-05 0)
(-0.00680353 -9.47501e-05 0)
(-0.00672417 -9.85805e-05 0)
(-0.00663864 -0.000105346 0)
(-0.00654498 -0.000110816 0)
(-0.00644624 -0.000113352 0)
(-0.00633741 -0.000115784 0)
(-0.00621389 -0.00012221 0)
(-0.00607972 -0.000134919 0)
(-0.0059317 -0.000154651 0)
(-0.0057591 -0.000181507 0)
(-0.00556387 -0.000212761 0)
(-0.00535448 -0.000241459 0)
(-0.00512667 -0.000261173 0)
(-0.0048748 -0.000271383 0)
(-0.00460786 -0.000276197 0)
(-0.00433475 -0.000280188 0)
(-0.00405158 -0.000286821 0)
(-0.00375684 -0.000297097 0)
(-0.00345955 -0.000307753 0)
(-0.00316357 -0.000313664 0)
(-0.00286259 -0.00031294 0)
(-0.00255665 -0.000307626 0)
(-0.00225563 -0.00030027 0)
(-0.00196254 -0.000292786 0)
(-0.00166943 -0.000287437 0)
(-0.00137344 -0.000285452 0)
(-0.00108204 -0.000284814 0)
(-0.000798703 -0.000282066 0)
(-0.000516672 -0.000275854 0)
(-0.000232855 -0.00026626 0)
(4.23645e-05 -0.000251263 0)
(0.000296065 -0.000227106 0)
(0.000525852 -0.000192686 0)
(0.000734368 -0.000151046 0)
(0.00091624 -0.0001055 0)
(0.00105977 -5.69525e-05 0)
(0.00116061 -6.47499e-06 0)
(0.00122574 4.17185e-05 0)
(0.00126235 8.24869e-05 0)
(0.00126869 0.000114438 0)
(0.00123983 0.000140563 0)
(0.00117883 0.000164533 0)
(0.00109738 0.000187445 0)
(0.00100377 0.000207986 0)
(0.000894025 0.000224239 0)
(0.000760057 0.000235143 0)
(0.000605142 0.000242879 0)
(0.000443252 0.00024783 0)
(0.000286736 0.000239087 0)
(0.000164675 0.000216189 0)
(6.588e-05 0.000164523 0)
(5.81813e-06 9.05793e-05 0)
(0.000792344 -0.000979504 0)
(0.00168418 -0.000172239 0)
(0.00216041 0.00173515 0)
(0.00184594 0.00275858 0)
(0.00110973 0.00303714 0)
(0.000229339 0.00283111 0)
(-0.00072421 0.00242607 0)
(-0.00165084 0.00191057 0)
(-0.0025216 0.00140584 0)
(-0.00330435 0.000953473 0)
(-0.00399609 0.000576575 0)
(-0.00460804 0.000288298 0)
(-0.00512703 7.95227e-05 0)
(-0.00557962 -7.35774e-05 0)
(-0.00596769 -0.000180304 0)
(-0.0063016 -0.000247664 0)
(-0.00660569 -0.000292647 0)
(-0.00687429 -0.000313995 0)
(-0.00711447 -0.000317488 0)
(-0.00733747 -0.000313062 0)
(-0.00753503 -0.000300582 0)
(-0.00771933 -0.000275053 0)
(-0.00789855 -0.000242518 0)
(-0.00806672 -0.000202237 0)
(-0.00822733 -0.00015634 0)
(-0.00838638 -0.00011077 0)
(-0.00854006 -6.63012e-05 0)
(-0.00868937 -2.47457e-05 0)
(-0.0088404 9.92717e-06 0)
(-0.00899158 3.6379e-05 0)
(-0.00913915 5.49734e-05 0)
(-0.00928591 6.74321e-05 0)
(-0.00943258 7.50637e-05 0)
(-0.00957405 7.97372e-05 0)
(-0.00970918 8.36253e-05 0)
(-0.00983796 8.38342e-05 0)
(-0.00995739 7.66461e-05 0)
(-0.0100666 6.26293e-05 0)
(-0.010163 4.07545e-05 0)
(-0.0102445 1.01366e-05 0)
(-0.0103141 -2.58632e-05 0)
(-0.0103688 -6.35138e-05 0)
(-0.0104061 -9.72656e-05 0)
(-0.0104305 -0.000121788 0)
(-0.0104398 -0.000138427 0)
(-0.0104313 -0.000148839 0)
(-0.0104095 -0.000152551 0)
(-0.010372 -0.000155329 0)
(-0.0103182 -0.000164006 0)
(-0.010258 -0.000177289 0)
(-0.0101905 -0.000191952 0)
(-0.0101065 -0.00020732 0)
(-0.0100086 -0.000221807 0)
(-0.00989909 -0.000236068 0)
(-0.0097691 -0.000255767 0)
(-0.00961715 -0.000284937 0)
(-0.00945025 -0.000323133 0)
(-0.00926773 -0.000369376 0)
(-0.00906704 -0.000420774 0)
(-0.00885234 -0.000469573 0)
(-0.0086228 -0.000508392 0)
(-0.00837017 -0.000536066 0)
(-0.00809376 -0.00055599 0)
(-0.00780146 -0.000572765 0)
(-0.00749735 -0.000590641 0)
(-0.00718251 -0.00061032 0)
(-0.00686177 -0.000627237 0)
(-0.00653823 -0.000636308 0)
(-0.00620802 -0.00063716 0)
(-0.00586912 -0.000632447 0)
(-0.00552713 -0.000624115 0)
(-0.00518619 -0.000614291 0)
(-0.00484316 -0.000606653 0)
(-0.00449645 -0.000603072 0)
(-0.00415174 -0.000600781 0)
(-0.00381319 -0.000595581 0)
(-0.00347672 -0.000585789 0)
(-0.00313824 -0.000570605 0)
(-0.00280315 -0.000546662 0)
(-0.00248125 -0.000509396 0)
(-0.00217527 -0.000457528 0)
(-0.0018809 -0.000393947 0)
(-0.00159747 -0.000322157 0)
(-0.00133248 -0.000244277 0)
(-0.0010934 -0.0001633 0)
(-0.000880333 -8.45633e-05 0)
(-0.000689952 -1.29629e-05 0)
(-0.000523553 5.01922e-05 0)
(-0.000387154 0.000106801 0)
(-0.000283182 0.000159129 0)
(-0.000206139 0.000207762 0)
(-0.000150408 0.000251552 0)
(-0.000117879 0.000288104 0)
(-0.000111228 0.000316277 0)
(-0.000125191 0.000336781 0)
(-0.00015088 0.000342286 0)
(-0.000167359 0.000320867 0)
(-0.000161832 0.000267875 0)
(-0.000110929 0.000166183 0)
(-4.84271e-05 7.79105e-05 0)
(0.000946571 -0.00220664 0)
(0.00213781 -0.00136003 0)
(0.00301678 0.00143399 0)
(0.00315894 0.00305343 0)
(0.00283412 0.00362018 0)
(0.00227711 0.00361598 0)
(0.00157863 0.00327032 0)
(0.000770619 0.00280183 0)
(-6.23185e-05 0.00228175 0)
(-0.000916401 0.00179739 0)
(-0.00175693 0.00136963 0)
(-0.00255651 0.0010197 0)
(-0.00332651 0.000743747 0)
(-0.004042 0.000536142 0)
(-0.00470974 0.000378373 0)
(-0.00533512 0.000259421 0)
(-0.00590916 0.000168788 0)
(-0.0064487 0.000110854 0)
(-0.00695778 6.78639e-05 0)
(-0.00743293 4.67325e-05 0)
(-0.00787839 4.05442e-05 0)
(-0.00829485 4.0879e-05 0)
(-0.00868625 5.20153e-05 0)
(-0.00905552 7.50887e-05 0)
(-0.00940447 0.000103659 0)
(-0.00973359 0.000136083 0)
(-0.0100443 0.000171301 0)
(-0.0103389 0.000202721 0)
(-0.0106176 0.000227022 0)
(-0.0108824 0.000246341 0)
(-0.0111373 0.000259116 0)
(-0.011384 0.000264048 0)
(-0.0116207 0.000264948 0)
(-0.0118448 0.000263427 0)
(-0.0120579 0.000257403 0)
(-0.0122601 0.000245078 0)
(-0.0124458 0.000225003 0)
(-0.0126151 0.000197026 0)
(-0.012771 0.000160646 0)
(-0.0129124 0.000114836 0)
(-0.01304 6.36187e-05 0)
(-0.0131522 1.30923e-05 0)
(-0.0132471 -3.49391e-05 0)
(-0.0133275 -7.82864e-05 0)
(-0.0133908 -0.000113029 0)
(-0.0134304 -0.000139902 0)
(-0.013448 -0.000162567 0)
(-0.0134464 -0.000183406 0)
(-0.013426 -0.000205969 0)
(-0.0133892 -0.000233282 0)
(-0.0133365 -0.000263098 0)
(-0.0132663 -0.00029222 0)
(-0.0131792 -0.00032216 0)
(-0.0130714 -0.000355886 0)
(-0.012939 -0.000394749 0)
(-0.0127861 -0.000440888 0)
(-0.0126164 -0.00049671 0)
(-0.0124276 -0.000560752 0)
(-0.0122239 -0.000627844 0)
(-0.0120109 -0.000692575 0)
(-0.0117807 -0.000750297 0)
(-0.0115224 -0.000797722 0)
(-0.0112409 -0.000835808 0)
(-0.0109453 -0.000869771 0)
(-0.0106335 -0.000903307 0)
(-0.0103037 -0.000934369 0)
(-0.00996484 -0.00095858 0)
(-0.00962235 -0.000974478 0)
(-0.00926872 -0.000983189 0)
(-0.00889865 -0.00098547 0)
(-0.00851963 -0.000982246 0)
(-0.00813893 -0.000976697 0)
(-0.00775316 -0.000972703 0)
(-0.00735879 -0.000971026 0)
(-0.00696191 -0.000968827 0)
(-0.00656892 -0.000962959 0)
(-0.0061763 -0.000951854 0)
(-0.00577856 -0.000933729 0)
(-0.00537992 -0.000905126 0)
(-0.00498911 -0.000862608 0)
(-0.00460657 -0.000804914 0)
(-0.00422555 -0.00073303 0)
(-0.0038449 -0.000649254 0)
(-0.00347313 -0.000556791 0)
(-0.00311784 -0.000459746 0)
(-0.00277764 -0.000362297 0)
(-0.00244948 -0.000267414 0)
(-0.00213913 -0.000176916 0)
(-0.00185796 -9.17646e-05 0)
(-0.00161048 -1.14035e-05 0)
(-0.0013907 6.53429e-05 0)
(-0.00119346 0.000137189 0)
(-0.00102196 0.000200039 0)
(-0.000879234 0.000251562 0)
(-0.00076374 0.00028837 0)
(-0.000665841 0.000296604 0)
(-0.000560734 0.000269221 0)
(-0.000424814 0.000175532 0)
(-0.00024833 3.41048e-05 0)
(-9.32966e-05 -3.56376e-05 0)
(0.000925495 -0.00353043 0)
(0.00210152 -0.00277822 0)
(0.00314072 0.000818769 0)
(0.00346268 0.00300646 0)
(0.00335184 0.00391205 0)
(0.00300152 0.00411019 0)
(0.00244409 0.00393334 0)
(0.00176437 0.00355296 0)
(0.000965951 0.00310792 0)
(0.00011757 0.00265045 0)
(-0.000769495 0.0022343 0)
(-0.00166895 0.00186803 0)
(-0.00254613 0.00156238 0)
(-0.00340813 0.00131576 0)
(-0.00424044 0.00111889 0)
(-0.0050329 0.000964709 0)
(-0.00578807 0.000840196 0)
(-0.0065045 0.000738089 0)
(-0.00718505 0.000663632 0)
(-0.00782883 0.000606165 0)
(-0.00844135 0.000566929 0)
(-0.00902193 0.000542187 0)
(-0.00956776 0.000528114 0)
(-0.0100821 0.000522148 0)
(-0.0105695 0.000524102 0)
(-0.011029 0.000532434 0)
(-0.0114611 0.000543323 0)
(-0.0118699 0.000554153 0)
(-0.0122558 0.000561956 0)
(-0.0126197 0.000564587 0)
(-0.0129659 0.00056138 0)
(-0.0132953 0.000552548 0)
(-0.013607 0.000539717 0)
(-0.0139016 0.00052287 0)
(-0.0141804 0.000500039 0)
(-0.0144422 0.000471258 0)
(-0.0146838 0.000435632 0)
(-0.0149067 0.000390165 0)
(-0.0151136 0.000335283 0)
(-0.0153032 0.000273722 0)
(-0.0154753 0.000206993 0)
(-0.015631 0.000139029 0)
(-0.0157706 7.43834e-05 0)
(-0.0158925 1.34095e-05 0)
(-0.0159911 -4.28878e-05 0)
(-0.0160654 -9.17371e-05 0)
(-0.0161173 -0.000135642 0)
(-0.0161429 -0.000179711 0)
(-0.0161447 -0.000224794 0)
(-0.0161301 -0.000270697 0)
(-0.0160945 -0.000318765 0)
(-0.0160325 -0.000368587 0)
(-0.0159509 -0.000419619 0)
(-0.0158495 -0.000474403 0)
(-0.0157187 -0.000535165 0)
(-0.0155619 -0.000601831 0)
(-0.015389 -0.000675411 0)
(-0.0151992 -0.000756878 0)
(-0.0149908 -0.000842125 0)
(-0.0147686 -0.000924026 0)
(-0.0145293 -0.000998807 0)
(-0.0142632 -0.00106622 0)
(-0.0139722 -0.00112624 0)
(-0.0136652 -0.00117962 0)
(-0.013341 -0.00122865 0)
(-0.0129957 -0.00127359 0)
(-0.0126358 -0.00131116 0)
(-0.0122677 -0.00133894 0)
(-0.0118857 -0.00135844 0)
(-0.0114834 -0.00137202 0)
(-0.0110669 -0.00138024 0)
(-0.0106445 -0.00138419 0)
(-0.0102142 -0.00138708 0)
(-0.00977147 -0.00139085 0)
(-0.00932077 -0.00139313 0)
(-0.00886957 -0.0013897 0)
(-0.00841686 -0.00137864 0)
(-0.00795704 -0.00135981 0)
(-0.00749169 -0.00133127 0)
(-0.00702841 -0.00128874 0)
(-0.00656917 -0.00122933 0)
(-0.00610817 -0.00115413 0)
(-0.00564233 -0.00106662 0)
(-0.00517766 -0.000969599 0)
(-0.00472208 -0.000864529 0)
(-0.00427728 -0.000753461 0)
(-0.00384245 -0.000640256 0)
(-0.00342244 -0.000529035 0)
(-0.0030263 -0.000421224 0)
(-0.00265896 -0.000314745 0)
(-0.00231986 -0.000208471 0)
(-0.0020095 -0.000106945 0)
(-0.00172931 -1.61852e-05 0)
(-0.00147777 6.13561e-05 0)
(-0.00125573 0.000117667 0)
(-0.0010503 0.000137027 0)
(-0.000847294 0.000103145 0)
(-0.000619422 -2.02847e-05 0)
(-0.000346445 -0.000216107 0)
(-0.000118582 -0.000212913 0)
(0.00080221 -0.00471798 0)
(0.00181585 -0.00414426 0)
(0.00278767 0.000148826 0)
(0.00322422 0.00282942 0)
(0.00321779 0.00407707 0)
(0.00299032 0.00450886 0)
(0.00255919 0.00450393 0)
(0.00194646 0.00425999 0)
(0.0012297 0.0039082 0)
(0.000403956 0.00351993 0)
(-0.000482723 0.00313646 0)
(-0.00140161 0.00278908 0)
(-0.00234028 0.00247884 0)
(-0.00326906 0.00220741 0)
(-0.00418318 0.0019845 0)
(-0.00508088 0.00179356 0)
(-0.00594677 0.00163842 0)
(-0.00677556 0.00150496 0)
(-0.00757225 0.00139405 0)
(-0.00833565 0.00130193 0)
(-0.0090615 0.00122719 0)
(-0.0097541 0.00116837 0)
(-0.0104148 0.0011232 0)
(-0.0110416 0.0010867 0)
(-0.0116337 0.00105818 0)
(-0.0121941 0.00103688 0)
(-0.0127244 0.00101813 0)
(-0.0132259 0.00100058 0)
(-0.0136995 0.000983537 0)
(-0.0141463 0.000963496 0)
(-0.0145698 0.000939184 0)
(-0.0149708 0.000910991 0)
(-0.0153483 0.000878655 0)
(-0.0157036 0.000841922 0)
(-0.0160382 0.000799061 0)
(-0.0163517 0.000749049 0)
(-0.0166429 0.000693081 0)
(-0.0169131 0.000629394 0)
(-0.0171627 0.000555324 0)
(-0.0173926 0.000474622 0)
(-0.0176047 0.000391439 0)
(-0.0177956 0.00030572 0)
(-0.0179659 0.0002198 0)
(-0.0181201 0.000137784 0)
(-0.0182497 6.05498e-05 0)
(-0.0183482 -1.22239e-05 0)
(-0.0184229 -8.16349e-05 0)
(-0.018474 -0.000150739 0)
(-0.0184969 -0.000220928 0)
(-0.0184958 -0.000291171 0)
(-0.0184716 -0.000361971 0)
(-0.018421 -0.000435253 0)
(-0.0183466 -0.000511582 0)
(-0.018247 -0.000590865 0)
(-0.0181162 -0.000674105 0)
(-0.01796 -0.000763027 0)
(-0.0177864 -0.000858809 0)
(-0.0175924 -0.000960423 0)
(-0.0173765 -0.0010638 0)
(-0.0171452 -0.0011642 0)
(-0.0168955 -0.0012592 0)
(-0.0166171 -0.00134787 0)
(-0.016313 -0.00142919 0)
(-0.0159931 -0.00150317 0)
(-0.0156549 -0.00157122 0)
(-0.0152913 -0.0016334 0)
(-0.0149082 -0.0016872 0)
(-0.0145143 -0.00173099 0)
(-0.0141044 -0.00176629 0)
(-0.0136701 -0.00179521 0)
(-0.0132165 -0.00181806 0)
(-0.0127542 -0.00183529 0)
(-0.0122823 -0.00184927 0)
(-0.0117942 -0.00186162 0)
(-0.0112921 -0.00187041 0)
(-0.0107846 -0.00187216 0)
(-0.0102738 -0.00186528 0)
(-0.00975493 -0.00184971 0)
(-0.00922718 -0.00182379 0)
(-0.00869627 -0.00178377 0)
(-0.0081652 -0.00172677 0)
(-0.00763052 -0.00165327 0)
(-0.00708988 -0.00156609 0)
(-0.00654759 -0.00146745 0)
(-0.00600978 -0.00135802 0)
(-0.0054784 -0.00123907 0)
(-0.00495471 -0.00111385 0)
(-0.00444488 -0.00098594 0)
(-0.00395701 -0.000856517 0)
(-0.00349552 -0.000724243 0)
(-0.00306246 -0.000590143 0)
(-0.00265966 -0.000459968 0)
(-0.00228611 -0.000338319 0)
(-0.0019425 -0.000229567 0)
(-0.00163359 -0.000148854 0)
(-0.00134774 -0.000113659 0)
(-0.00106642 -0.000155088 0)
(-0.000758889 -0.000305125 0)
(-0.000412282 -0.000548495 0)
(-0.000134123 -0.000434281 0)
(0.000620967 -0.00566439 0)
(0.00138862 -0.00531622 0)
(0.00224486 -0.000521369 0)
(0.00267034 0.0025933 0)
(0.00275218 0.00412791 0)
(0.00260532 0.00480754 0)
(0.00224714 0.00497663 0)
(0.00173292 0.00489464 0)
(0.0010629 0.0046578 0)
(0.000290189 0.00435546 0)
(-0.000565151 0.00403876 0)
(-0.00148237 0.00372246 0)
(-0.00243085 0.00342831 0)
(-0.00339027 0.00316345 0)
(-0.00435077 0.00291977 0)
(-0.00529862 0.00270795 0)
(-0.00622757 0.00252303 0)
(-0.00713478 0.00236319 0)
(-0.00800977 0.00221954 0)
(-0.00885172 0.00209576 0)
(-0.00966197 0.00198764 0)
(-0.0104391 0.00189278 0)
(-0.0111824 0.0018111 0)
(-0.0118921 0.00174143 0)
(-0.0125672 0.00168043 0)
(-0.0132095 0.00162556 0)
(-0.0138192 0.00157504 0)
(-0.0143958 0.00152753 0)
(-0.0149418 0.00148139 0)
(-0.015459 0.00143327 0)
(-0.0159483 0.00138295 0)
(-0.0164099 0.00133175 0)
(-0.0168441 0.00127643 0)
(-0.017253 0.00121482 0)
(-0.0176388 0.00114895 0)
(-0.0179985 0.00107756 0)
(-0.0183307 0.000997651 0)
(-0.0186425 0.000910122 0)
(-0.0189334 0.000816062 0)
(-0.0191971 0.000715993 0)
(-0.0194388 0.000611945 0)
(-0.0196621 0.000505393 0)
(-0.0198627 0.000397843 0)
(-0.0200392 0.000292304 0)
(-0.0201888 0.000190673 0)
(-0.0203105 9.20312e-05 0)
(-0.0204073 -5.56208e-06 0)
(-0.0204752 -0.000102803 0)
(-0.0205122 -0.000199526 0)
(-0.0205251 -0.000296703 0)
(-0.0205125 -0.00039571 0)
(-0.0204688 -0.000496392 0)
(-0.0203987 -0.000598617 0)
(-0.0203026 -0.000704006 0)
(-0.0201735 -0.000813847 0)
(-0.0200166 -0.000927952 0)
(-0.0198414 -0.00104669 0)
(-0.019644 -0.00117029 0)
(-0.0194209 -0.00129543 0)
(-0.0191787 -0.00141686 0)
(-0.0189174 -0.00153247 0)
(-0.0186272 -0.00164294 0)
(-0.0183095 -0.00174743 0)
(-0.0179743 -0.00184398 0)
(-0.01762 -0.00193263 0)
(-0.0172383 -0.00201432 0)
(-0.0168331 -0.00208781 0)
(-0.0164135 -0.00215123 0)
(-0.0159761 -0.00220527 0)
(-0.0155121 -0.00225215 0)
(-0.0150252 -0.00229275 0)
(-0.0145261 -0.00232682 0)
(-0.014015 -0.00235511 0)
(-0.0134846 -0.00237874 0)
(-0.0129359 -0.00239687 0)
(-0.0123784 -0.00240707 0)
(-0.0118157 -0.002408 0)
(-0.0112429 -0.00239942 0)
(-0.0106577 -0.00237967 0)
(-0.0100657 -0.0023452 0)
(-0.00947147 -0.00229352 0)
(-0.00887322 -0.00222504 0)
(-0.0082678 -0.00214155 0)
(-0.00765762 -0.00204374 0)
(-0.00704898 -0.00193131 0)
(-0.00644628 -0.00180565 0)
(-0.00585191 -0.00167057 0)
(-0.0052699 -0.00152878 0)
(-0.00470564 -0.00137909 0)
(-0.00416477 -0.00121976 0)
(-0.0036538 -0.00105457 0)
(-0.00317531 -0.00089146 0)
(-0.00272596 -0.00073572 0)
(-0.00230884 -0.000595068 0)
(-0.0019287 -0.000488556 0)
(-0.00157496 -0.000436892 0)
(-0.00122841 -0.000477798 0)
(-0.000862055 -0.000654161 0)
(-0.000461785 -0.000942687 0)
(-0.000146854 -0.000687078 0)
(0.000436931 -0.00633615 0)
(0.000942157 -0.00621997 0)
(0.00160973 -0.00110467 0)
(0.00202089 0.00231534 0)
(0.00212423 0.00413372 0)
(0.00203609 0.00501075 0)
(0.00175355 0.00538888 0)
(0.00129093 0.00545149 0)
(0.000686968 0.00535286 0)
(-3.41123e-05 0.00515816 0)
(-0.00085417 0.00491088 0)
(-0.00174474 0.0046496 0)
(-0.00268071 0.004389 0)
(-0.0036474 0.00413631 0)
(-0.00462547 0.00389492 0)
(-0.00560183 0.00367421 0)
(-0.00656749 0.00346638 0)
(-0.00751658 0.00328064 0)
(-0.00844521 0.00311169 0)
(-0.00934484 0.00295697 0)
(-0.0102151 0.00281654 0)
(-0.0110543 0.00268976 0)
(-0.011861 0.00257329 0)
(-0.0126349 0.00246793 0)
(-0.0133752 0.00237218 0)
(-0.0140821 0.00228334 0)
(-0.014755 0.0022004 0)
(-0.0153943 0.00212047 0)
(-0.0160022 0.00204237 0)
(-0.0165782 0.00196571 0)
(-0.0171212 0.00188753 0)
(-0.0176347 0.00180698 0)
(-0.0181215 0.00172464 0)
(-0.0185776 0.00163791 0)
(-0.019004 0.00154545 0)
(-0.0194059 0.0014477 0)
(-0.0197811 0.00134304 0)
(-0.0201281 0.00123054 0)
(-0.020449 0.00111214 0)
(-0.0207451 0.000989356 0)
(-0.0210184 0.000861998 0)
(-0.0212663 0.000731232 0)
(-0.021488 0.000600111 0)
(-0.0216867 0.000470041 0)
(-0.0218568 0.000340887 0)
(-0.021995 0.000213286 0)
(-0.022107 8.6913e-05 0)
(-0.0221905 -3.97484e-05 0)
(-0.0222409 -0.000166674 0)
(-0.0222639 -0.000293449 0)
(-0.0222591 -0.000421351 0)
(-0.0222217 -0.000551259 0)
(-0.0221561 -0.000682682 0)
(-0.0220626 -0.000816127 0)
(-0.0219342 -0.000953105 0)
(-0.0217768 -0.00109406 0)
(-0.0216004 -0.00123873 0)
(-0.0213996 -0.0013865 0)
(-0.0211685 -0.00153453 0)
(-0.0209153 -0.00167861 0)
(-0.0206427 -0.00181713 0)
(-0.0203411 -0.00195099 0)
(-0.0200099 -0.00207938 0)
(-0.019659 -0.00219972 0)
(-0.0192882 -0.00231139 0)
(-0.0188885 -0.00241546 0)
(-0.018462 -0.00251119 0)
(-0.0180183 -0.00259666 0)
(-0.0175554 -0.00267222 0)
(-0.0170642 -0.00274014 0)
(-0.0165471 -0.00280108 0)
(-0.0160145 -0.00285412 0)
(-0.0154677 -0.00289935 0)
(-0.0148994 -0.00293792 0)
(-0.0143096 -0.00296955 0)
(-0.0137077 -0.00299216 0)
(-0.013099 -0.00300422 0)
(-0.012479 -0.00300549 0)
(-0.0118438 -0.00299487 0)
(-0.0111982 -0.00296912 0)
(-0.0105482 -0.00292528 0)
(-0.00989375 -0.00286305 0)
(-0.00923175 -0.00278352 0)
(-0.00856348 -0.00268682 0)
(-0.00789516 -0.00257222 0)
(-0.00723273 -0.00244067 0)
(-0.0065789 -0.00229516 0)
(-0.00593515 -0.00213699 0)
(-0.00530528 -0.00196409 0)
(-0.00469832 -0.00177633 0)
(-0.00412468 -0.00158011 0)
(-0.0035849 -0.00138359 0)
(-0.00307282 -0.00119283 0)
(-0.00259506 -0.00101986 0)
(-0.00215761 -0.000884889 0)
(-0.00175026 -0.000815353 0)
(-0.00135173 -0.000852718 0)
(-0.000941113 -0.00105476 0)
(-0.000500085 -0.00137713 0)
(-0.000158212 -0.000961954 0)
(0.000264027 -0.00674045 0)
(0.000536379 -0.00684644 0)
(0.00100956 -0.00157923 0)
(0.00135043 0.00207294 0)
(0.0014682 0.00408902 0)
(0.00140743 0.00518551 0)
(0.00116661 0.00572703 0)
(0.000762236 0.00595491 0)
(0.000211201 0.00599271 0)
(-0.000470436 0.00590879 0)
(-0.00124737 0.00575276 0)
(-0.00210231 0.00555602 0)
(-0.00301927 0.00533779 0)
(-0.00397722 0.00510872 0)
(-0.00495505 0.00488359 0)
(-0.00594308 0.00465918 0)
(-0.00692962 0.00444572 0)
(-0.00790479 0.00423906 0)
(-0.00886623 0.00404662 0)
(-0.00980477 0.00386632 0)
(-0.0107173 0.00369704 0)
(-0.0116038 0.00353873 0)
(-0.0124601 0.00339032 0)
(-0.0132831 0.00325241 0)
(-0.0140739 0.00312294 0)
(-0.0148324 0.00299903 0)
(-0.0155579 0.00288219 0)
(-0.0162492 0.00277082 0)
(-0.0169055 0.00266005 0)
(-0.0175299 0.00255043 0)
(-0.0181234 0.00244271 0)
(-0.0186825 0.00233274 0)
(-0.0192089 0.00221883 0)
(-0.0197069 0.00210228 0)
(-0.0201759 0.00198182 0)
(-0.0206137 0.00185492 0)
(-0.0210209 0.00172165 0)
(-0.0214021 0.0015826 0)
(-0.0217552 0.00143773 0)
(-0.022077 0.00128826 0)
(-0.0223736 0.00113509 0)
(-0.0226457 0.000978259 0)
(-0.0228889 0.000819993 0)
(-0.0231045 0.000662673 0)
(-0.0232898 0.00050579 0)
(-0.0234437 0.000348299 0)
(-0.0235707 0.000190349 0)
(-0.0236659 3.25602e-05 0)
(-0.0237251 -0.000124564 0)
(-0.0237565 -0.000281847 0)
(-0.0237596 -0.000441043 0)
(-0.0237273 -0.000601988 0)
(-0.0236638 -0.000763101 0)
(-0.023572 -0.000925266 0)
(-0.0234453 -0.00109118 0)
(-0.0232879 -0.00126111 0)
(-0.0231093 -0.00143321 0)
(-0.022904 -0.00160632 0)
(-0.0226654 -0.00177884 0)
(-0.022402 -0.00194762 0)
(-0.0221186 -0.00211103 0)
(-0.0218061 -0.00226992 0)
(-0.0214619 -0.0024238 0)
(-0.0210956 -0.00256971 0)
(-0.0207086 -0.00270628 0)
(-0.0202918 -0.00283474 0)
(-0.0198454 -0.00295516 0)
(-0.019379 -0.00306549 0)
(-0.0188925 -0.00316506 0)
(-0.0183768 -0.00325581 0)
(-0.0178324 -0.00333892 0)
(-0.0172694 -0.00341336 0)
(-0.0166905 -0.00347839 0)
(-0.0160889 -0.00353481 0)
(-0.0154633 -0.00358274 0)
(-0.0148227 -0.00362062 0)
(-0.0141734 -0.00364688 0)
(-0.0135118 -0.00366091 0)
(-0.0128328 -0.00366141 0)
(-0.0121401 -0.00364531 0)
(-0.0114411 -0.0036097 0)
(-0.0107375 -0.0035539 0)
(-0.0100261 -0.00347844 0)
(-0.00930682 -0.00338287 0)
(-0.00858638 -0.00326599 0)
(-0.00787261 -0.00312819 0)
(-0.00716804 -0.00297157 0)
(-0.00647131 -0.00279651 0)
(-0.00578578 -0.00260136 0)
(-0.00512426 -0.00238788 0)
(-0.0044991 -0.00216311 0)
(-0.00390847 -0.00193435 0)
(-0.0033464 -0.00170824 0)
(-0.0028203 -0.00150173 0)
(-0.00233592 -0.00133562 0)
(-0.0018831 -0.00124333 0)
(-0.001443 -0.00127011 0)
(-0.000998862 -0.00149289 0)
(-0.000527295 -0.00183818 0)
(-0.000166578 -0.00125306 0)
(0.000124559 -0.00692285 0)
(0.000191029 -0.00720975 0)
(0.000484038 -0.00191472 0)
(0.000742953 0.0018653 0)
(0.000834203 0.00405562 0)
(0.000784395 0.0053182 0)
(0.000566454 0.00603373 0)
(0.000201612 0.00641617 0)
(-0.000310398 0.00658142 0)
(-0.000947409 0.00661493 0)
(-0.00168913 0.00655601 0)
(-0.00251509 0.00643042 0)
(-0.00340697 0.00626345 0)
(-0.00434481 0.00607171 0)
(-0.00531564 0.00586679 0)
(-0.00630485 0.00564935 0)
(-0.00729918 0.00543523 0)
(-0.0082912 0.00522082 0)
(-0.0092712 0.00501115 0)
(-0.010236 0.00480902 0)
(-0.0111805 0.00461443 0)
(-0.0121005 0.00442875 0)
(-0.012992 0.00425216 0)
(-0.0138539 0.004082 0)
(-0.0146874 0.0039197 0)
(-0.0154876 0.00376506 0)
(-0.0162516 0.00361434 0)
(-0.0169851 0.0034675 0)
(-0.0176875 0.00332468 0)
(-0.0183519 0.00318297 0)
(-0.0189814 0.00304094 0)
(-0.0195817 0.0028981 0)
(-0.02015 0.00275264 0)
(-0.0206816 0.00260379 0)
(-0.0211818 0.00245139 0)
(-0.0216548 0.00229324 0)
(-0.0220956 0.00212883 0)
(-0.0225036 0.00196023 0)
(-0.0228807 0.00178762 0)
(-0.0232281 0.00160969 0)
(-0.0235493 0.00142689 0)
(-0.0238406 0.00124149 0)
(-0.0240989 0.00105586 0)
(-0.0243301 0.000869851 0)
(-0.0245317 0.000681864 0)
(-0.0246993 0.000492598 0)
(-0.0248367 0.000303707 0)
(-0.0249409 0.000115023 0)
(-0.0250086 -7.42097e-05 0)
(-0.0250475 -0.000264208 0)
(-0.0250564 -0.000455301 0)
(-0.025027 -0.000647207 0)
(-0.024965 -0.000839074 0)
(-0.0248752 -0.00103201 0)
(-0.0247504 -0.0012286 0)
(-0.0245926 -0.0014287 0)
(-0.0244109 -0.00162948 0)
(-0.0242009 -0.0018295 0)
(-0.0239553 -0.0020283 0)
(-0.0236824 -0.00222383 0)
(-0.0233889 -0.00241429 0)
(-0.0230665 -0.00260019 0)
(-0.0227102 -0.00278117 0)
(-0.0223289 -0.00295421 0)
(-0.0219258 -0.00311746 0)
(-0.021493 -0.00327228 0)
(-0.0210287 -0.00341929 0)
(-0.0205413 -0.00355619 0)
(-0.0200321 -0.00368131 0)
(-0.0194937 -0.00379618 0)
(-0.0189252 -0.00390281 0)
(-0.0183353 -0.00400061 0)
(-0.0177274 -0.00408779 0)
(-0.0170958 -0.00416395 0)
(-0.0164385 -0.00422958 0)
(-0.0157641 -0.00428424 0)
(-0.0150795 -0.00432656 0)
(-0.0143811 -0.00435504 0)
(-0.0136631 -0.00436775 0)
(-0.0129285 -0.00436179 0)
(-0.0121861 -0.00433471 0)
(-0.011439 -0.00428584 0)
(-0.0106841 -0.00421514 0)
(-0.00992053 -0.00412161 0)
(-0.00915517 -0.00400393 0)
(-0.00839688 -0.00386197 0)
(-0.00764797 -0.00369627 0)
(-0.00690543 -0.00350628 0)
(-0.00617324 -0.00329133 0)
(-0.00546707 -0.00305521 0)
(-0.00479948 -0.00280395 0)
(-0.00416532 -0.0025422 0)
(-0.00356002 -0.00227892 0)
(-0.00299255 -0.00203332 0)
(-0.00246828 -0.00183066 0)
(-0.001977 -0.00170925 0)
(-0.0015061 -0.00172224 0)
(-0.00103678 -0.00195957 0)
(-0.000543222 -0.00232204 0)
(-0.000169248 -0.00155549 0)
(8.97699e-06 -0.00692814 0)
(-7.26425e-05 -0.00735182 0)
(4.66994e-05 -0.00211332 0)
(0.000211476 0.00172149 0)
(0.000267734 0.00403849 0)
(0.000201862 0.00544678 0)
(-3.15769e-06 0.00631839 0)
(-0.000355728 0.00684191 0)
(-0.000837734 0.00714089 0)
(-0.00144089 0.00728621 0)
(-0.00215325 0.00732016 0)
(-0.00295184 0.0072745 0)
(-0.00381816 0.00716686 0)
(-0.00473703 0.0070185 0)
(-0.00569727 0.00683755 0)
(-0.00667981 0.00664085 0)
(-0.00767261 0.00642841 0)
(-0.00867244 0.00621208 0)
(-0.00966685 0.00599276 0)
(-0.0106484 0.0057754 0)
(-0.0116126 0.0055607 0)
(-0.0125566 0.00534956 0)
(-0.0134782 0.00514663 0)
(-0.0143712 0.0049494 0)
(-0.0152324 0.00475536 0)
(-0.0160658 0.00456773 0)
(-0.016869 0.00438566 0)
(-0.0176361 0.00420555 0)
(-0.0183682 0.00402783 0)
(-0.0190693 0.00385215 0)
(-0.0197375 0.00367553 0)
(-0.0203692 0.00349772 0)
(-0.0209663 0.00331916 0)
(-0.0215313 0.00313722 0)
(-0.0220651 0.00294997 0)
(-0.022566 0.00275819 0)
(-0.0230307 0.00256316 0)
(-0.0234637 0.0023642 0)
(-0.0238664 0.00215956 0)
(-0.0242359 0.00195002 0)
(-0.024575 0.00173784 0)
(-0.0248826 0.00152373 0)
(-0.0251568 0.00130768 0)
(-0.025403 0.00108954 0)
(-0.0256174 0.000869403 0)
(-0.0257953 0.00064857 0)
(-0.025942 0.000427847 0)
(-0.0260549 0.000206248 0)
(-0.0261298 -1.6725e-05 0)
(-0.0261741 -0.000240165 0)
(-0.026187 -0.000463794 0)
(-0.0261602 -0.000687965 0)
(-0.0260996 -0.00091244 0)
(-0.0260115 -0.00113802 0)
(-0.0258885 -0.00136688 0)
(-0.0257299 -0.00159857 0)
(-0.0255443 -0.0018295 0)
(-0.025329 -0.00205797 0)
(-0.0250771 -0.00228493 0)
(-0.0247961 -0.00250954 0)
(-0.0244934 -0.00272934 0)
(-0.0241613 -0.0029437 0)
(-0.0237934 -0.00315262 0)
(-0.0233977 -0.00335401 0)
(-0.0229795 -0.0035459 0)
(-0.0225318 -0.00372892 0)
(-0.0220507 -0.00390344 0)