/*--------------------------------*- C++ -*----------------------------------*\
  =========                 |
  \\      /  F ield         | OpenFOAM: The Open Source CFD Toolbox
   \\    /   O peration     | Website:  https://openfoam.org
    \\  /    A nd           | Version:  11
     \\/     M anipulation  |
\*---------------------------------------------------------------------------*/
FoamFile
{
    format      ascii;
    class       volScalarField;
    location    "6.2";
    object      p;
}
// * * * * * * * * * * * * * * * * * * * * * * * * * * * * * * * * * * * * * //

dimensions      [0 2 -2 0 0 0 0];

internalField   nonuniform List<scalar> 
10100
(
7.49665e-08
-5.93237e-06
-0.000354953
-0.00103543
-0.0019828
-0.0031553
-0.0045031
-0.00597614
-0.00752996
-0.00912498
-0.0107261
-0.0123022
-0.0138262
-0.0152747
-0.0166277
-0.017868
-0.0189809
-0.0199536
-0.0207754
-0.0214377
-0.0219332
-0.0222563
-0.0224026
-0.0223698
-0.0221568
-0.021763
-0.0211887
-0.0204347
-0.0195029
-0.0183963
-0.0171189
-0.0156754
-0.0140703
-0.0123086
-0.0103956
-0.00833763
-0.00614197
-0.00381624
-0.00136795
0.00119536
0.00386573
0.0066343
0.00949155
0.0124278
0.0154333
0.018499
0.0216156
0.0247736
0.0279627
0.0311722
0.034391
0.037608
0.0408126
0.0439942
0.0471427
0.0502477
0.053299
0.0562858
0.0591972
0.0620223
0.0647506
0.0673722
0.0698779
0.0722586
0.074506
0.0766123
0.0785695
0.0803706
0.0820084
0.0834767
0.0847698
0.0858829
0.0868124
0.0875554
0.0881104
0.0884768
0.0886552
0.0886475
0.0884562
0.0880856
0.0875409
0.0868289
0.0859581
0.0849384
0.083782
0.0825029
0.0811178
0.0796461
0.0781098
0.0765343
0.0749478
0.0733826
0.0718752
0.0704666
0.0692029
0.0681339
0.0673108
0.0667828
0.0665922
0.0666921
-0.000183094
-0.000187008
-0.000503153
-0.00110003
-0.00192213
-0.002935
-0.00410107
-0.00538097
-0.00673701
-0.00813512
-0.00954443
-0.010937
-0.0122877
-0.0135747
-0.0147789
-0.0158836
-0.0168743
-0.0177386
-0.0184659
-0.0190476
-0.0194765
-0.0197464
-0.0198526
-0.0197927
-0.0195653
-0.0191696
-0.018605
-0.017872
-0.0169723
-0.0159087
-0.0146848
-0.0133044
-0.0117715
-0.0100906
-0.00826671
-0.00630596
-0.00421528
-0.00200166
0.000328145
0.0027672
0.00530789
0.0079416
0.0106591
0.0134511
0.0163087
0.0192232
0.0221863
0.0251886
0.0282204
0.0312712
0.0343304
0.0373876
0.0404326
0.0434556
0.0464471
0.0493975
0.0522967
0.0551346
0.0579008
0.0605849
0.0631772
0.0656683
0.0680495
0.0703126
0.0724498
0.0744537
0.0763172
0.0780335
0.0795961
0.0809992
0.0822377
0.0833072
0.0842046
0.0849275
0.0854746
0.085846
0.0860425
0.0860662
0.0859202
0.0856086
0.085137
0.0845123
0.0837427
0.0828382
0.0818105
0.0806732
0.0794424
0.0781366
0.0767765
0.0753857
0.0739903
0.0726194
0.0713051
0.0700829
0.0689907
0.0680682
0.0673526
0.0668786
0.0666913
0.0667924
-0.000106153
-9.22128e-05
-0.000375672
-0.00091887
-0.00166235
-0.0025732
-0.00361964
-0.00476847
-0.00598687
-0.0072449
-0.008515
-0.00977197
-0.010993
-0.0121578
-0.0132484
-0.0142487
-0.0151447
-0.0159243
-0.0165776
-0.0170959
-0.0174717
-0.0176991
-0.0177733
-0.0176918
-0.0174531
-0.0170557
-0.0164987
-0.0157825
-0.0149087
-0.0138802
-0.0126997
-0.0113706
-0.00989638
-0.00828108
-0.00652976
-0.00464838
-0.00264341
-0.000521218
0.00171199
0.00404964
0.00648432
0.00900763
0.0116107
0.0142846
0.0170211
0.0198121
0.0226496
0.0255246
0.0284278
0.0313488
0.0342776
0.0372041
0.0401187
0.0430124
0.045876
0.0487003
0.0514758
0.0541926
0.0568407
0.0594103
0.0618921
0.0642772
0.0665576
0.0687254
0.0707735
0.0726948
0.0744826
0.0761306
0.0776327
0.0789833
0.0801777
0.0812122
0.0820837
0.0827903
0.0833311
0.0837062
0.0839169
0.0839654
0.0838548
0.0835896
0.0831751
0.0826183
0.0819273
0.0811116
0.0801826
0.0791534
0.0780393
0.0768578
0.0756284
0.0743728
0.073115
0.0718813
0.0707002
0.0696025
0.0686208
0.0677879
0.0671343
0.0666891
0.0665028
0.0666036
0.000321256
0.000298638
7.08715e-06
-0.000518162
-0.00122339
-0.00207634
-0.0030489
-0.00411189
-0.00523669
-0.00639629
-0.0075658
-0.00872269
-0.00984629
-0.0109178
-0.0119202
-0.0128387
-0.0136599
-0.0143725
-0.0149665
-0.0154336
-0.0157663
-0.0159589
-0.0160072
-0.0159085
-0.0156607
-0.015262
-0.0147114
-0.0140094
-0.0131579
-0.0121592
-0.0110155
-0.0097296
-0.00830477
-0.00674515
-0.00505567
-0.00324191
-0.0013097
0.000735064
0.00288644
0.00513794
0.00748228
0.00991138
0.0124168
0.0149901
0.0176237
0.0203097
0.0230404
0.0258071
0.0286006
0.0314112
0.0342289
0.0370443
0.0398483
0.0426322
0.0453875
0.0481051
0.0507758
0.05339
0.0559382
0.0584109
0.0607994
0.0630953
0.0652907
0.0673784
0.0693516
0.0712036
0.072928
0.0745188
0.07597
0.0772766
0.0784342
0.0794393
0.080289
0.0809818
0.081517
0.0818948
0.0821166
0.0821848
0.0821025
0.0818742
0.0815052
0.0810021
0.0803729
0.0796268
0.0787746
0.0778288
0.0768039
0.0757163
0.0745839
0.073427
0.0722673
0.0711286
0.0700364
0.0690178
0.0681012
0.0673151
0.0666861
0.0662409
0.0660275
0.066078
0.00106893
0.000944466
0.000601466
6.21799e-05
-0.00063361
-0.00145738
-0.00238369
-0.00338706
-0.00444268
-0.00552675
-0.00661731
-0.00769396
-0.00873774
-0.00973153
-0.0106597
-0.0115084
-0.0122653
-0.01292
-0.0134626
-0.0138846
-0.0141794
-0.0143416
-0.0143673
-0.0142535
-0.0139978
-0.0135982
-0.0130538
-0.0123656
-0.0115351
-0.0105641
-0.00945436
-0.00820823
-0.00682915
-0.0053213
-0.0036894
-0.00193848
-7.37576e-05
0.00189927
0.00397473
0.00614617
0.00840643
0.0107478
0.0131623
0.0156422
0.0181801
0.0207687
0.0234001
0.0260661
0.0287577
0.0314655
0.03418
0.0368923
0.0395937
0.042276
0.0449309
0.0475496
0.0501233
0.0526427
0.0550984
0.0574817
0.0597841
0.0619975
0.0641147
0.0661287
0.0680331
0.0698214
0.0714875
0.0730256
0.0744301
0.0756963
0.0768199
0.0777978
0.0786273
0.0793071
0.0798365
0.0802161
0.0804473
0.0805324
0.0804747
0.0802782
0.0799485
0.0794917
0.0789156
0.0782289
0.0774418
0.0765662
0.0756157
0.0746052
0.0735516
0.0724732
0.0713897
0.0703225
0.0692942
0.0683286
0.0674503
0.0666842
0.0660537
0.0655829
0.065309
0.0652564
0.00207481
0.00180721
0.00137954
0.000799157
8.66884e-05
-0.000733586
-0.00163835
-0.00260585
-0.00361494
-0.00464494
-0.00567636
-0.00669092
-0.00767158
-0.00860272
-0.00947015
-0.0102612
-0.0109646
-0.0115701
-0.0120686
-0.0124522
-0.0127147
-0.0128513
-0.0128578
-0.012731
-0.0124685
-0.0120686
-0.0115307
-0.0108557
-0.0100449
-0.0090994
-0.00802072
-0.00681123
-0.00547439
-0.00401434
-0.00243546
-0.000742246
0.0010605
0.00296754
0.00497303
0.00707059
0.00925328
0.0115137
0.0138445
0.0162384
0.0186883
0.021187
0.0237271
0.0263003
0.028898
0.0315111
0.0341307
0.0367482
0.0393554
0.0419444
0.0445072
0.0470353
0.0495199
0.0519523
0.0543234
0.0566248
0.0588483
0.0609865
0.0630323
0.0649791
0.0668207
0.068551
0.070164
0.071654
0.0730159
0.0742451
0.0753377
0.0762905
0.0771013
0.0777687
0.0782923
0.0786728
0.0789115
0.0790108
0.0789736
0.0788042
0.0785075
0.0780897
0.077558
0.0769207
0.0761874
0.0753692
0.0744786
0.0735296
0.0725374
0.0715186
0.0704912
0.069474
0.0684871
0.0675512
0.0666876
0.0659176
0.065262
0.0647421
0.0643797
0.0641856
0.00328492
0.00284907
0.00231282
0.00166797
0.000915974
7.7337e-05
-0.00082809
-0.00178176
-0.00276525
-0.00376106
-0.00475199
-0.00572172
-0.00665505
-0.00753807
-0.00835809
-0.0091035
-0.00976365
-0.010329
-0.0107911
-0.011143
-0.0113791
-0.0114945
-0.011485
-0.0113475
-0.0110798
-0.0106807
-0.0101496
-0.00948723
-0.00869439
-0.00777206
-0.00672164
-0.00554561
-0.00424744
-0.00283105
-0.00130039
0.000340506
0.00208707
0.00393412
0.00587588
0.00790605
0.010018
0.0122048
0.0144595
0.0167753
0.0191452
0.0215623
0.0240192
0.0265081
0.0290203
0.0315474
0.0340807
0.0366122
0.039134
0.0416385
0.0441179
0.0465639
0.048968
0.0513216
0.0536162
0.0558436
0.057996
0.0600663
0.0620478
0.0639341
0.0657193
0.0673974
0.0689626
0.0704095
0.071733
0.0729289
0.0739933
0.0749233
0.0757168
0.0763726
0.0768903
0.0772706
0.077515
0.0776255
0.0776051
0.0774577
0.077188
0.0768018
0.0763059
0.075708
0.0750173
0.074244
0.0733995
0.0724966
0.0715493
0.0705725
0.0695822
0.0685951
0.0676288
0.0667014
0.0658313
0.0650364
0.0643353
0.0637464
0.0632738
0.0629133
0.00465079
0.00403093
0.00336963
0.00264288
0.00183275
0.000956601
3.17903e-05
-0.000926374
-0.00190265
-0.00288173
-0.00384849
-0.00478867
-0.00568904
-0.00653732
-0.00732202
-0.00803239
-0.00865867
-0.00919222
-0.00962554
-0.00995226
-0.0101672
-0.0102654
-0.010243
-0.0100971
-0.00982609
-0.00942884
-0.00890479
-0.00825422
-0.00747784
-0.00657656
-0.0055519
-0.00440642
-0.00314351
-0.00176676
-0.000279702
0.00131394
0.00300974
0.00480248
0.00668643
0.00865546
0.0107033
0.0128234
0.0150093
0.0172545
0.0195521
0.0218955
0.0242772
0.0266897
0.0291247
0.0315739
0.0340294
0.0364833
0.0389282
0.0413567
0.0437609
0.046133
0.0484646
0.0507474
0.0529732
0.0551341
0.0572227
0.0592322
0.0611561
0.0629885
0.0647233
0.0663547
0.0678772
0.0692854
0.0705746
0.0717405
0.0727795
0.0736889
0.0744666
0.0751114
0.0756232
0.0760025
0.0762508
0.0763699
0.0763625
0.0762324
0.075984
0.0756226
0.0751545
0.0745871
0.0739287
0.0731887
0.0723777
0.0715074
0.0705901
0.0696395
0.0686695
0.0676951
0.0667316
0.0657946
0.0648999
0.0640624
0.0632989
0.0626251
0.062027
0.0614847
0.00612874
0.00531716
0.00451999
0.00369804
0.0028152
0.00188618
0.000926156
-5.2472e-05
-0.00103698
-0.00201412
-0.00297097
-0.00389539
-0.00477588
-0.00560133
-0.00636126
-0.00704607
-0.00764716
-0.00815692
-0.00856849
-0.00887594
-0.00907428
-0.00915907
-0.00912671
-0.00897495
-0.00870241
-0.00830793
-0.00779083
-0.00715126
-0.00638995
-0.00550795
-0.00450684
-0.00338918
-0.00215817
-0.000817098
0.0006308
0.00218196
0.00383202
0.00557577
0.00740753
0.00932143
0.0113115
0.0133717
0.0154959
0.0176776
0.0199103
0.0221874
0.0245015
0.0268452
0.0292108
0.0315903
0.033976
0.0363605
0.0387366
0.0410969
0.043434
0.0457399
0.0480068
0.0502264
0.0523908
0.0544924
0.0565242
0.0584796
0.0603525
0.0621369
0.063827
0.0654172
0.0669018
0.0682757
0.0695343
0.0706736
0.07169
0.0725808
0.073344
0.0739786
0.0744845
0.074862
0.0751125
0.0752377
0.07524
0.0751229
0.0748905
0.0745477
0.0741002
0.0735549
0.0729195
0.0722026
0.0714139
0.0705637
0.0696634
0.0687249
0.0677608
0.0667839
0.0658078
0.0648459
0.0639114
0.063017
0.0621775
0.0614068
0.0606726
0.0599399
0.00768265
0.00667557
0.00573569
0.00480946
0.00384251
0.00284814
0.00183975
0.000827364
-0.000178413
-0.00116649
-0.0021262
-0.00304714
-0.00391906
-0.00473195
-0.00547663
-0.00614479
-0.00672889
-0.00722211
-0.00761812
-0.00791141
-0.00809743
-0.00817236
-0.00813315
-0.00797794
-0.00770541
-0.00731434
-0.00680401
-0.00617467
-0.00542723
-0.00456288
-0.00358325
-0.00249073
-0.00128832
2.09342e-05
0.00143394
0.00294717
0.00455626
0.0062561
0.0080411
0.00990567
0.0118442
0.0138511
0.0159202
0.0180455
0.0202204
0.0224382
0.0246921
0.0269746
0.0292783
0.0315958
0.0339195
0.0362425
0.0385575
0.0408575
0.0431351
0.0453825
0.047592
0.0497557
0.0518658
0.0539152
0.055897
0.0578049
0.059633
0.0613754
0.0630263
0.0645802
0.0660316
0.0673756
0.0686075
0.0697233
0.0707198
0.0715941
0.0723443
0.0729696
0.0734695
0.0738445
0.0740957
0.0742247
0.0742336
0.0741256
0.0739044
0.0735744
0.073141
0.0726104
0.0719895
0.0712864
0.0705098
0.0696689
0.0687739
0.0678352
0.0668641
0.0658717
0.0648699
0.0638701
0.0628833
0.0619202
0.0609942
0.0601176
0.0592406
0.0583139
0.00928162
0.00807794
0.00699119
0.00595415
0.00489474
0.00382499
0.00275768
0.0017007
0.000662508
-0.000347929
-0.00132169
-0.0022496
-0.00312258
-0.00393206
-0.00467028
-0.00533002
-0.0059045
-0.00638752
-0.00677332
-0.00705702
-0.0072348
-0.00730342
-0.00726028
-0.00710367
-0.00683232
-0.00644508
-0.00594136
-0.00532163
-0.004587
-0.00373875
-0.00277847
-0.00170839
-0.000531298
0.000749839
0.00213198
0.00361158
0.00518431
0.00684514
0.0085887
0.0104096
0.0123027
0.0142625
0.0162832
0.0183587
0.0204825
0.0226482
0.0248488
0.0270774
0.0293267
0.0315896
0.033859
0.036128
0.0383896
0.0406367
0.0428622
0.0450585
0.0472179
0.0493327
0.0513956
0.0533995
0.0553379
0.0572047
0.0589941
0.0607002
0.0623173
0.0638399
0.0652627
0.0665808
0.0677896
0.0688853
0.0698645
0.0707244
0.0714633
0.07208
0.0725742
0.0729461
0.0731968
0.0733274
0.0733402
0.0732377
0.0730234
0.0727011
0.0722758
0.071753
0.0711392
0.0704416
0.069668
0.0688266
0.0679265
0.066977
0.0659878
0.0649688
0.06393
0.0628814
0.0618322
0.0607909
0.0597703
0.0587814
0.0577576
0.0566364
0.0108984
0.0094994
0.00826372
0.00711095
0.00595295
0.00480042
0.00366575
0.00255503
0.00147481
0.000432283
-0.000564823
-0.0015085
-0.00239109
-0.00320552
-0.00394521
-0.00460372
-0.00517491
-0.0056532
-0.00603364
-0.00631212
-0.00648557
-0.00655116
-0.00650657
-0.00635019
-0.00608093
-0.00569785
-0.00520064
-0.00458999
-0.00386717
-0.00303343
-0.00209029
-0.00103988
0.000115077
0.00137163
0.0027267
0.0041768
0.00571762
0.00734424
0.00905156
0.0108345
0.012688
0.0146069
0.0165854
0.0186175
0.0206969
0.022817
0.0249713
0.027153
0.0293551
0.0315709
0.0337934
0.0360158
0.0382312
0.0404328
0.0426134
0.0447657
0.046882
0.0489549
0.0509773
0.0529425
0.054844
0.0566759
0.0584325
0.0601078
0.0616964
0.0631926
0.0645912
0.0658875
0.0670769
0.0681557
0.0691203
0.0699681
0.0706971
0.0713062
0.071795
0.0721635
0.0724125
0.0725432
0.0725573
0.0724573
0.0722459
0.0719267
0.0715041
0.0709832
0.0703697
0.0696702
0.0688915
0.0680411
0.0671269
0.0661572
0.0651404
0.0640851
0.063
0.0618935
0.0607734
0.0596465
0.0585252
0.0574195
0.0562471
0.0549327
0.0125097
0.0109177
0.00953254
0.00826119
0.00699983
0.00575885
0.00455004
0.00337801
0.00224775
0.00116523
0.000137086
-0.000830061
-0.00173003
-0.00255689
-0.00330487
-0.00396821
-0.00454151
-0.00502001
-0.00539961
-0.00567702
-0.00584965
-0.00591502
-0.00587097
-0.00571615
-0.00544975
-0.00507116
-0.00458036
-0.00397825
-0.00326611
-0.0024452
-0.00151694
-0.000483479
0.00065241
0.00188775
0.00321943
0.00464398
0.00615725
0.00775445
0.00943066
0.011181
0.0130007
0.0148845
0.0168269
0.0188218
0.0208631
0.0229444
0.0250591
0.0272008
0.0293629
0.0315386
0.0337213
0.0359043
0.0380808
0.040244
0.0423867
0.0445019
0.046582
0.0486198
0.0506085
0.0525414
0.0544124
0.0562155
0.057945
0.0595951
0.0611601
0.0626347
0.0640137
0.0652922
0.0664659
0.0675309
0.0684837
0.0693216
0.0700425
0.0706451
0.0711289
0.0714939
0.0717405
0.0718699
0.0718833
0.0717829
0.0715711
0.0712509
0.0708264
0.070302
0.0696828
0.0689748
0.0681839
0.067317
0.0663809
0.0653828
0.0643303
0.0632305
0.0620911
0.0609193
0.0597214
0.0585032
0.0572764
0.056051
0.0547294
0.0532244
0.0140953
0.0123136
0.0107791
0.00938747
0.0080195
0.00668552
0.00539721
0.00415778
0.00297104
0.00184204
0.000776201
-0.000221303
-0.00114542
-0.00199103
-0.00275298
-0.00342632
-0.00400652
-0.00448977
-0.00487277
-0.00515281
-0.00532759
-0.00539498
-0.00535309
-0.00520094
-0.00493811
-0.00456431
-0.00407977
-0.0034855
-0.00278277
-0.00197285
-0.00105722
-3.80669e-05
0.00108172
0.00229908
0.00361095
0.00501392
0.00650395
0.00807644
0.00972662
0.0114497
0.0132411
0.0150956
0.0170077
0.0189716
0.020981
0.0230298
0.0251115
0.02722
0.0293489
0.0314916
0.0336416
0.0357922
0.0379367
0.0400683
0.0421801
0.0442649
0.0463156
0.048325
0.0502865
0.0521936
0.0540403
0.0558206
0.0575287
0.0591589
0.0607056
0.0621634
0.063527
0.0647919
0.0659535
0.0670079
0.0679518
0.068782
0.0694966
0.0700941
0.0705736
0.0709352
0.0711791
0.071306
0.0713172
0.0712141
0.0709988
0.0706742
0.0702436
0.0697109
0.0690809
0.0683585
0.0675494
0.0666593
0.0656945
0.0646612
0.0635658
0.0624147
0.0612143
0.0599709
0.0586898
0.0573756
0.0560401
0.054693
0.0532225
0.0515302
0.0156376
0.0136698
0.0119869
0.0104738
0.00899711
0.00756683
0.00619475
0.00488309
0.00363473
0.00245375
0.00134437
0.000310608
-0.000643282
-0.0015128
-0.00229355
-0.00298145
-0.00357297
-0.00406514
-0.00445527
-0.00474098
-0.00492034
-0.00499154
-0.00495318
-0.00480471
-0.00454606
-0.00417724
-0.00369863
-0.00311129
-0.00241655
-0.00161573
-0.000710462
0.000296922
0.00140345
0.00260605
0.00390168
0.00528703
0.00675817
0.00831063
0.00993974
0.0116408
0.0134093
0.01524
0.0171277
0.0190664
0.02105
0.0230726
0.0251279
0.0272099
0.0293123
0.0314288
0.0335528
0.0356778
0.0377971
0.039904
0.0419916
0.0440528
0.0460807
0.0480683
0.0500091
0.0518967
0.0537251
0.0554885
0.0571809
0.0587966
0.06033
0.0617757
0.0631285
0.0643836
0.0655369
0.0665841
0.0675218
0.0683469
0.0690572
0.0696509
0.0701273
0.0704859
0.0707269
0.0708508
0.0708583
0.0707506
0.0705296
0.0701974
0.0697571
0.0692121
0.0685665
0.0678249
0.0669921
0.0660733
0.0650739
0.0639993
0.062855
0.0616467
0.0603798
0.0590598
0.057691
0.0562773
0.0548305
0.0533607
0.0517423
0.0498659
0.0171213
0.0149706
0.013141
0.011506
0.00991906
0.00839001
0.00693084
0.00554318
0.00422901
0.00299136
0.00183346
0.000758615
-0.000229573
-0.00112731
-0.00193107
-0.0026377
-0.00324456
-0.00374927
-0.00414955
-0.00444339
-0.00462927
-0.00470583
-0.00467221
-0.00452827
-0.00427423
-0.00391035
-0.0034371
-0.00285559
-0.00216728
-0.00137365
-0.00047653
0.0005216
0.00161773
0.00280881
0.00409182
0.00546354
0.00692015
0.00845722
0.0100701
0.0117543
0.0135051
0.0153176
0.0171864
0.0191057
0.0210697
0.0230722
0.0251075
0.0271695
0.0292521
0.031349
0.0334537
0.0355598
0.0376606
0.0397494
0.0418193
0.0438635
0.0458751
0.0478473
0.0497737
0.0516481
0.0534644
0.0552166
0.0568989
0.0585055
0.0600307
0.061469
0.0628154
0.0640651
0.0652137
0.0662571
0.0671916
0.0680141
0.0687221
0.0693139
0.0697883
0.0701447
0.0703831
0.0705035
0.0705064
0.0703927
0.0701638
0.0698216
0.0693686
0.0688078
0.0681428
0.0673776
0.0665166
0.0655641
0.064525
0.0634039
0.0622057
0.0609352
0.0595972
0.0581964
0.0567365
0.0552205
0.0536607
0.0520675
0.0503024
0.0482454
0.0185328
0.0162027
0.0142277
0.0124711
0.0107728
0.00914311
0.00759439
0.00612772
0.0047442
0.00344599
0.00223559
0.00111579
8.9574e-05
-0.000840112
-0.00167065
-0.00239976
-0.00302538
-0.00354556
-0.00395838
-0.0042623
-0.00445631
-0.00453959
-0.00451173
-0.00437297
-0.00412376
-0.00376447
-0.00329572
-0.00271878
-0.00203528
-0.00124695
-0.000355759
0.000635679
0.00172433
0.00290718
0.00418128
0.00554345
0.00698985
0.00851612
0.0101177
0.0117899
0.0135282
0.0153278
0.0171833
0.0190891
0.0210393
0.023028
0.0250495
0.0270979
0.0291671
0.031251
0.033343
0.0354366
0.0375254
0.0396026
0.0416614
0.043695
0.0456968
0.0476601
0.0495784
0.0514456
0.0532557
0.0550026
0.0566804
0.0582832
0.0598053
0.0612412
0.0625857
0.0638341
0.0649818
0.0660249
0.0669593
0.0677819
0.06849
0.0690816
0.0695555
0.0699107
0.0701469
0.0702638
0.0702615
0.0701407
0.0699024
0.0695482
0.06908
0.0685005
0.0678128
0.0670205
0.0661272
0.0651369
0.0640537
0.0628818
0.0616254
0.0602886
0.0588757
0.0573908
0.0558368
0.0542163
0.0525423
0.0508255
0.0489149
0.0466804
0.01986
0.0173539
0.015235
0.0133569
0.0115466
0.00981497
0.00817486
0.00662673
0.00517097
0.00380908
0.00254305
0.00137516
0.0003077
-0.000657251
-0.00151792
-0.00227263
-0.00291972
-0.00345763
-0.0038849
-0.00420054
-0.00440404
-0.00449515
-0.00447387
-0.00434064
-0.00409608
-0.00374075
-0.00327548
-0.00270176
-0.00202142
-0.00123642
-0.000348913
0.000638454
0.00172267
0.00290074
0.00416971
0.00552637
0.0069669
0.00848691
0.0100818
0.011747
0.0134781
0.0152701
0.0171178
0.0190158
0.0209581
0.0229392
0.0249531
0.0269942
0.0290563
0.0311335
0.0332191
0.0353068
0.03739
0.039462
0.0415162
0.0435458
0.0455441
0.0475047
0.0494212
0.0512874
0.0530972
0.0548445
0.0565234
0.0581278
0.0596519
0.0610902
0.0624374
0.0636887
0.0648397
0.0658859
0.0668235
0.067649
0.0683596
0.0689532
0.0694282
0.0697835
0.0700182
0.0701318
0.0701242
0.0699956
0.0697468
0.0693789
0.0688936
0.0682931
0.0675801
0.0667575
0.0658286
0.0647969
0.063666
0.0624396
0.0611213
0.0597148
0.0582238
0.0566519
0.0550016
0.053275
0.0514859
0.0496454
0.0475905
0.0451811
0.0210922
0.0184126
0.0161514
0.0141519
0.0122293
0.0103949
0.00866201
0.00703047
0.00550015
0.00407213
0.00274799
0.0015294
0.000417876
-0.000585266
-0.00147882
-0.00226153
-0.00293216
-0.00348955
-0.0039328
-0.0042615
-0.00447567
-0.00457547
-0.00456117
-0.00443342
-0.00419305
-0.00384083
-0.00337785
-0.0028059
-0.00212702
-0.00134334
-0.000457113
0.000528986
0.00161195
0.00278875
0.00405641
0.00541165
0.00685061
0.00836887
0.00996184
0.011625
0.0133538
0.0151436
0.0169892
0.018885
0.0208255
0.0228048
0.0248173
0.0268572
0.0289186
0.0309953
0.0330809
0.0351691
0.0372531
0.0393263
0.0413822
0.0434141
0.0454154
0.0473796
0.0493004
0.0511717
0.0529871
0.0547406
0.0564261
0.0580375
0.0595688
0.0610144
0.0623691
0.0636278
0.0647859
0.0658391
0.0667831
0.0676146
0.0683304
0.0689283
0.0694063
0.069763
0.0699972
0.0701081
0.0700953
0.0699587
0.0696987
0.0693161
0.0688122
0.0681889
0.0674483
0.0665929
0.0656258
0.0645497
0.0633681
0.062084
0.0607009
0.0592217
0.0576499
0.0559887
0.0542401
0.052406
0.0505009
0.0485367
0.0463384
0.0437565
0.0222195
0.0193684
0.0169661
0.0148457
0.0128108
0.010873
0.00904616
0.00732965
0.00572293
0.00422686
0.00284257
0.00157102
0.000413019
-0.000630662
-0.00155923
-0.00237177
-0.00306746
-0.00364571
-0.00410623
-0.00444908
-0.00467476
-0.0047837
-0.00477642
-0.0046538
-0.00441686
-0.00406671
-0.00360479
-0.0030331
-0.00235386
-0.0015693
-0.000681787
0.000305983
0.00139097
0.0025701
0.00384029
0.00519819
0.00663985
0.00816083
0.00975657
0.0114226
0.0131544
0.0149473
0.0167962
0.0186957
0.02064
0.0226236
0.0246407
0.0266856
0.0287524
0.030835
0.0329269
0.0350218
0.0371129
0.0391938
0.0412579
0.0432985
0.0453091
0.0472832
0.0492146
0.0510969
0.0529239
0.0546894
0.0563871
0.0580109
0.0595546
0.0610126
0.0623795
0.06365
0.0648195
0.0658834
0.0668375
0.0676781
0.068402
0.0690066
0.0694898
0.0698495
0.0700845
0.0701936
0.0701761
0.0700316
0.0697601
0.0693623
0.0688388
0.0681913
0.0674214
0.0665314
0.0655237
0.0644009
0.063166
0.0618218
0.0603711
0.0588169
0.0571619
0.0554093
0.0535608
0.051618
0.0495962
0.047508
0.0451671
0.0424143
0.0232324
0.020212
0.0176696
0.015429
0.0132816
0.0112398
0.00931804
0.00751532
0.00583083
0.00426517
0.00281898
0.00149254
0.000286105
-0.000799895
-0.00176497
-0.00260865
-0.00333063
-0.00393089
-0.00440964
-0.00476745
-0.00500508
-0.00512323
-0.00512266
-0.0050045
-0.0047701
-0.00442093
-0.00395872
-0.00338564
-0.00270405
-0.00191628
-0.00102474
-3.22313e-05
0.00105815
0.00224323
0.0035198
0.00488438
0.00633298
0.00786116
0.00946439
0.0111382
0.0128781
0.0146795
0.0165373
0.0184461
0.0204002
0.022394
0.0244217
0.0264777
0.0285561
0.0306507
0.0327552
0.0348631
0.0369678
0.0390627
0.0411413
0.043197
0.0452233
0.0472137
0.0491619
0.0510614
0.0529059
0.0546891
0.0564047
0.0580463
0.0596078
0.0610833
0.0624671
0.0637542
0.0649394
0.0660181
0.066986
0.0678392
0.0685742
0.0691883
0.0696789
0.0700438
0.0702812
0.0703897
0.0703683
0.0702164
0.0699337
0.0695202
0.0689767
0.068304
0.0675037
0.0665775
0.0655275
0.0643562
0.0630659
0.0616594
0.0601391
0.0585075
0.0567675
0.0549216
0.0529717
0.050919
0.0487797
0.0465675
0.0440843
0.0411618
0.0241226
0.0209344
0.0182528
0.0158922
0.0136323
0.0114859
0.00946838
0.00757851
0.00581527
0.00417881
0.00266919
0.00128629
3.00393e-05
-0.00109948
-0.00210216
-0.00297799
-0.00372719
-0.0043503
-0.00484798
-0.00522115
-0.00547076
-0.00559779
-0.00560331
-0.00548879
-0.00525593
-0.00490649
-0.00444247
-0.00386617
-0.00318004
-0.00238649
-0.00148805
-0.000487612
0.000611589
0.00180626
0.00309304
0.00446837
0.00592817
0.00746805
0.00908348
0.01077
0.0125233
0.0143386
0.0162108
0.0181346
0.0201042
0.022114
0.0241584
0.0262316
0.0283277
0.0304406
0.0325639
0.0346911
0.0368157
0.0389311
0.0410307
0.043108
0.0451564
0.0471694
0.0491406
0.0510634
0.0529314
0.0547382
0.0564773
0.0581423
0.059727
0.0612251
0.062631
0.0639392
0.0651447
0.0662425
0.0672282
0.0680976
0.0688472
0.0694738
0.0699744
0.0703467
0.0705884
0.070698
0.070674
0.0705155
0.070222
0.0697932
0.0692294
0.0685311
0.0676995
0.0667361
0.0656427
0.0644213
0.0630741
0.0616034
0.0600116
0.058301
0.056474
0.0545334
0.0524805
0.0503169
0.0480594
0.0457225
0.0430972
0.0400056
0.0248819
0.0215268
0.0187066
0.0162261
0.0138534
0.0116021
0.00948819
0.00751057
0.00566775
0.00395943
0.00238525
0.000944809
-0.000362242
-0.00153613
-0.00257716
-0.00348587
-0.00426301
-0.00490952
-0.00542644
-0.00581491
-0.00607614
-0.00621144
-0.00622225
-0.00611039
-0.00587788
-0.00552676
-0.00505919
-0.00447761
-0.00378451
-0.00298241
-0.00207402
-0.00106239
4.91096e-05
0.00125705
0.00255792
0.00394805
0.00542335
0.00697945
0.00861187
0.0103162
0.012088
0.0139225
0.0158146
0.017759
0.0197499
0.0217817
0.0238487
0.0259452
0.0280651
0.0302025
0.0323509
0.0345038
0.0366547
0.038797
0.0409241
0.0430294
0.0451064
0.0471484
0.0491488
0.0511011
0.0529987
0.054835
0.0566035
0.0582976
0.0599108
0.0614369
0.06287
0.0642044
0.0654348
0.0665562
0.0675639
0.0684536
0.0692214
0.0698637
0.0703774
0.0707596
0.0710081
0.0711206
0.0710956
0.0709318
0.0706283
0.0701847
0.0696007
0.0688768
0.0680136
0.0670125
0.0658747
0.0646021
0.0631967
0.0616605
0.0599956
0.0582043
0.0562889
0.054252
0.052095
0.0498192
0.0474425
0.0449805
0.0422127
0.0389521
0.0255025
0.021981
0.0190224
0.0164219
0.0139363
0.0115798
0.00936921
0.00730331
0.0053802
0.00359916
0.00195958
0.000460858
-0.000897613
-0.00211643
-0.0031964
-0.00413853
-0.00494403
-0.00561413
-0.00615016
-0.0065535
-0.00682573
-0.0069685
-0.00698364
-0.00687331
-0.0066398
-0.00628536
-0.00581229
-0.00522309
-0.00452036
-0.0037068
-0.00278533
-0.00175917
-0.000631837
0.000593078
0.00191193
0.00332096
0.0048161
0.006393
0.00804725
0.00977438
0.0115699
0.013429
0.0153465
0.0173171
0.019335
0.0213946
0.0234902
0.025616
0.027766
0.029934
0.0321137
0.0342987
0.0364823
0.038658
0.0408192
0.0429591
0.0450711
0.0471485
0.0491846
0.0511726
0.053106
0.0549779
0.0567817
0.0585106
0.0601581
0.0617177
0.0631833
0.064549
0.0658094
0.0669591
0.0679934
0.0689075
0.0696973
0.070359
0.0708891
0.0712844
0.0715421
0.0716599
0.0716358
0.0714683
0.0711561
0.0706985
0.0700951
0.0693458
0.0684511
0.0674119
0.0662293
0.0649048
0.0634401
0.0618372
0.060098
0.0582246
0.0562194
0.0540849
0.0518224
0.0494333
0.0469365
0.0443485
0.0414377
0.0380074
0.0259765
0.022289
0.019192
0.0164712
0.0138726
0.0114107
0.00910328
0.00694858
0.00494448
0.00309004
0.0013845
-0.000172946
-0.00158322
-0.00284736
-0.00396665
-0.0049425
-0.0057764
-0.00646987
-0.00702451
-0.00744205
-0.00772445
-0.00787371
-0.00789207
-0.00778196
-0.00754587
-0.00718619
-0.00670536
-0.00610598
-0.0053908
-0.00456276
-0.00362497
-0.00258086
-0.00143411
-0.000188472
0.00115231
0.00258442
0.00410383
0.00570622
0.00738716
0.00914213
0.0109665
0.0128555
0.0148039
0.0168063
0.018857
0.0209503
0.0230804
0.0252415
0.0274277
0.0296327
0.0318502
0.0340736
0.0362965
0.0385121
0.0407137
0.0428947
0.0450483
0.0471676
0.0492458
0.0512761
0.0532515
0.0551652
0.0570103
0.0587801
0.0604677
0.0620665
0.0635702
0.0649726
0.0662682
0.0674513
0.0685169
0.06946
0.0702761
0.0709612
0.0715112
0.0719228
0.0721928
0.0723186
0.0722978
0.0721285
0.0718094
0.0713391
0.0707171
0.0699431
0.0690172
0.0679399
0.0667122
0.0653353
0.0638107
0.0621402
0.0603256
0.0583691
0.0562728
0.0540395
0.0516702
0.0491666
0.0465485
0.0438335
0.0407785
0.0371776
0.0262957
0.0224423
0.0192068
0.0163658
0.0136539
0.0110865
0.0086817
0.00643766
0.00435199
0.00242371
0.000651924
-0.000964473
-0.00242678
-0.00373648
-0.0048952
-0.00590467
-0.00676665
-0.00748293
-0.00805541
-0.00848627
-0.0087778
-0.0089324
-0.00895266
-0.00884119
-0.00860061
-0.00823346
-0.00774233
-0.00713
-0.0063994
-0.00555369
-0.00459624
-0.00353068
-0.00236086
-0.00109064
0.000276149
0.00173569
0.00328393
0.00491658
0.00662914
0.00841702
0.0102755
0.0121998
0.0141845
0.0162243
0.0183135
0.0204463
0.022617
0.0248195
0.027048
0.0292963
0.0315579
0.0338263
0.0360949
0.038357
0.0406058
0.0428344
0.0450362
0.047204
0.0493309
0.0514099
0.0534338
0.0553957
0.0572885
0.0591052
0.060839
0.0624829
0.0640305
0.0654754
0.0668116
0.0680334
0.0691353
0.0701122
0.0709592
0.0716719
0.0722459
0.0726775
0.0729632
0.0730999
0.073085
0.0729164
0.0725922
0.072111
0.0714717
0.0706739
0.0697174
0.0686024
0.0673297
0.0659001
0.0643151
0.0625763
0.0606855
0.0586448
0.0564564
0.0541229
0.0516457
0.0490262
0.0462856
0.0434423
0.0402417
0.0364684
0.0264527
0.0224329
0.0190587
0.0160973
0.0132718
0.0105982
0.00809563
0.00576175
0.00359415
0.00159183
-0.000246343
-0.00192179
-0.00343622
-0.00479146
-0.00598943
-0.0070321
-0.00792151
-0.00865975
-0.00924915
-0.00969224
-0.00999169
-0.0101503
-0.0101708
-0.0100561
-0.00980876
-0.00943162
-0.00892745
-0.00829921
-0.00755007
-0.0066834
-0.00570284
-0.00461224
-0.00341557
-0.00211678
-0.000719723
0.00077173
0.0023535
0.00402125
0.00577041
0.00759633
0.00949421
0.0114591
0.0134857
0.0155685
0.017702
0.0198802
0.0220973
0.0243475
0.0266246
0.0289225
0.0312347
0.0335546
0.0358755
0.0381907
0.0404932
0.0427762
0.0450328
0.0472558
0.0494381
0.0515724
0.0536514
0.055668
0.057615
0.0594852
0.0612714
0.0629667
0.0645642
0.0660573
0.06744
0.068706
0.0698497
0.0708655
0.0717482
0.072493
0.0730953
0.0735508
0.0738559
0.074007
0.0740012
0.073836
0.0735091
0.0730189
0.072364
0.0715437
0.0705575
0.0694055
0.068088
0.0666059
0.0649603
0.0631528
0.0611851
0.0590593
0.0567777
0.054343
0.0517564
0.0490198
0.0461551
0.0431818
0.0398339
0.035886
0.0264403
0.0222533
0.0187399
0.0156576
0.0127178
0.00993754
0.0073365
0.00491238
0.00266268
0.000586244
-0.00131834
-0.00305284
-0.00461931
-0.00601983
-0.00725658
-0.00833176
-0.00924773
-0.0100069
-0.0106121
-0.0110662
-0.0113722
-0.0115332
-0.011552
-0.0114318
-0.0111752
-0.0107854
-0.0102653
-0.00961805
-0.00884712
-0.00795612
-0.00694894
-0.0058296
-0.00460218
-0.00327063
-0.0018389
-0.000310924
0.00130914
0.00301689
0.00480771
0.00667684
0.00861939
0.0106303
0.0127043
0.0148359
0.0170193
0.0192489
0.0215186
0.0238225
0.0261546
0.0285086
0.0308779
0.0332559
0.0356357
0.0380106
0.0403736
0.0427177
0.0450358
0.0473208
0.0495653
0.0517617
0.0539027
0.0559808
0.0579886
0.0599189
0.0617642
0.0635172
0.065171
0.0667187
0.0681538
0.0694699
0.070661
0.071721
0.0726446
0.0734264
0.0740616
0.0745455
0.074874
0.0750433
0.07505
0.0748912
0.0745645
0.0740676
0.0733992
0.0725581
0.0715436
0.0703555
0.0689939
0.0674596
0.0657534
0.063877
0.061832
0.0596204
0.0572446
0.0547074
0.0520101
0.0491547
0.0461643