/*--------------------------------*- C++ -*----------------------------------*\
  =========                 |
  \\      /  F ield         | OpenFOAM: The Open Source CFD Toolbox
   \\    /   O peration     | Website:  https://openfoam.org
    \\  /    A nd           | Version:  11
     \\/     M anipulation  |
\*---------------------------------------------------------------------------*/
FoamFile
{
    format      ascii;
    class       volVectorField;
    location    "6.2";
    object      U;
}
// * * * * * * * * * * * * * * * * * * * * * * * * * * * * * * * * * * * * * //

dimensions      [0 1 -1 0 0 0 0];

internalField   nonuniform List<vector> 
10100
(
(2.44749e-06 -3.56902e-06 0)
(1.47737e-05 -8.33146e-06 0)
(3.32577e-05 -8.97273e-06 0)
(5.09445e-05 -7.66924e-06 0)
(6.22342e-05 -5.16636e-06 0)
(6.52011e-05 -2.08344e-06 0)
(5.86705e-05 1.22302e-06 0)
(4.21001e-05 4.56446e-06 0)
(1.53841e-05 7.83986e-06 0)
(-2.12806e-05 1.09851e-05 0)
(-6.75396e-05 1.39555e-05 0)
(-0.0001229 1.67238e-05 0)
(-0.000186811 1.92845e-05 0)
(-0.000258667 2.16321e-05 0)
(-0.00033783 2.37633e-05 0)
(-0.00042364 2.56785e-05 0)
(-0.00051543 2.73822e-05 0)
(-0.000612536 2.88803e-05 0)
(-0.000714295 3.01733e-05 0)
(-0.000820045 3.12617e-05 0)
(-0.000929142 3.21533e-05 0)
(-0.00104095 3.2857e-05 0)
(-0.00115486 3.33792e-05 0)
(-0.00127026 3.37269e-05 0)
(-0.00138657 3.39063e-05 0)
(-0.00150323 3.39224e-05 0)
(-0.0016197 3.37812e-05 0)
(-0.00173545 3.34905e-05 0)
(-0.00184998 3.30557e-05 0)
(-0.0019628 3.24804e-05 0)
(-0.00207343 3.17697e-05 0)
(-0.00218144 3.09325e-05 0)
(-0.00228639 2.99786e-05 0)
(-0.00238788 2.8915e-05 0)
(-0.00248553 2.77448e-05 0)
(-0.00257898 2.6471e-05 0)
(-0.00266788 2.50999e-05 0)
(-0.00275192 2.36398e-05 0)
(-0.00283079 2.2098e-05 0)
(-0.0029042 2.04808e-05 0)
(-0.00297191 1.87929e-05 0)
(-0.00303367 1.70387e-05 0)
(-0.00308927 1.5224e-05 0)
(-0.0031385 1.33556e-05 0)
(-0.0031812 1.1441e-05 0)
(-0.0032172 9.4865e-06 0)
(-0.00324639 7.49698e-06 0)
(-0.00326864 5.47748e-06 0)
(-0.00328386 3.43347e-06 0)
(-0.00329199 1.37113e-06 0)
(-0.00329297 -7.02418e-07 0)
(-0.0032868 -2.77992e-06 0)
(-0.00327347 -4.85393e-06 0)
(-0.003253 -6.91702e-06 0)
(-0.00322545 -8.9627e-06 0)
(-0.0031909 -1.09847e-05 0)
(-0.00314944 -1.29764e-05 0)
(-0.00310119 -1.49302e-05 0)
(-0.00304631 -1.68377e-05 0)
(-0.00298497 -1.869e-05 0)
(-0.00291739 -2.04787e-05 0)
(-0.00284379 -2.2196e-05 0)
(-0.00276443 -2.38341e-05 0)
(-0.0026796 -2.53858e-05 0)
(-0.00258962 -2.68433e-05 0)
(-0.00249481 -2.81986e-05 0)
(-0.00239555 -2.94441e-05 0)
(-0.00229223 -3.05725e-05 0)
(-0.00218525 -3.15763e-05 0)
(-0.00207507 -3.24483e-05 0)
(-0.00196215 -3.31814e-05 0)
(-0.00184697 -3.37682e-05 0)
(-0.00173005 -3.42011e-05 0)
(-0.00161193 -3.44735e-05 0)
(-0.00149315 -3.45797e-05 0)
(-0.0013743 -3.45144e-05 0)
(-0.00125597 -3.42726e-05 0)
(-0.00113876 -3.38497e-05 0)
(-0.0010233 -3.32403e-05 0)
(-0.000910218 -3.24384e-05 0)
(-0.00080017 -3.14382e-05 0)
(-0.000693817 -3.02353e-05 0)
(-0.000591825 -2.88271e-05 0)
(-0.000494866 -2.72121e-05 0)
(-0.000403607 -2.539e-05 0)
(-0.000318707 -2.33614e-05 0)
(-0.000240812 -2.11283e-05 0)
(-0.000170547 -1.86945e-05 0)
(-0.000108503 -1.60674e-05 0)
(-5.52286e-05 -1.32587e-05 0)
(-1.12059e-05 -1.02849e-05 0)
(2.31715e-05 -7.17154e-06 0)
(4.76391e-05 -3.95971e-06 0)
(6.21208e-05 -7.17279e-07 0)
(6.6826e-05 2.44109e-06 0)
(6.24001e-05 5.3175e-06 0)
(5.01357e-05 7.5694e-06 0)
(3.24191e-05 8.58378e-06 0)
(1.40436e-05 7.31422e-06 0)
(2.76287e-06 2.75401e-06 0)
(6.68422e-06 -1.43961e-05 0)
(2.91795e-05 -3.11727e-05 0)
(5.98274e-05 -3.26284e-05 0)
(8.41729e-05 -2.47738e-05 0)
(9.30689e-05 -1.10287e-05 0)
(8.13961e-05 6.09284e-06 0)
(4.59473e-05 2.49709e-05 0)
(-1.50179e-05 4.45089e-05 0)
(-0.000102153 6.40474e-05 0)
(-0.000215354 8.31114e-05 0)
(-0.00035396 0.000101406 0)
(-0.000516945 0.000118719 0)
(-0.000703014 0.000134923 0)
(-0.000910683 0.000149926 0)
(-0.00113834 0.000163666 0)
(-0.00138429 0.000176119 0)
(-0.00164677 0.00018727 0)
(-0.00192401 0.000197117 0)
(-0.0022142 0.000205665 0)
(-0.00251557 0.00021293 0)
(-0.00282634 0.000218933 0)
(-0.00314475 0.000223702 0)
(-0.00346909 0.000227267 0)
(-0.00379769 0.000229661 0)
(-0.00412891 0.000230924 0)
(-0.00446116 0.000231094 0)
(-0.00479289 0.000230204 0)
(-0.00512261 0.000228291 0)
(-0.0054489 0.00022539 0)
(-0.00577035 0.000221539 0)
(-0.00608564 0.000216778 0)
(-0.0063935 0.000211152 0)
(-0.00669269 0.000204706 0)
(-0.00698207 0.000197478 0)
(-0.00726052 0.000189509 0)
(-0.00752702 0.000180837 0)
(-0.00778058 0.000171505 0)
(-0.00802027 0.000161554 0)
(-0.00824522 0.000151026 0)
(-0.00845461 0.00013996 0)
(-0.00864771 0.000128397 0)
(-0.00882384 0.00011638 0)
(-0.00898236 0.000103951 0)
(-0.0091227 9.11548e-05 0)
(-0.00924437 7.8033e-05 0)
(-0.00934692 6.46274e-05 0)
(-0.00942995 5.0978e-05 0)
(-0.00949317 3.71267e-05 0)
(-0.00953632 2.3118e-05 0)
(-0.00955921 8.99706e-06 0)
(-0.00956172 -5.18895e-06 0)
(-0.0095438 -1.93925e-05 0)
(-0.00950544 -3.35662e-05 0)
(-0.00944674 -4.76619e-05 0)
(-0.00936785 -6.16319e-05 0)
(-0.00926898 -7.54289e-05 0)
(-0.00915043 -8.90033e-05 0)
(-0.00901258 -0.000102303 0)
(-0.00885586 -0.000115276 0)
(-0.00868079 -0.000127866 0)
(-0.00848796 -0.00014002 0)
(-0.00827803 -0.000151685 0)
(-0.00805175 -0.000162808 0)
(-0.00780993 -0.000173337 0)
(-0.00755347 -0.000183221 0)
(-0.00728333 -0.000192408 0)
(-0.00700056 -0.000200845 0)
(-0.00670627 -0.000208483 0)
(-0.00640164 -0.00021527 0)
(-0.00608793 -0.000221159 0)
(-0.00576647 -0.000226102 0)
(-0.00543863 -0.000230053 0)
(-0.00510587 -0.000232966 0)
(-0.0047697 -0.000234799 0)
(-0.00443169 -0.000235513 0)
(-0.00409345 -0.000235072 0)
(-0.00375667 -0.000233445 0)
(-0.00342303 -0.000230601 0)
(-0.0030943 -0.000226511 0)
(-0.00277225 -0.00022115 0)
(-0.00245869 -0.000214495 0)
(-0.00215545 -0.000206531 0)
(-0.00186434 -0.000197251 0)
(-0.00158719 -0.000186658 0)
(-0.00132581 -0.000174765 0)
(-0.00108196 -0.000161595 0)
(-0.000857331 -0.000147187 0)
(-0.000653549 -0.000131598 0)
(-0.000472116 -0.000114911 0)
(-0.00031437 -9.72411e-05 0)
(-0.000181433 -7.87486e-05 0)
(-7.41261e-05 -5.96601e-05 0)
(7.13356e-06 -4.03004e-05 0)
(6.24877e-05 -2.11426e-05 0)
(9.28558e-05 -2.88957e-06 0)
(0.000100236 1.34022e-05 0)
(8.80456e-05 2.61377e-05 0)
(6.16712e-05 3.29013e-05 0)
(3.02239e-05 3.01489e-05 0)
(7.35439e-06 1.40408e-05 0)
(8.14032e-06 -3.23738e-05 0)
(3.12398e-05 -6.07347e-05 0)
(5.75335e-05 -5.91236e-05 0)
(7.08303e-05 -3.66309e-05 0)
(6.00105e-05 -3.16932e-07 0)
(1.82573e-05 4.46448e-05 0)
(-5.88697e-05 9.44966e-05 0)
(-0.000174006 0.000146637 0)
(-0.000328338 0.000199216 0)
(-0.000521954 0.000250967 0)
(-0.000754105 0.000300983 0)
(-0.00102345 0.000348627 0)
(-0.00132818 0.000393452 0)
(-0.0016662 0.000435152 0)
(-0.00203514 0.000473514 0)
(-0.00243246 0.000508403 0)
(-0.00285553 0.000539741 0)
(-0.00330165 0.00056749 0)
(-0.00376806 0.000591643 0)
(-0.004252 0.000612226 0)
(-0.0047507 0.000629281 0)
(-0.00526144 0.000642863 0)
(-0.00578154 0.000653043 0)
(-0.00630834 0.000659902 0)
(-0.00683928 0.000663537 0)
(-0.0073718 0.000664044 0)
(-0.00790348 0.000661519 0)
(-0.00843193 0.000656064 0)
(-0.00895486 0.000647779 0)
(-0.00947006 0.000636772 0)
(-0.00997541 0.000623157 0)
(-0.0104688 0.000607051 0)
(-0.0109484 0.000588571 0)
(-0.0114123 0.000567833 0)
(-0.0118587 0.00054495 0)
(-0.0122859 0.000520041 0)
(-0.0126924 0.000493222 0)
(-0.0130766 0.000464613 0)
(-0.0134372 0.000434331 0)
(-0.0137729 0.000402493 0)
(-0.0140824 0.00036922 0)
(-0.0143647 0.000334632 0)
(-0.0146187 0.000298853 0)
(-0.0148436 0.000262007 0)
(-0.0150385 0.000224216 0)
(-0.0152027 0.000185603 0)
(-0.0153356 0.000146292 0)
(-0.0154367 0.000106408 0)
(-0.0155056 6.60806e-05 0)
(-0.015542 2.54408e-05 0)
(-0.0155456 -1.53781e-05 0)
(-0.0155166 -5.624e-05 0)
(-0.0154547 -9.70075e-05 0)
(-0.0153603 -0.000137542 0)
(-0.0152335 -0.000177704 0)
(-0.0150747 -0.000217351 0)
(-0.0148844 -0.00025634 0)
(-0.0146631 -0.000294524 0)
(-0.0144117 -0.000331754 0)
(-0.0141309 -0.000367877 0)
(-0.0138217 -0.000402741 0)
(-0.0134852 -0.000436196 0)
(-0.0131225 -0.000468091 0)
(-0.0127349 -0.000498277 0)
(-0.012324 -0.000526604 0)
(-0.0118912 -0.000552924 0)
(-0.0114382 -0.000577091 0)
(-0.0109668 -0.000598959 0)
(-0.0104789 -0.000618388 0)
(-0.00997653 -0.00063524 0)
(-0.00946172 -0.000649382 0)
(-0.00893672 -0.000660683 0)
(-0.00840384 -0.000669021 0)
(-0.00786548 -0.000674278 0)
(-0.00732413 -0.000676345 0)
(-0.00678236 -0.000675123 0)
(-0.00624281 -0.000670521 0)
(-0.00570819 -0.00066246 0)
(-0.00518125 -0.000650868 0)
(-0.00466479 -0.000635687 0)
(-0.00416165 -0.00061687 0)
(-0.00367465 -0.000594395 0)
(-0.00320664 -0.000568258 0)
(-0.00276043 -0.000538487 0)
(-0.00233878 -0.000505139 0)
(-0.00194437 -0.000468308 0)
(-0.00157979 -0.000428134 0)
(-0.00124743 -0.000384817 0)
(-0.000949512 -0.000338633 0)
(-0.000687945 -0.000289955 0)
(-0.000464282 -0.000239293 0)
(-0.000279581 -0.000187339 0)
(-0.000134261 -0.000135044 0)
(-2.7893e-05 -8.3727e-05 0)
(4.10595e-05 -3.52265e-05 0)
(7.55817e-05 7.87651e-06 0)
(8.04353e-05 4.19748e-05 0)
(6.26228e-05 6.21119e-05 0)
(3.32157e-05 6.16812e-05 0)
(8.67829e-06 3.25062e-05 0)
(7.02823e-06 -4.87237e-05 0)
(2.37299e-05 -8.41324e-05 0)
(3.53813e-05 -7.21965e-05 0)
(2.56521e-05 -2.6752e-05 0)
(-1.70115e-05 4.16693e-05 0)
(-0.000100118 0.000125035 0)
(-0.000228775 0.000217303 0)
(-0.000406091 0.000314047 0)
(-0.000633567 0.000412015 0)
(-0.000911413 0.000508855 0)
(-0.00123885 0.000602833 0)
(-0.00161431 0.000692696 0)
(-0.00203565 0.000777534 0)
(-0.00250023 0.000856693 0)
(-0.00300513 0.000929716 0)
(-0.00354714 0.000996288 0)
(-0.0041229 0.0010562 0)
(-0.0047289 0.00110935 0)
(-0.00536159 0.0011557 0)
(-0.00601736 0.00119524 0)
(-0.00669259 0.00122805 0)
(-0.00738369 0.0012542 0)
(-0.00808712 0.00127381 0)
(-0.00879936 0.00128702 0)
(-0.00951697 0.001294 0)
(-0.0102366 0.00129492 0)
(-0.0109549 0.00128996 0)
(-0.0116688 0.0012793 0)
(-0.0123752 0.00126315 0)
(-0.0130712 0.00124171 0)
(-0.0137537 0.0012152 0)
(-0.0144202 0.00118383 0)
(-0.0150679 0.00114783 0)
(-0.0156944 0.00110741 0)
(-0.0162973 0.0010628 0)
(-0.0168743 0.00101423 0)
(-0.0174232 0.000961929 0)
(-0.0179421 0.000906125 0)
(-0.018429 0.000847047 0)
(-0.0188823 0.000784927 0)
(-0.0193002 0.000719999 0)
(-0.0196813 0.000652501 0)
(-0.0200242 0.000582672 0)
(-0.0203277 0.000510754 0)
(-0.0205907 0.000436989 0)
(-0.0208122 0.000361618 0)
(-0.0209914 0.000284889 0)
(-0.0211277 0.000207049 0)
(-0.0212204 0.000128353 0)
(-0.0212692 4.90578e-05 0)
(-0.0212738 -3.05744e-05 0)
(-0.0212342 -0.000110279 0)
(-0.0211504 -0.000189788 0)
(-0.0210225 -0.00026883 0)
(-0.0208509 -0.00034713 0)
(-0.0206362 -0.00042441 0)
(-0.0203789 -0.000500389 0)
(-0.0200799 -0.000574781 0)
(-0.0197402 -0.000647296 0)
(-0.0193609 -0.000717644 0)
(-0.0189433 -0.000785531 0)
(-0.0184889 -0.000850664 0)
(-0.0179991 -0.000912753 0)
(-0.0174759 -0.000971505 0)
(-0.0169212 -0.00102663 0)
(-0.016337 -0.00107785 0)
(-0.0157256 -0.00112487 0)
(-0.0150894 -0.00116741 0)
(-0.0144309 -0.00120522 0)
(-0.0137529 -0.00123801 0)
(-0.0130581 -0.00126553 0)
(-0.0123495 -0.00128755 0)
(-0.0116302 -0.00130381 0)
(-0.0109035 -0.00131411 0)
(-0.0101727 -0.00131823 0)
(-0.00944108 -0.00131599 0)
(-0.00871231 -0.00130722 0)
(-0.00798994 -0.00129178 0)
(-0.00727762 -0.00126954 0)
(-0.00657907 -0.0012404 0)
(-0.00589801 -0.0012043 0)
(-0.00523819 -0.00116122 0)
(-0.0046033 -0.00111118 0)
(-0.00399703 -0.00105425 0)
(-0.00342296 -0.000990581 0)
(-0.00288454 -0.000920378 0)
(-0.00238508 -0.000843955 0)
(-0.00192761 -0.000761738 0)
(-0.00151491 -0.000674304 0)
(-0.00114934 -0.00058242 0)
(-0.00083276 -0.000487107 0)
(-0.000566381 -0.00038972 0)
(-0.000350609 -0.000292066 0)
(-0.000184812 -0.000196565 0)
(-6.70581e-05 -0.000106461 0)
(6.20224e-06 -2.61209e-05 0)
(4.04311e-05 3.8626e-05 0)
(4.34033e-05 8.0124e-05 0)
(2.68411e-05 8.84881e-05 0)
(7.74136e-06 5.04744e-05 0)
(4.74945e-06 -5.96878e-05 0)
(1.06345e-05 -9.26999e-05 0)
(1.1942e-07 -6.14777e-05 0)
(-4.1395e-05 1.58202e-05 0)
(-0.000124873 0.000125398 0)
(-0.000257967 0.000256451 0)
(-0.000445884 0.00040072 0)
(-0.00069187 0.000551899 0)
(-0.000997523 0.000705238 0)
(-0.00136308 0.000857161 0)
(-0.00178766 0.00100498 0)
(-0.0022695 0.0011467 0)
(-0.00280615 0.00128082 0)
(-0.00339459 0.00140624 0)
(-0.0040314 0.00152217 0)
(-0.00471282 0.00162805 0)
(-0.00543486 0.0017235 0)
(-0.00619339 0.00180828 0)
(-0.0069841 0.00188228 0)
(-0.00780269 0.00194549 0)
(-0.00864478 0.00199794 0)
(-0.00950603 0.00203976 0)
(-0.0103821 0.0020711 0)
(-0.0112687 0.00209217 0)
(-0.0121617 0.00210321 0)
(-0.0130569 0.00210446 0)
(-0.0139504 0.00209623 0)
(-0.0148381 0.00207879 0)
(-0.0157164 0.00205246 0)
(-0.0165814 0.00201757 0)
(-0.0174299 0.00197446 0)
(-0.0182582 0.00192348 0)
(-0.0190632 0.00186496 0)
(-0.0198417 0.00179928 0)
(-0.0205909 0.00172679 0)
(-0.0213078 0.00164786 0)
(-0.0219898 0.00156286 0)
(-0.0226345 0.00147216 0)
(-0.0232395 0.00137613 0)
(-0.0238025 0.00127515 0)
(-0.0243217 0.00116961 0)
(-0.024795 0.00105988 0)
(-0.0252209 0.000946368 0)
(-0.0255977 0.000829452 0)
(-0.0259242 0.000709532 0)
(-0.0261992 0.000587006 0)
(-0.0264215 0.000462277 0)
(-0.0265905 0.000335754 0)
(-0.0267053 0.00020785 0)
(-0.0267656 7.89852e-05 0)
(-0.0267711 -5.04141e-05 0)
(-0.0267215 -0.000179917 0)
(-0.026617 -0.000309086 0)
(-0.0264578 -0.000437479 0)
(-0.0262444 -0.000564649 0)
(-0.0259774 -0.000690144 0)
(-0.0256575 -0.000813506 0)
(-0.0252859 -0.000934271 0)
(-0.0248638 -0.00105197 0)
(-0.0243925 -0.00116614 0)
(-0.0238736 -0.0012763 0)
(-0.023309 -0.00138199 0)
(-0.0227007 -0.00148272 0)
(-0.0220508 -0.00157804 0)
(-0.0213618 -0.00166746 0)
(-0.0206363 -0.00175054 0)
(-0.019877 -0.00182682 0)
(-0.0190868 -0.00189585 0)
(-0.018269 -0.00195719 0)
(-0.0174269 -0.00201042 0)
(-0.0165639 -0.00205514 0)
(-0.0156837 -0.00209094 0)
(-0.0147902 -0.00211746 0)
(-0.0138872 -0.00213434 0)
(-0.0129789 -0.00214127 0)
(-0.0120694 -0.00213796 0)
(-0.0111631 -0.00212414 0)
(-0.0102644 -0.00209959 0)
(-0.00937765 -0.00206414 0)
(-0.00850748 -0.00201764 0)
(-0.00765837 -0.00196003 0)
(-0.00683485 -0.0018913 0)
(-0.00604141 -0.00181151 0)
(-0.00528245 -0.00172082 0)
(-0.00456227 -0.0016195 0)
(-0.00388499 -0.00150792 0)
(-0.0032545 -0.00138664 0)
(-0.0026744 -0.00125639 0)
(-0.0021479 -0.00111814 0)
(-0.00167774 -0.000973162 0)
(-0.00126603 -0.000823107 0)
(-0.000914142 -0.000670132 0)
(-0.000622514 -0.000517042 0)
(-0.000390442 -0.000367486 0)
(-0.000215841 -0.000226225 0)
(-9.49604e-05 -9.94589e-05 0)
(-2.21246e-05 4.76819e-06 0)
(1.06259e-05 7.6173e-05 0)
(1.46631e-05 0.000101666 0)
(5.60119e-06 6.32415e-05 0)
(1.91821e-06 -6.26997e-05 0)
(-5.71749e-06 -8.12692e-05 0)
(-4.34296e-05 -2.03734e-05 0)
(-0.000122908 9.83968e-05 0)
(-0.000253805 0.000258295 0)
(-0.00044333 0.000446047 0)
(-0.00069646 0.000651223 0)
(-0.00101629 0.000865719 0)
(-0.00140428 0.00108327 0)
(-0.00186053 0.00129903 0)
(-0.002384 0.0015093 0)
(-0.00297271 0.00171124 0)
(-0.00362391 0.00190268 0)
(-0.00433424 0.002082 0)
(-0.00509984 0.002248 0)
(-0.00591649 0.00239981 0)
(-0.00677968 0.00253682 0)
(-0.00768466 0.00265864 0)
(-0.00862656 0.00276506 0)
(-0.00960042 0.00285599 0)
(-0.0106012 0.00293145 0)
(-0.0116239 0.00299157 0)
(-0.0126635 0.00303656 0)
(-0.013715 0.00306668 0)
(-0.0147736 0.00308225 0)
(-0.0158344 0.00308361 0)
(-0.0168928 0.00307116 0)
(-0.0179442 0.00304532 0)
(-0.0189841 0.00300653 0)
(-0.0200082 0.00295525 0)
(-0.0210124 0.00289198 0)
(-0.0219928 0.00281719 0)
(-0.0229454 0.00273141 0)
(-0.0238666 0.00263513 0)
(-0.0247529 0.0025289 0)
(-0.0256011 0.00241324 0)
(-0.0264079 0.00228868 0)
(-0.0271705 0.00215578 0)
(-0.027886 0.00201508 0)
(-0.0285519 0.00186713 0)
(-0.0291658 0.00171249 0)
(-0.0297255 0.00155173 0)
(-0.030229 0.00138541 0)
(-0.0306745 0.00121412 0)
(-0.0310604 0.00103843 0)
(-0.0313854 0.000858929 0)
(-0.0316481 0.00067621 0)
(-0.0318476 0.000490875 0)
(-0.0319831 0.000303532 0)
(-0.0320541 0.000114797 0)
(-0.0320603 -7.47039e-05 0)
(-0.0320014 -0.000264339 0)
(-0.0318775 -0.000453467 0)
(-0.031689 -0.00064144 0)
(-0.0314363 -0.000827602 0)
(-0.0311203 -0.00101129 0)
(-0.0307418 -0.00119184 0)
(-0.0303022 -0.00136856 0)
(-0.0298028 -0.00154079 0)
(-0.0292454 -0.00170783 0)
(-0.0286317 -0.001869 0)
(-0.027964 -0.0020236 0)
(-0.0272447 -0.00217096 0)
(-0.0264762 -0.00231039 0)
(-0.0256614 -0.00244121 0)
(-0.0248034 -0.00256276 0)
(-0.0239055 -0.00267436 0)
(-0.0229711 -0.00277539 0)
(-0.022004 -0.00286519 0)
(-0.0210079 -0.00294317 0)
(-0.0199871 -0.00300874 0)
(-0.0189458 -0.00306132 0)
(-0.0178885 -0.0031004 0)
(-0.0168198 -0.00312547 0)
(-0.0157445 -0.00313608 0)
(-0.0146674 -0.00313181 0)
(-0.0135936 -0.00311231 0)
(-0.0125283 -0.00307728 0)
(-0.0114765 -0.00302647 0)
(-0.0104436 -0.00295973 0)
(-0.00943467 -0.00287698 0)
(-0.00845508 -0.00277824 0)
(-0.00750993 -0.00266364 0)
(-0.00660429 -0.00253345 0)
(-0.00574306 -0.0023881 0)
(-0.00493094 -0.00222821 0)
(-0.00417235 -0.0020546 0)
(-0.00347136 -0.00186839 0)
(-0.00283157 -0.00167101 0)
(-0.00225606 -0.00146434 0)
(-0.00174719 -0.00125074 0)
(-0.00130652 -0.00103326 0)
(-0.000934602 -0.000815781 0)
(-0.000630823 -0.000603236 0)
(-0.00039316 -0.000401918 0)
(-0.000217976 -0.000219829 0)
(-9.97624e-05 -6.71159e-05 0)
(-3.08307e-05 4.34936e-05 0)
(-9.21884e-07 9.60153e-05 0)
(2.86975e-06 6.85103e-05 0)
(-1.14086e-06 -5.66175e-05 0)
(-2.37802e-05 -4.67598e-05 0)
(-9.19414e-05 5.55897e-05 0)
(-0.000213546 0.000226162 0)
(-0.000396427 0.000445835 0)
(-0.000647084 0.000699137 0)
(-0.000969917 0.00097369 0)
(-0.00136756 0.00125971 0)
(-0.00184116 0.00154946 0)
(-0.00239056 0.00183685 0)
(-0.00301445 0.00211712 0)
(-0.00371058 0.00238656 0)
(-0.00447588 0.00264229 0)
(-0.00530666 0.00288211 0)
(-0.00619867 0.00310435 0)
(-0.00714725 0.00330779 0)
(-0.00814741 0.00349155 0)
(-0.00919392 0.00365505 0)
(-0.0102813 0.00379793 0)
(-0.0114042 0.00392001 0)
(-0.0125568 0.0040213 0)
(-0.0137336 0.00410191 0)
(-0.0149289 0.00416208 0)
(-0.0161372 0.00420213 0)
(-0.0173529 0.00422245 0)
(-0.0185707 0.00422351 0)
(-0.0197853 0.0042058 0)
(-0.0209914 0.00416988 0)
(-0.022184 0.00411634 0)
(-0.0233583 0.00404579 0)
(-0.0245096 0.00395888 0)
(-0.0256332 0.00385628 0)
(-0.0267249 0.00373865 0)
(-0.0277805 0.00360671 0)
(-0.0287961 0.00346116 0)
(-0.0297677 0.00330272 0)
(-0.0306919 0.00313213 0)
(-0.0315654 0.00295012 0)
(-0.0323848 0.00275745 0)
(-0.0331474 0.00255486 0)
(-0.0338504 0.00234313 0)
(-0.0344912 0.00212302 0)
(-0.0350677 0.00189532 0)
(-0.0355777 0.00166082 0)
(-0.0360194 0.0014203 0)
(-0.0363912 0.00117458 0)
(-0.0366918 0.000924478 0)
(-0.03692 0.000670805 0)
(-0.037075 0.000414401 0)
(-0.037156 0.000156112 0)
(-0.0371628 -0.000103206 0)
(-0.0370951 -0.000362688 0)
(-0.036953 -0.000621455 0)
(-0.036737 -0.00087862 0)
(-0.0364475 -0.00113329 0)
(-0.0360855 -0.00138455 0)
(-0.035652 -0.0016315 0)
(-0.0351485 -0.0018732 0)
(-0.0345767 -0.00210873 0)
(-0.0339383 -0.00233716 0)
(-0.0332356 -0.00255755 0)
(-0.0324711 -0.00276897 0)
(-0.0316474 -0.00297047 0)
(-0.0307674 -0.00316115 0)
(-0.0298345 -0.00334006 0)
(-0.028852 -0.00350631 0)
(-0.0278237 -0.00365901 0)
(-0.0267536 -0.00379727 0)
(-0.0256458 -0.00392025 0)
(-0.0245048 -0.00402711 0)
(-0.0233352 -0.00411708 0)
(-0.022142 -0.00418939 0)
(-0.0209301 -0.00424333 0)
(-0.0197047 -0.00427825 0)
(-0.0184714 -0.00429353 0)
(-0.0172355 -0.00428864 0)
(-0.0160029 -0.00426312 0)
(-0.0147792 -0.00421657 0)
(-0.0135703 -0.0041487 0)
(-0.012382 -0.00405932 0)
(-0.0112203 -0.00394838 0)
(-0.0100909 -0.00381592 0)
(-0.00899965 -0.00366219 0)
(-0.00795218 -0.00348759 0)
(-0.00695394 -0.00329275 0)
(-0.00601014 -0.00307854 0)
(-0.00512566 -0.00284615 0)
(-0.004305 -0.00259711 0)
(-0.00355215 -0.00233339 0)
(-0.00287049 -0.00205751 0)
(-0.00226269 -0.00177262 0)
(-0.00173054 -0.0014827 0)
(-0.00127482 -0.00119272 0)
(-0.000895139 -0.000908917 0)
(-0.000589749 -0.000639066 0)
(-0.000355376 -0.000392869 0)
(-0.000186988 -0.000182401 0)
(-7.75261e-05 -2.25542e-05 0)
(-1.83748e-05 6.82415e-05 0)
(-1.17497e-07 6.50591e-05 0)
(-4.24322e-06 -4.09271e-05 0)
(-4.26686e-05 1.26892e-05 0)
(-0.00014309 0.000169253 0)
(-0.000309459 0.000402645 0)
(-0.000547424 0.000691843 0)
(-0.000862466 0.00101955 0)
(-0.00125818 0.0013717 0)
(-0.00173658 0.00173698 0)
(-0.00229831 0.00210629 0)
(-0.00294277 0.00247234 0)
(-0.00366832 0.00282934 0)
(-0.00447236 0.0031727 0)
(-0.00535149 0.00349879 0)
(-0.00630165 0.00380482 0)
(-0.00731821 0.00408862 0)
(-0.00839609 0.00434858 0)
(-0.00952989 0.00458352 0)
(-0.0107139 0.00479262 0)
(-0.0119422 0.00497535 0)
(-0.0132088 0.00513145 0)
(-0.0145074 0.00526087 0)
(-0.0158321 0.0053637 0)
(-0.0171765 0.0054402 0)
(-0.0185347 0.00549075 0)
(-0.0199004 0.00551581 0)
(-0.0212677 0.00551596 0)
(-0.0226308 0.00549181 0)
(-0.023984 0.00544408 0)
(-0.0253216 0.00537348 0)
(-0.0266383 0.00528081 0)
(-0.0279289 0.0051669 0)
(-0.0291883 0.00503258 0)
(-0.0304116 0.00487873 0)
(-0.0315943 0.00470626 0)
(-0.032732 0.00451608 0)
(-0.0338203 0.00430912 0)
(-0.0348554 0.00408634 0)
(-0.0358335 0.00384869 0)
(-0.0367511 0.00359715 0)
(-0.0376049 0.00333269 0)
(-0.0383919 0.00305632 0)
(-0.0391093 0.00276904 0)
(-0.0397545 0.00247187 0)
(-0.0403253 0.00216583 0)
(-0.0408196 0.00185198 0)
(-0.0412357 0.00153136 0)
(-0.041572 0.00120502 0)
(-0.0418273 0.000874059 0)
(-0.0420006 0.000539554 0)
(-0.0420911 0.000202612 0)
(-0.0420985 -0.000135651 0)
(-0.0420226 -0.000474103 0)
(-0.0418634 -0.000811603 0)
(-0.0416214 -0.00114699 0)
(-0.0412973 -0.0014791 0)
(-0.040892 -0.00180676 0)
(-0.0404068 -0.00212876 0)
(-0.0398432 -0.00244392 0)
(-0.0392031 -0.00275102 0)
(-0.0384885 -0.00304886 0)
(-0.037702 -0.00333621 0)
(-0.0368462 -0.00361188 0)
(-0.0359241 -0.00387463 0)
(-0.0349391 -0.00412329 0)
(-0.0338946 -0.00435665 0)
(-0.0327946 -0.00457354 0)
(-0.0316432 -0.00477281 0)
(-0.0304448 -0.00495332 0)
(-0.0292041 -0.00511399 0)
(-0.0279259 -0.00525374 0)
(-0.0266155 -0.00537157 0)
(-0.0252782 -0.00546652 0)
(-0.0239196 -0.00553766 0)
(-0.0225455 -0.00558417 0)
(-0.0211618 -0.00560527 0)
(-0.0197748 -0.0056003 0)
(-0.0183906 -0.00556868 0)
(-0.0170156 -0.00550992 0)
(-0.0156561 -0.00542369 0)
(-0.0143187 -0.00530977 0)
(-0.0130098 -0.00516813 0)
(-0.0117359 -0.00499888 0)
(-0.0105031 -0.00480238 0)
(-0.00931771 -0.00457919 0)
(-0.00818566 -0.00433018 0)
(-0.00711262 -0.00405652 0)
(-0.00610392 -0.00375976 0)
(-0.00516446 -0.00344192 0)
(-0.00429861 -0.00310555 0)
(-0.00351009 -0.00275382 0)
(-0.00280189 -0.00239071 0)
(-0.00217612 -0.00202114 0)
(-0.0016339 -0.00165119 0)
(-0.00117519 -0.00128831 0)
(-0.00079868 -0.000941687 0)
(-0.000501686 -0.000622583 0)
(-0.000279884 -0.000344777 0)
(-0.000127109 -0.000124998 0)
(-3.67206e-05 1.63689e-05 0)
(-3.17556e-06 5.22773e-05 0)
(-7.30253e-06 -1.54571e-05 0)
(-6.17573e-05 9.80175e-05 0)
(-0.000195415 0.000322283 0)
(-0.000408021 0.000630034 0)
(-0.000702941 0.000998828 0)
(-0.00108449 0.00140992 0)
(-0.00155527 0.00184781 0)
(-0.00211648 0.00229983 0)
(-0.00276812 0.00275565 0)
(-0.00350907 0.00320689 0)
(-0.00433722 0.00364674 0)
(-0.00524958 0.00406976 0)
(-0.00624233 0.0044716 0)
(-0.00731103 0.00484884 0)
(-0.00845067 0.00519882 0)
(-0.00965577 0.00551951 0)
(-0.0109205 0.00580939 0)
(-0.0122387 0.00606739 0)
(-0.013604 0.00629282 0)
(-0.01501 0.0064853 0)
(-0.01645 0.00664468 0)
(-0.0179173 0.00677105 0)
(-0.0194053 0.00686468 0)
(-0.0209073 0.00692599 0)
(-0.0224169 0.00695553 0)
(-0.0239274 0.00695398 0)
(-0.0254326 0.0069221 0)
(-0.0269262 0.00686071 0)
(-0.0284021 0.00677072 0)
(-0.0298545 0.0066531 0)
(-0.0312777 0.00650885 0)
(-0.0326662 0.00633903 0)
(-0.0340146 0.00614473 0)
(-0.0353181 0.00592705 0)
(-0.0365716 0.00568715 0)
(-0.0377707 0.00542619 0)
(-0.0389109 0.00514535 0)
(-0.0399883 0.00484583 0)
(-0.0409988 0.00452886 0)
(-0.0419391 0.00419567 0)
(-0.0428056 0.00384751 0)
(-0.0435955 0.00348565 0)
(-0.0443059 0.00311136 0)
(-0.0449342 0.00272595 0)
(-0.0454784 0.00233071 0)
(-0.0459364 0.00192697 0)
(-0.0463065 0.00151607 0)
(-0.0465874 0.00109937 0)
(-0.0467781 0.000678239 0)
(-0.0468777 0.000254064 0)
(-0.0468858 -0.00017175 0)
(-0.0468022 -0.00059778 0)
(-0.046627 -0.00102259 0)
(-0.0463606 -0.00144472 0)
(-0.0460038 -0.00186271 0)
(-0.0455577 -0.00227507 0)
(-0.0450236 -0.00268032 0)
(-0.0444033 -0.00307694 0)
(-0.0436987 -0.00346342 0)
(-0.0429121 -0.00383825 0)
(-0.0420463 -0.00419991 0)
(-0.0411042 -0.00454687 0)
(-0.0400891 -0.00487763 0)
(-0.0390045 -0.00519068 0)
(-0.0378544 -0.00548454 0)
(-0.0366431 -0.00575774 0)
(-0.0353749 -0.00600884 0)
(-0.0340548 -0.00623644 0)
(-0.0326878 -0.00643917 0)
(-0.0312792 -0.00661573 0)
(-0.0298348 -0.00676484 0)
(-0.0283603 -0.00688532 0)
(-0.0268618 -0.00697605 0)
(-0.0253457 -0.007036 0)
(-0.0238184 -0.00706423 0)
(-0.0222865 -0.00705993 0)
(-0.0207569 -0.0070224 0)
(-0.0192364 -0.00695107 0)
(-0.017732 -0.00684556 0)
(-0.0162506 -0.00670563 0)
(-0.0147993 -0.00653128 0)
(-0.0133849 -0.0063227 0)
(-0.0120143 -0.00608038 0)
(-0.0106942 -0.00580507 0)
(-0.00943082 -0.00549788 0)
(-0.00823044 -0.00516031 0)
(-0.00709878 -0.00479433 0)
(-0.00604114 -0.00440245 0)
(-0.00506227 -0.00398779 0)
(-0.00416628 -0.00355425 0)
(-0.00335653 -0.0031066 0)
(-0.00263553 -0.0026507 0)
(-0.00200481 -0.00219366 0)
(-0.00146483 -0.00174413 0)
(-0.00101487 -0.00131258 0)
(-0.000652973 -0.000911645 0)
(-0.000375718 -0.000556581 0)
(-0.000178009 -0.000265618 0)
(-5.53539e-05 -6.06265e-05 0)
(-6.20486e-06 2.99442e-05 0)
(-1.02918e-05 1.97965e-05 0)
(-8.07469e-05 0.000209523 0)
(-0.000247904 0.000515446 0)
(-0.000507425 0.000909525 0)
(-0.000860308 0.0013683 0)
(-0.00130958 0.0018719 0)
(-0.00185677 0.00240369 0)
(-0.00250212 0.00294982 0)
(-0.00324486 0.00349889 0)
(-0.00408327 0.00404147 0)
(-0.00501468 0.00456986 0)
(-0.00603559 0.00507781 0)
(-0.00714177 0.00556026 0)
(-0.00832835 0.00601318 0)
(-0.00958989 0.00643339 0)
(-0.0109205 0.00681843 0)
(-0.012314 0.00716648 0)
(-0.0137638 0.00747619 0)
(-0.015263 0.00774667 0)
(-0.0168048 0.00797741 0)
(-0.018382 0.00816818 0)
(-0.0199877 0.00831904 0)
(-0.0216145 0.00843028 0)
(-0.0232556 0.00850234 0)
(-0.0249037 0.00853588 0)
(-0.026552 0.00853166 0)
(-0.0281937 0.00849058 0)
(-0.029822 0.00841361 0)
(-0.0314305 0.00830185 0)
(-0.0330128 0.00815643 0)
(-0.0345628 0.00797857 0)
(-0.0360746 0.00776954 0)
(-0.0375426 0.00753065 0)
(-0.0389612 0.00726324 0)
(-0.0403252 0.0069687 0)
(-0.0416298 0.00664846 0)
(-0.0428702 0.00630394 0)
(-0.044042 0.00593661 0)
(-0.0451411 0.00554796 0)
(-0.0461636 0.0051395 0)
(-0.0471059 0.00471276 0)
(-0.0479646 0.00426927 0)
(-0.048737 0.00381061 0)
(-0.0494201 0.00333835 0)
(-0.0500116 0.0028541 0)
(-0.0505095 0.00235947 0)
(-0.0509118 0.00185611 0)
(-0.0512172 0.00134568 0)
(-0.0514245 0.000829846 0)
(-0.0515329 0.000310314 0)
(-0.0515418 -0.000211197 0)
(-0.051451 -0.00073295 0)
(-0.0512607 -0.00125319 0)
(-0.0509713 -0.00177013 0)
(-0.0505837 -0.00228199 0)
(-0.050099 -0.00278695 0)
(-0.0495187 -0.00328319 0)
(-0.0488446 -0.00376888 0)
(-0.0480789 -0.00424217 0)
(-0.0472241 -0.00470121 0)
(-0.0462831 -0.00514415 0)
(-0.0452591 -0.00556914 0)
(-0.0441556 -0.00597434 0)
(-0.0429764 -0.00635793 0)
(-0.0417259 -0.0067181 0)
(-0.0404086 -0.00705307 0)
(-0.0390292 -0.00736109 0)
(-0.0375931 -0.00764048 0)
(-0.0361056 -0.00788956 0)
(-0.0345725 -0.00810676 0)
(-0.0329999 -0.00829055 0)
(-0.0313941 -0.00843951 0)
(-0.0297616 -0.00855228 0)
(-0.0281091 -0.00862763 0)
(-0.0264437 -0.00866446 0)
(-0.0247724 -0.00866179 0)
(-0.0231025 -0.0086188 0)
(-0.0214415 -0.00853485 0)
(-0.0197967 -0.00840948 0)
(-0.0181756 -0.00824247 0)
(-0.0165857 -0.00803384 0)
(-0.0150343 -0.00778387 0)
(-0.0135288 -0.00749318 0)
(-0.0120763 -0.00716274 0)
(-0.0106837 -0.00679392 0)
(-0.00935741 -0.00638857 0)
(-0.00810373 -0.00594908 0)
(-0.00692834 -0.00547845 0)
(-0.00583642 -0.00498042 0)
(-0.00483249 -0.00445956 0)
(-0.00392034 -0.00392147 0)
(-0.00310293 -0.00337287 0)
(-0.00238232 -0.00282188 0)
(-0.00175956 -0.00227824 0)
(-0.00123464 -0.00175356 0)
(-0.000806469 -0.0012617 0)
(-0.000472628 -0.00081914 0)
(-0.000229201 -0.0004453 0)
(-7.39077e-05 -0.000163132 0)
(-9.15439e-06 -1.9286e-06 0)
(-1.31826e-05 6.46491e-05 0)
(-9.94303e-05 0.000347153 0)
(-0.000299955 0.000748936 0)
(-0.000606481 0.00124157 0)
(-0.00101768 0.00180097 0)
(-0.00153524 0.00240641 0)
(-0.00215952 0.00304032 0)
(-0.00288974 0.00368792 0)
(-0.0037243 0.00433682 0)
(-0.00466074 0.00497671 0)
(-0.00569578 0.00559906 0)
(-0.00682536 0.00619686 0)
(-0.00804476 0.00676437 0)
(-0.00934864 0.00729699 0)
(-0.0107311 0.00779103 0)
(-0.012186 0.00824363 0)
(-0.0137064 0.00865262 0)
(-0.0152855 0.00901639 0)
(-0.0169161 0.00933386 0)
(-0.0185908 0.00960436 0)
(-0.020302 0.0098276 0)
(-0.0220424 0.0100036 0)
(-0.0238042 0.0101326 0)
(-0.0255801 0.0102152 0)
(-0.0273624 0.010252 0)
(-0.0291439 0.0102439 0)
(-0.0309173 0.0101921 0)
(-0.0326755 0.0100975 0)
(-0.0344116 0.00996153 0)
(-0.0361189 0.00978545 0)
(-0.0377908 0.00957072 0)
(-0.039421 0.00931881 0)
(-0.0410035 0.00903128 0)
(-0.0425325 0.00870973 0)
(-0.0440024 0.00835581 0)
(-0.045408 0.00797118 0)
(-0.0467442 0.00755757 0)
(-0.0480064 0.00711672 0)
(-0.04919 0.00665041 0)
(-0.0502911 0.00616042 0)
(-0.0513057 0.00564859 0)
(-0.0522303 0.00511676 0)
(-0.0530618 0.00456681 0)
(-0.0537973 0.00400061 0)
(-0.0544341 0.00342009 0)
(-0.0549701 0.00282719 0)
(-0.0554033 0.00222386 0)
(-0.0557322 0.00161209 0)
(-0.0559555 0.000993887 0)
(-0.0560724 0.000371284 0)
(-0.0560822 -0.000253665 0)
(-0.0559848 -0.000878881 0)
(-0.0557803 -0.00150226 0)
(-0.0554692 -0.00212169 0)
(-0.0550524 -0.00273502 0)
(-0.0545311 -0.00334009 0)
(-0.053907 -0.00393472 0)
(-0.0531818 -0.00451672 0)
(-0.0523581 -0.0050839 0)
(-0.0514384 -0.00563405 0)
(-0.0504258 -0.00616496 0)
(-0.0493237 -0.00667443 0)
(-0.048136 -0.00716027 0)
(-0.0468666 -0.00762031 0)
(-0.0455202 -0.00805241 0)
(-0.0441016 -0.00845444 0)
(-0.0426159 -0.00882435 0)
(-0.0410686 -0.0091601 0)
(-0.0394656 -0.00945975 0)
(-0.0378131 -0.00972141 0)
(-0.0361174 -0.00994329 0)
(-0.0343852 -0.0101237 0)