/*--------------------------------*- C++ -*----------------------------------*\
  =========                 |
  \\      /  F ield         | OpenFOAM: The Open Source CFD Toolbox
   \\    /   O peration     | Website:  https://openfoam.org
    \\  /    A nd           | Version:  11
     \\/     M anipulation  |
\*---------------------------------------------------------------------------*/
FoamFile
{
    format      ascii;
    class       surfaceScalarField;
    location    "5.1";
    object      phi;
}
// * * * * * * * * * * * * * * * * * * * * * * * * * * * * * * * * * * * * * //

dimensions      [0 3 -1 0 0 0 0];

internalField   nonuniform List<scalar> 
19980
(
6.68806e-07
-6.69047e-07
2.11868e-06
-1.44965e-06
3.7785e-06
-1.65991e-06
5.02595e-06
-1.24751e-06
5.58255e-06
-5.56613e-07
5.28844e-06
2.94084e-07
4.06618e-06
1.22229e-06
1.89164e-06
2.17463e-06
-1.22987e-06
3.12153e-06
-5.27093e-06
4.04122e-06
-1.01927e-05
4.92173e-06
-1.59463e-05
5.75358e-06
-2.24773e-05
6.53109e-06
-2.97263e-05
7.24907e-06
-3.76328e-05
7.9065e-06
-4.61343e-05
8.50155e-06
-5.51682e-05
9.03384e-06
-6.46718e-05
9.50374e-06
-7.45832e-05
9.91145e-06
-8.48411e-05
1.02579e-05
-9.53853e-05
1.05442e-05
-0.000106157
1.07717e-05
-0.000117099
1.09416e-05
-0.000128154
1.10552e-05
-0.000139268
1.11145e-05
-0.000150389
1.11209e-05
-0.000161466
1.10767e-05
-0.00017245
1.09838e-05
-0.000183293
1.08432e-05
-0.00019395
1.06568e-05
-0.000204378
1.04279e-05
-0.000214536
1.01579e-05
-0.000224383
9.84731e-06
-0.000233882
9.49847e-06
-0.000242996
9.11444e-06
-0.000251693
8.69687e-06
-0.00025994
8.24695e-06
-0.000267707
7.76703e-06
-0.000274967
7.25992e-06
-0.000281695
6.72755e-06
-0.000287866
6.17134e-06
-0.000293459
5.59337e-06
-0.000298455
4.9959e-06
-0.000302836
4.38067e-06
-0.000306585
3.74929e-06
-0.000309689
3.10413e-06
-0.000312138
2.44824e-06
-0.000313922
1.78407e-06
-0.000315035
1.11289e-06
-0.00031547
4.35842e-07
-0.000315225
-2.45106e-07
-0.000314298
-9.2706e-07
-0.000312691
-1.60705e-06
-0.000310408
-2.28284e-06
-0.000307455
-2.95273e-06
-0.000303841
-3.61472e-06
-0.000299574
-4.2663e-06
-0.00029467
-4.90465e-06
-0.000289143
-5.52704e-06
-0.000283011
-6.13122e-06
-0.000276296
-6.71518e-06
-0.00026902
-7.27661e-06
-0.000261207
-7.81287e-06
-0.000252886
-8.32109e-06
-0.000244087
-8.79842e-06
-0.000234845
-9.2424e-06
-0.000225194
-9.65093e-06
-0.000215172
-1.00219e-05
-0.000204819
-1.03529e-05
-0.000194178
-1.06413e-05
-0.000183293
-1.08846e-05
-0.000172213
-1.10803e-05
-0.000160986
-1.12264e-05
-0.000149665
-1.1321e-05
-0.000138303
-1.13622e-05
-0.000126955
-1.13479e-05
-0.000115679
-1.12762e-05
-0.000104534
-1.11454e-05
-9.35794e-05
-1.09542e-05
-8.2878e-05
-1.07014e-05
-7.24917e-05
-1.03863e-05
-6.24836e-05
-1.0008e-05
-5.29175e-05
-9.5661e-06
-4.38573e-05
-9.06018e-06
-3.53668e-05
-8.49039e-06
-2.75094e-05
-7.85738e-06
-2.03471e-05
-7.16239e-06
-1.39395e-05
-6.40761e-06
-8.34282e-06
-5.59659e-06
-3.60814e-06
-4.73466e-06
2.21094e-07
-3.82929e-06
3.11197e-06
-2.89092e-06
5.04649e-06
-1.93448e-06
6.02874e-06
-9.8221e-07
6.09665e-06
-6.79289e-08
5.34087e-06
7.55769e-07
3.93478e-06
1.40614e-06
2.18579e-06
1.74903e-06
6.23654e-07
1.56211e-06
6.23629e-07
1.71223e-06
-2.38121e-06
4.42541e-06
-4.16301e-06
6.87266e-06
-4.10698e-06
8.22337e-06
-2.59828e-06
7.83683e-06
-1.70112e-07
5.32074e-06
2.81028e-06
4.49938e-07
6.09315e-06
-6.88219e-06
9.50662e-06
-1.66957e-05
1.29351e-05
-2.89518e-05
1.62972e-05
-4.35681e-05
1.95381e-05
-6.0433e-05
2.26185e-05
-7.94133e-05
2.55112e-05
-0.000100361
2.81969e-05
-0.000123119
3.06639e-05
-0.000147521
3.29039e-05
-0.0001734
3.49128e-05
-0.000200586
3.66895e-05
-0.000228909
3.82338e-05
-0.000258198
3.95475e-05
-0.000288288
4.0634e-05
-0.000319013
4.14974e-05
-0.000350214
4.21418e-05
-0.000381731
4.2572e-05
-0.000413411
4.2795e-05
-0.000445107
4.28171e-05
-0.000476674
4.26438e-05
-0.000507972
4.22821e-05
-0.000538869
4.17395e-05
-0.000569235
4.10229e-05
-0.000598946
4.01392e-05
-0.000627885
3.9096e-05
-0.000655938
3.79003e-05
-0.000682999
3.65595e-05
-0.000708966
3.5081e-05
-0.000733741
3.34724e-05
-0.000757236
3.17415e-05
-0.000779365
2.9896e-05
-0.000800049
2.79439e-05
-0.000819214
2.58929e-05
-0.000836794
2.37506e-05
-0.000852725
2.1525e-05
-0.000866953
1.92236e-05
-0.000879426
1.68537e-05
-0.0008901
1.44233e-05
-0.000898937
1.19408e-05
-0.000905904
9.41518e-06
-0.000910974
6.85452e-06
-0.000914128
4.26624e-06
-0.00091535
1.65776e-06
-0.000914632
-9.6268e-07
-0.000911973
-3.58615e-06
-0.000907376
-6.20355e-06
-0.000900853
-8.80596e-06
-0.000892421
-1.13848e-05
-0.000882105
-1.39312e-05
-0.000869935
-1.64361e-05
-0.000855949
-1.88899e-05
-0.000840193
-2.12834e-05
-0.000822717
-2.36071e-05
-0.000803581
-2.58518e-05
-0.000782849
-2.8008e-05
-0.000760596
-3.00661e-05
-0.000736901
-3.2016e-05
-0.000711851
-3.3848e-05
-0.000685541
-3.55527e-05
-0.000658071
-3.71207e-05
-0.00062955
-3.85432e-05
-0.000600092
-3.98108e-05
-0.000569819
-4.09145e-05
-0.000538858
-4.18451e-05
-0.000507344
-4.25942e-05
-0.000475417
-4.31538e-05
-0.000443222
-4.35161e-05
-0.000410911
-4.36737e-05
-0.000378639
-4.36197e-05
-0.000346568
-4.33474e-05
-0.000314862
-4.28512e-05
-0.00028369
-4.21262e-05
-0.000253223
-4.11686e-05
-0.000223633
-3.99756e-05
-0.000195096
-3.8545e-05
-0.000167787
-3.68757e-05
-0.000141879
-3.49683e-05
-0.000117544
-3.28251e-05
-9.49503e-05
-3.04508e-05
-7.42597e-05
-2.7853e-05
-5.56242e-05
-2.50432e-05
-3.91831e-05
-2.20377e-05
-2.50583e-05
-1.88597e-05
-1.33467e-05
-1.55408e-05
-4.11264e-06
-1.21249e-05
2.62556e-06
-8.67265e-06
6.91253e-06
-5.26924e-06
8.88083e-06
-2.03628e-06
8.78581e-06
8.50828e-07
7.05278e-06
3.13914e-06
4.33459e-06
4.4671e-06
1.56109e-06
4.3356e-06
2.18468e-06
1.75626e-06
-4.13757e-06
4.39325e-06
-6.80005e-06
6.18755e-06
-5.90143e-06
6.08542e-06
-2.49584e-06
3.30943e-06
2.60581e-06
-2.6699e-06
8.78981e-06
-1.21783e-05
1.56015e-05
-2.53853e-05
2.27137e-05
-4.2341e-05
2.98908e-05
-6.30088e-05
3.69649e-05
-8.72821e-05
4.38116e-05
-0.000115008
5.03442e-05
-0.000145995
5.64987e-05
-0.000180028
6.22299e-05
-0.000216871
6.75067e-05
-0.000256276
7.23089e-05
-0.000297986
7.66234e-05
-0.000341741
8.04437e-05
-0.000387275
8.37685e-05
-0.000434328
8.65997e-05
-0.000482635
8.89417e-05
-0.00053194
9.08017e-05
-0.000581987
9.21891e-05
-0.00063253
9.31145e-05
-0.000683324
9.35892e-05
-0.000734134
9.36263e-05
-0.00078473
9.324e-05
-0.000834892
9.24444e-05
-0.000884406
9.12532e-05
-0.000933065
8.96821e-05
-0.000980673
8.77474e-05
-0.00102704
8.54645e-05
-0.00107199
8.28485e-05
-0.00111535
7.99156e-05
-0.00115695
7.66826e-05
-0.00119664
7.31659e-05
-0.00123428
6.93818e-05
-0.00126973
6.53471e-05
-0.00130287
6.10791e-05
-0.00133357
5.65944e-05
-0.00136173
5.191e-05
-0.00138725
4.70426e-05
-0.00141003
4.20092e-05
-0.00143001
3.68268e-05
-0.00144709
3.15129e-05
-0.00146124
2.60853e-05
-0.00147239
2.05619e-05
-0.00148049
1.49607e-05
-0.00148553
9.29909e-06
-0.00148746
3.59475e-06
-0.00148629
-2.13419e-06
-0.00148201
-7.86884e-06
-0.00147462
-1.359e-05
-0.00146415
-1.92783e-05
-0.00145062
-2.49141e-05
-0.00143407
-3.04781e-05
-0.00141456
-3.59502e-05
-0.00139214
-4.13103e-05
-0.00136688
-4.65379e-05
-0.00133888
-5.16125e-05
-0.00130822
-5.65134e-05
-0.001275
-6.12199e-05
-0.00123936
-6.5711e-05
-0.00120141
-6.99656e-05
-0.0011613
-7.39628e-05
-0.00111917
-7.76819e-05
-0.00107518
-8.11026e-05
-0.00102952
-8.42048e-05
-0.000982364
-8.69688e-05
-0.000933904
-8.9375e-05
-0.000884345
-9.14044e-05
-0.0008339
-9.30388e-05
-0.000782793
-9.42608e-05
-0.000731255
-9.5054e-05
-0.000679526
-9.54028e-05
-0.000627853
-9.52926e-05
-0.000576491
-9.47101e-05
-0.000525698
-9.36439e-05
-0.00047574
-9.20842e-05
-0.000426885
-9.00234e-05
-0.000379404
-8.74561e-05
-0.00033357
-8.43791e-05
-0.000289654
-8.07924e-05
-0.000247923
-7.66992e-05
-0.00020864
-7.21075e-05
-0.000172061
-6.70303e-05
-0.000138426
-6.14877e-05
-0.000107961
-5.55081e-05
-8.08681e-05
-4.91308e-05
-5.73186e-05
-4.24092e-05
-3.74439e-05
-3.54155e-05
-2.13222e-05
-2.82467e-05
-8.96121e-06
-2.10337e-05
-2.7597e-07
-1.39544e-05
4.93989e-06
-7.25209e-06
7.05115e-06
-1.26047e-06
6.62634e-06
3.56382e-06
4.48653e-06
6.60687e-06
1.75379e-06
7.06834e-06
3.93839e-06
1.38294e-06
-5.52044e-06
2.94356e-06
-8.36067e-06
2.93935e-06
-5.89709e-06
2.123e-07
2.30896e-07
-6.07979e-06
8.89807e-06
-1.65281e-05
1.92381e-05
-3.15108e-05
3.05842e-05
-5.12353e-05
4.24384e-05
-7.57733e-05
5.44287e-05
-0.000105087
6.62783e-05
-0.000139056
7.77814e-05
-0.000177498
8.87856e-05
-0.000220178
9.91785e-05
-0.000266827
0.000108879
-0.000317149
0.000117828
-0.000370826
0.000125986
-0.000427528
0.000133326
-0.000486917
0.000139833
-0.00054865
0.000145501
-0.00061238
0.000150329
-0.000677763
0.000154325
-0.000744459
0.000157498
-0.000812131
0.000159861
-0.000880448
0.000161431
-0.000949087
0.000162228
-0.00101773
0.000162273
-0.00108608
0.000161587
-0.00115383
0.000160195
-0.0012207
0.000158121
-0.00128641
0.000155392
-0.0013507
0.000152034
-0.0014133
0.000148073
-0.00147399
0.000143536
-0.00153253
0.000138452
-0.00158869
0.000132849
-0.00164228
0.000126753
-0.0016931
0.000120195
-0.00174095
0.000113204
-0.00178568
0.000105807
-0.00182712
9.80349e-05
-0.00186513
8.99163e-05
-0.00189957
8.14806e-05
-0.00193031
7.27573e-05
-0.00195726
6.3776e-05
-0.00198032
5.4567e-05
-0.00199939
4.51609e-05
-0.00201442
3.55887e-05
-0.00202534
2.58812e-05
-0.00203211
1.60693e-05
-0.0020347
6.18429e-06
-0.00203309
-3.742e-06
-0.00202728
-1.3677e-05
-0.00201729
-2.35876e-05
-0.00200312
-3.34403e-05
-0.00198484
-4.32014e-05
-0.00196248
-5.28368e-05
-0.00193612
-6.2312e-05
-0.00190583
-7.1592e-05
-0.00187173
-8.06415e-05
-0.00183392
-8.9425e-05
-0.00179252
-9.79067e-05
-0.00174769
-0.000106051
-0.00169958
-0.000113821
-0.00164837
-0.000121181
-0.00159423
-0.000128096
-0.00153739
-0.000134529
-0.00147804
-0.000140447
-0.00141644
-0.000145813
-0.00135281
-0.000150594
-0.00128743
-0.000154757
-0.00122056
-0.000158271
-0.0011525
-0.000161102
-0.00108353
-0.000163224
-0.00101398
-0.000164607
-0.00094416
-0.000165225
-0.000874398
-0.000165055
-0.000805034
-0.000164074
-0.000736412
-0.000162265
-0.000668885
-0.000159611
-0.000602807
-0.000156102
-0.000538534
-0.000151729
-0.000476425
-0.000146489
-0.000416833
-0.000140384
-0.000360108
-0.000133424
-0.000306589
-0.000125626
-0.000256603
-0.000117016
-0.000210458
-0.000107633
-0.000168438
-9.75287e-05
-0.000130793
-8.6776e-05
-9.7732e-05
-7.54698e-05
-6.94115e-05
-6.37361e-05
-4.59177e-05
-5.17405e-05
-2.72499e-05
-3.97016e-05
-1.32963e-05
-2.7908e-05
-3.80661e-06
-1.67418e-05
1.64222e-06
-6.70939e-06
3.6855e-06
1.52053e-06
3.21367e-06
7.07875e-06
1.42792e-06
8.85404e-06
5.36624e-06
7.04479e-07
-6.22496e-06
5.76715e-07
-8.23293e-06
-2.02623e-06
-3.2942e-06
-8.23732e-06
6.44226e-06
-1.88939e-05
1.95546e-05
-3.45917e-05
3.49357e-05
-5.57222e-05
5.17147e-05
-8.25032e-05
6.92194e-05
-0.000115011
8.69362e-05
-0.000153203
0.00010447
-0.000196944
0.000121523
-0.000246026
0.000137868
-0.000300181
0.000153333
-0.000359094
0.000167792
-0.000422419
0.000181153
-0.000489782
0.000193349
-0.000560792
0.000204336
-0.000635043
0.000214084
-0.000712122
0.00022258
-0.000791615
0.000229822
-0.000873104
0.000235814
-0.000956173
0.000240567
-0.00104041
0.000244102
-0.00112542
0.000246441
-0.00121081
0.00024761
-0.00129617
0.000247639
-0.00138115
0.000246563
-0.00146537
0.000244415
-0.00154848
0.000241233
-0.00163014
0.000237054
-0.00171003
0.000231919
-0.00178782
0.000225866
-0.00186322
0.000218938
-0.00193595
0.000211176
-0.00200572
0.000202623
-0.00207229
0.000193322
-0.00213541
0.000183315
-0.00219485
0.000172647
-0.00225041
0.000161361
-0.00230187
0.000149502
-0.00234907
0.000137115
-0.00239183
0.000124244
-0.00243001
0.000110935
-0.00246347
9.7232e-05
-0.00249208
8.31825e-05
-0.00251576
6.88327e-05
-0.0025344
5.42294e-05
-0.00254794
3.942e-05
-0.00255632
2.4452e-05
-0.00255951
9.37358e-06
-0.00255748
-5.76632e-06
-0.00255024
-2.09181e-05
-0.0025378
-3.60314e-05
-0.00252018
-5.10553e-05
-0.00249745
-6.59381e-05
-0.00246965
-8.06279e-05
-0.0024369
-9.50719e-05
-0.00239927
-0.000109217
-0.0023569
-0.000123009
-0.00230993
-0.000136395
-0.00225852
-0.000149319
-0.00220284
-0.000161728
-0.0021431
-0.000173567
-0.0020795
-0.00018478
-0.00201228
-0.000195315
-0.00194169
-0.000205116
-0.00186801
-0.000214131
-0.00179151
-0.000222309
-0.00171251
-0.000229597
-0.00163132
-0.000235945
-0.00154829
-0.000241307
-0.00146375
-0.000245634
-0.00137809
-0.000248884
-0.00129169
-0.000251015
-0.00120492
-0.000251989
-0.00111821
-0.00025177
-0.00103195
-0.000250328
-0.000946581
-0.000247635
-0.000862522
-0.000243671
-0.000780206
-0.000238419
-0.000700065
-0.00023187
-0.000622531
-0.000224022
-0.000548032
-0.000214883
-0.000476986
-0.00020447
-0.0004098
-0.000192813
-0.000346859
-0.000179956
-0.000288529
-0.000165963
-0.000235141
-0.000150917
-0.000186986
-0.000134931
-0.000144305
-0.000118151
-0.000107273
-0.000100767
-7.59889e-05
-8.30251e-05
-5.045e-05
-6.52406e-05
-3.05353e-05
-4.78226e-05
-1.59788e-05
-3.12983e-05
-6.34023e-06
-1.63481e-05
-9.72236e-07
-3.8474e-06
1.01554e-06
5.09099e-06
8.06511e-07
9.06299e-06
6.17273e-06
-1.31254e-07
-6.09367e-06
-2.35161e-06
-6.01255e-06
-8.09657e-06
2.45091e-06
-1.84021e-05
1.67476e-05
-3.40442e-05
3.51969e-05
-5.55817e-05
5.64732e-05
-8.33838e-05
7.95168e-05
-0.000117655
0.00010349
-0.000158457
0.000127738
-0.000205736
0.000151749
-0.000259337
0.000175124
-0.000319026
0.000197556
-0.000384503
0.00021881
-0.000455417
0.000238707
-0.000531377
0.000257113
-0.00061196
0.000273932
-0.000696721
0.000289096
-0.000785199
0.000302562
-0.000876921
0.000314302
-0.000971408
0.000324309
-0.00106818
0.000332586
-0.00116676
0.000339146
-0.00126667
0.00034401
-0.00136744
0.00034721
-0.00146861
0.000348779
-0.00156972
0.000348759
-0.00167035
0.000347192
-0.00177006
0.000344126
-0.00186844
0.000339612
-0.00196509
0.000333702
-0.00205962
0.00032645
-0.00215167
0.000317913
-0.00224088
0.000308146
-0.00232691
0.000297208
-0.00240944
0.00028516
-0.00248818
0.000272059
-0.00256283
0.000257967
-0.00263313
0.000242946
-0.00269883
0.000227056
-0.00275969
0.00021036
-0.00281549
0.000192921
-0.00286605
0.000174802
-0.00291118
0.000156066
-0.00295073
0.000136777
-0.00298454
0.000117001
-0.00301252
9.6803e-05
-0.00303453
7.62487e-05
-0.00305052
5.5405e-05
-0.00306041
3.43392e-05
-0.00306415
1.31194e-05
-0.00306173
-8.18546e-06
-0.00305315
-2.95054e-05
-0.00303841
-5.07695e-05
-0.00301756
-7.19063e-05
-0.00299065
-9.28431e-05
-0.00295777
-0.000113507
-0.00291902
-0.000133823
-0.00287452
-0.000153717
-0.00282442
-0.000173114
-0.00276887
-0.000191938
-0.00270808
-0.000210112
-0.00264225
-0.000227561
-0.00257161
-0.000244207
-0.00249641
-0.000259974
-0.00241694
-0.000274788
-0.00233348
-0.000288572
-0.00224636
-0.000301253
-0.00215591
-0.000312758
-0.00206249
-0.000323016
-0.00196648
-0.000331957
-0.00186827
-0.000339516
-0.00176828
-0.000345628
-0.00166693
-0.000350233
-0.00156467
-0.000353275
-0.00146196
-0.0003547
-0.00135927
-0.000354462
-0.00125708
-0.000352518
-0.00115588
-0.000348835
-0.00105617
-0.000343383
-0.000958441
-0.000336144
-0.000863203
-0.000327107
-0.00077095
-0.000316275
-0.000682173
-0.00030366
-0.000597351
-0.000289292
-0.000516947
-0.000273217
-0.000441403
-0.000255501
-0.000371129
-0.000236237
-0.0003065
-0.000215546
-0.000247842
-0.000193588
-0.000195426
-0.000170567
-0.000149449
-0.000146744
-0.000110024
-0.00012245
-7.71601e-05
-9.81047e-05
-5.07438e-05
-7.42388e-05
-3.05184e-05
-5.15238e-05
-1.60595e-05
-3.0807e-05
-6.75022e-06
-1.31566e-05
-1.75372e-06
9.44356e-08
2.15459e-08
7.28769e-06
6.19429e-06
-1.04601e-06
-5.04765e-06
-5.59911e-06
-1.45917e-06
-1.48388e-05
1.16905e-05
-2.96536e-05
3.15625e-05
-5.07199e-05
5.62633e-05
-7.8527e-05
8.42802e-05
-0.000113394
0.000114384
-0.000155492
0.000145588
-0.000204852
0.000177099
-0.000261395
0.000208292
-0.000324939
0.000238669
-0.000395225
0.000267841
-0.000471919
0.000295504
-0.000554634
0.000321422
-0.000642941
0.00034542
-0.000736373
0.000367364
-0.000834437
0.000387161
-0.000936622
0.000404746
-0.0010424
0.000420082
-0.00115124
0.000433151
-0.00126261
0.000443952
-0.00137596
0.000452499
-0.00149077
0.000458817
-0.0016065
0.000462942
-0.00172264
0.000464917
-0.00183867
0.000464793
-0.00195411
0.000462626
-0.00206846
0.000458476
-0.00218125
0.000452408
-0.00229204
0.000444491
-0.00240039
0.000434794
-0.00250587
0.000423392
-0.00260808
0.000410359
-0.00270664
0.000395771
-0.00280119
0.000379707
-0.00289138
0.000362246
-0.00297688
0.000343468
-0.00305739
0.000323454
-0.00313261
0.000302285
-0.0032023
0.000280045
-0.00326619
0.000256816
-0.00332408
0.000232682
-0.00337574
0.000207729
-0.003421
0.000182042
-0.00345971
0.000155706
-0.00349172
0.000128809
-0.00351691
0.00010144
-0.00353519
7.36864e-05
-0.00354649
4.56385e-05
-0.00355075
1.73873e-05
-0.00354796
-1.09755e-05
-0.00353811
-3.93565e-05
-0.00352122
-6.76615e-05
-0.00349733
-9.57951e-05
-0.00346651
-0.000123661
-0.00342886
-0.000151162
-0.00338448
-0.000178199
-0.00333353
-0.000204673
-0.00327616
-0.000230484
-0.00321256
-0.000255532
-0.00314296
-0.000279715
-0.00306759
-0.000302932
-0.00298671
-0.000325083
-0.00290062
-0.000346066
-0.00280963
-0.000365781
-0.00271407
-0.000384129
-0.00261431
-0.000401014
-0.00251073
-0.000416338
-0.00240374
-0.000430008
-0.00229376
-0.000441935
-0.00218125
-0.00045203
-0.00206667
-0.000460211
-0.0019505
-0.000466398
-0.00183326
-0.000470518
-0.00171546
-0.000472503
-0.00159762
-0.000472293
-0.00148031
-0.000469835
-0.00136406
-0.000465085
-0.00124943
-0.000458008
-0.00113699
-0.000448584
-0.0010273
-0.000436802
-0.000920904
-0.000422668
-0.00081836
-0.000406204
-0.000720199
-0.000387453
-0.000626936
-0.000366481
-0.000539057
-0.00034338
-0.000457018
-0.000318275
-0.000381232
-0.000291332
-0.000312061
-0.00026276
-0.000249803
-0.000232825
-0.000194682
-0.000201865
-0.000146835
-0.000170298
-0.000106292
-0.000138648
-7.2964e-05
-0.000107566
-4.66258e-05
-7.7862e-05
-2.68958e-05
-5.05371e-05
-1.32198e-05
-2.68326e-05
-4.85472e-06
-8.27072e-06
-8.47925e-07
3.28093e-06
5.34633e-06
-1.99444e-06
-3.05325e-06
-9.00751e-06
5.55389e-06
-2.1953e-05
2.4636e-05
-4.1544e-05
5.11534e-05
-6.83298e-05
8.30491e-05
-0.000102707
0.000118657
-0.000144925
0.000156602
-0.000195098
0.00019576
-0.000253217
0.000235218
-0.000319164
0.000274239
-0.000392726
0.000312231
-0.000473606
0.000348721
-0.00056144
0.000383338
-0.000655806
0.000415789
-0.000756236
0.000445849
-0.00086222
0.000473349
-0.000973225
0.000498166
-0.00108869
0.000520214
-0.00120805
0.00053944
-0.00133071
0.000555815
-0.0014561
0.000569334
-0.00158361
0.00058001
-0.00171266
0.000587871
-0.00184268
0.000592958
-0.00197308
0.000595322
-0.00210331
0.000595025
-0.00223282
0.000592135
-0.00236107
0.000586727
-0.00248755
0.000578882
-0.00261174
0.000568684
-0.00273317
0.000556222
-0.00285136
0.000541587
-0.00296588
0.000524876
-0.00307629
0.000506183
-0.00318219
0.000485608
-0.0032832
0.000463251
-0.00337895
0.000439214
-0.00346909
0.0004136
-0.00355332
0.000386513
-0.00363133
0.000358058
-0.00370286
0.000328342
-0.00376765
0.000297471
-0.00382547
0.000265554
-0.00387613
0.0002327
-0.00391945
0.000199019
-0.00395526
0.000164623
-0.00398344
0.000129623
-0.00400389
9.4135e-05
-0.00401652
5.82721e-05
-0.00402129
2.2151e-05
-0.00401815
-1.41106e-05
-0.00400712
-5.03936e-05
-0.0039882
-8.65776e-05
-0.00396145
-0.000122541
-0.00392696
-0.00015816
-0.00388481
-0.000193312
-0.00383513
-0.000227869
-0.0037781
-0.000261707
-0.00371389
-0.000294696
-0.00364271
-0.00032671
-0.00356481
-0.000357619
-0.00348044
-0.000387295
-0.00338992
-0.00041561
-0.00329355
-0.000442436
-0.00319168
-0.000467645
-0.0030847
-0.000491112
-0.002973
-0.000512714
-0.00285701
-0.00053233
-0.00273717
-0.000549841
-0.00261398
-0.000565133
-0.00248791
-0.000578096
-0.0023595
-0.000588627
-0.00222927
-0.000596625
-0.00209778
-0.000602
-0.00196562
-0.000604668
-0.00183336
-0.000604553
-0.0017016
-0.000601591
-0.00157096
-0.00059573
-0.00144204
-0.00058693
-0.00131546
-0.000575165
-0.00119183
-0.000560427
-0.00107177
-0.000542729
-0.000955873
-0.000522102
-0.000844721
-0.000498605
-0.000738877
-0.000472325
-0.000638871
-0.000443385
-0.0005452
-0.000411947
-0.000458313
-0.000378218
-0.000378609
-0.000342464
-0.000306417
-0.000305017
-0.000241993
-0.000266289
-0.000185505
-0.000226787
-0.000137016
-0.000187137
-9.64775e-05
-0.000148105
-6.37121e-05
-0.000110627
-3.8403e-05
-7.58462e-05
-2.00832e-05
-4.51524e-05
-8.12884e-06
-2.02251e-05
-1.7544e-06
-3.09351e-06
3.5919e-06
-2.94664e-06
-1.06672e-07
-1.24741e-05
1.50816e-05
-2.9236e-05
4.13981e-05
-5.37584e-05
7.56758e-05
-8.64491e-05
0.00011574
-0.000127594
0.000159802
-0.000177356
0.000206364
-0.000235781
0.000254185
-0.000302804
0.000302241
-0.00037826
0.000349695
-0.000461893
0.000395864
-0.00055337
0.000440198
-0.000652288
0.000482256
-0.000758187
0.000521688
-0.000870561
0.000558223
-0.000988864
0.000591651
-0.00111252
0.00062182
-0.00124092
0.000648619
-0.00137346
0.000671979
-0.00150951
0.000691861
-0.00164843
0.000708251
-0.00178958
0.000721162
-0.00193233
0.000730624
-0.00207606
0.000736682
-0.00222013
0.000739397
-0.00236395
0.00073884
-0.0025069
0.000735093
-0.00264842
0.000728246
-0.00278794
0.000718396
-0.0029249
0.000705645
-0.00305878
0.000690101
-0.00318906
0.000671876
-0.00331527
0.000651086
-0.00343694
0.000627849
-0.00355362
0.000602286
-0.00366489
0.000574521
-0.00377035
0.000544678
-0.00386964
0.000512885
-0.00396239
0.000479271
-0.0040483
0.000443965
-0.00412706
0.000407099
-0.00419839
0.000368804
-0.00426205
0.000329215
-0.00431782
0.000288468
-0.0043655
0.000246698
-0.00440492
0.000204044
-0.00443594
0.000160644
-0.00445845
0.000116641
-0.00447235
7.21755e-05
-0.00447759
2.73923e-05
-0.00447414
-1.75629e-05
-0.00446199
-6.25427e-05
-0.00444117
-0.000107398
-0.00441173
-0.000151978
-0.00437376
-0.000196131
-0.00432737
-0.000239703
-0.0042727
-0.000282538
-0.00420993
-0.000324481
-0.00413925
-0.000365373
-0.0040609
-0.000405057
-0.00397515
-0.000443374
-0.00388228
-0.000480166
-0.00378261
-0.000515274
-0.00367651
-0.000548541
-0.00356434
-0.000579811
-0.00344653
-0.000608929
-0.0033235
-0.000635744
-0.00319572
-0.000660107
-0.00306368
-0.000681874
-0.00292791
-0.000700905
-0.00278894
-0.000717065
-0.00264734
-0.000730228
-0.00250369
-0.000740273
-0.0023586
-0.000747089
-0.0022127
-0.000750576
-0.00206661
-0.000750643
-0.00192098
-0.000747214
-0.00177649
-0.000740226
-0.00163378
-0.000729635
-0.00149354
-0.000715413
-0.00135641
-0.000697553
-0.00122306
-0.000676075
-0.00109414
-0.000651022
-0.000970277
-0.000622471
-0.000852069
-0.000590533
-0.000740094
-0.00055536
-0.000634888
-0.000517153
-0.000536939
-0.000476167
-0.00044668
-0.000432723
-0.00036448
-0.000387217
-0.000290631
-0.000340138
-0.000225339
-0.000292079
-0.000168712
-0.000243763
-0.000120754
-0.000196063
-8.13512e-05
-0.00015003
-5.02665e-05
-0.000106931
-2.7137e-05
-6.82819e-05
-1.1474e-05
-3.5888e-05
-2.66955e-06
-1.1898e-05
9.22344e-07
-3.88734e-06
3.78077e-06
-1.59355e-05
2.71297e-05
-3.65532e-05
6.20157e-05
-6.60814e-05
0.000105204
-0.000104778
0.000154436
-0.000152807
0.000207832
-0.000210235
0.000263792
-0.000277026
0.000320977
-0.000353051
0.000378266
-0.000438086
0.000434731
-0.000531829
0.000489607
-0.000633899
0.000542269
-0.000743855
0.000592211
-0.000861195
0.000639029
-0.000985374
0.000682402
-0.00111581
0.000722083
-0.00125187
0.000757888
-0.00139294
0.000789683
-0.00153834
0.00081738
-0.00168741
0.000840927
-0.00183946
0.000860306
-0.00199382
0.000875526
-0.00214982
0.000886617
-0.00230677
0.000893631
-0.00246401
0.000896637
-0.00262088
0.000895717
-0.00277676
0.000890967
-0.002931
0.00088249
-0.00308301
0.000870403
-0.00323219
0.000854826
-0.00337798
0.000835886
-0.00351982
0.000813718
-0.00365719
0.00078846
-0.00378959
0.000760252
-0.00391655
0.00072924
-0.0040376
0.000695573
-0.00415232
0.000659399
-0.00426031
0.000620874
-0.00436119
0.00058015
-0.00445461
0.000537384
-0.00454025
0.000492736
-0.00461781
0.000446364
-0.00468702
0.000398431
-0.00474765
0.000349099
-0.00479949
0.000298533
-0.00484234
0.000246901
-0.00487607
0.000194371
-0.00490054
0.000141112
-0.00491566
8.72971e-05
-0.00492137
3.31001e-05
-0.00491763
-2.13028e-05
-0.00490444
-7.57336e-05
-0.00488183
-0.000130012
-0.00484985
-0.000183957
-0.0048086
-0.000237384
-0.00475819
-0.000290107
-0.00469879
-0.00034194
-0.00463058
-0.000392694
-0.00455377
-0.000442179
-0.00446862
-0.000490205
-0.00437542
-0.000536581
-0.00427446
-0.000581116
-0.00416612
-0.000623621
-0.00405075
-0.000663905
-0.00392878
-0.000701781
-0.00380065
-0.000737064
-0.00366682
-0.000769573
-0.0035278
-0.000799129
-0.00338411
-0.000825559
-0.00323632
-0.000848697
-0.003085
-0.000868382
-0.00293077
-0.000884462
-0.00277425
-0.000896795
-0.00261609
-0.00090525
-0.00245696
-0.000909707
-0.00229754
-0.000910062
-0.00213853
-0.000906223
-0.00198063
-0.000898121
-0.00182456
-0.000885704
-0.00167103
-0.000868943
-0.00152075
-0.000847833
-0.00137443
-0.000822401
-0.00123274
-0.000792705
-0.00109638
-0.000758838
-0.000965973
-0.000720936
-0.000842148
-0.000679185
-0.000725477
-0.000633824
-0.00061649
-0.000585154
-0.00051566
-0.000533553
-0.000423395
-0.000479482
-0.00034003
-0.000423502
-0.000265819
-0.00036629
-0.000200925
-0.000308658
-0.000145412
-0.000251576
-9.92412e-05
-0.000196201
-6.2269e-05
-0.000143903
-3.42458e-05
-9.63051e-05
-1.48252e-05
-5.53085e-05
-3.57679e-06
-2.31465e-05
-2.65442e-06
-4.80723e-06
8.58802e-06
-1.93521e-05
4.16744e-05
-4.38197e-05
8.64835e-05
-7.837e-05
0.000139754
-0.00012311
0.000199176
-0.000178079
0.0002628
-0.000243236
0.00032895
-0.00031846
0.0003962
-0.000403543
0.000463349
-0.000498201
0.000529388
-0.000602072
0.000593478
-0.00071473
0.000654926
-0.000835683
0.000713165
-0.00096439
0.000767736
-0.00110026
0.000818274
-0.00124267
0.000864495
-0.00139097
0.000906183
-0.00154447
0.000943181
-0.00170247
0.000975381
-0.00186426
0.00100272
-0.00202913
0.00102517
-0.00219635
0.00104274
-0.0023652
0.00105547
-0.00253497
0.0010634
-0.00270495
0.00106662
-0.00287445
0.00106522
-0.00304279
0.0010593
-0.0032093
0.001049
-0.00337333
0.00103444
-0.00353427
0.00101576
-0.00369149
0.000993112
-0.00384443
0.000966653
-0.00399251
0.000936542
-0.00413521
0.000902948
-0.00427201
0.00086604
-0.00440243
0.000825991
-0.00452601
0.000782981
-0.00464232
0.000737188
-0.00475097
0.000688795
-0.00485157
0.000637987
-0.00494379
0.000584952
-0.0050273
0.000529878
-0.00510182
0.000472956
-0.00516711
0.000414381
-0.00522292
0.000354346
-0.00526907
0.00029305
-0.00530539
0.000230692
-0.00533175
0.000167473
-0.00534805
0.000103597
-0.00535422
3.92702e-05
-0.00535022
-2.52985e-05
-0.00533606
-8.98985e-05
-0.00531175
-0.000154317
-0.00527737
-0.000218339
-0.00523301
-0.000281746
-0.0051788
-0.000344319
-0.0051149
-0.000405837
-0.00504152
-0.000466078
-0.00495888
-0.000524817
-0.00486726
-0.000581828
-0.00476695
-0.000636888
-0.00465829
-0.000689772
-0.00454166
-0.000740253
-0.00441745
-0.000788111
-0.00428611
-0.000833123
-0.00414811
-0.000875071
-0.00400394
-0.000913743
-0.00385414
-0.000948928
-0.00369927
-0.000980424
-0.00353993
-0.00100804
-0.00337674
-0.00103157
-0.00321034
-0.00105086
-0.0030414
-0.00106573
-0.00287062
-0.00107604
-0.0026987
-0.00108163
-0.00252636
-0.0010824
-0.00235436
-0.00107823
-0.00218343
-0.00106905
-0.00201434
-0.0010548
-0.00184783
-0.00103545
-0.00168467
-0.00101099
-0.00152561
-0.000981469
-0.00137136
-0.000946947
-0.00122266
-0.00090754
-0.00108019
-0.00086341
-0.0009446
-0.000814773
-0.000816516
-0.000761907
-0.000696507
-0.000705163
-0.00058509
-0.000644971
-0.000482718
-0.000581854
-0.000389776
-0.000516444
-0.000306571
-0.000449495
-0.000233328
-0.000381902
-0.00017018
-0.000314724
-0.000117174
-0.000249207
-7.4265e-05
-0.000186813
-4.1322e-05
-0.000129248
-1.81423e-05
-7.84883e-05
-4.4666e-06
-3.68222e-05
-7.12103e-06
-5.70156e-06
1.42897e-05
-2.27018e-05
5.86746e-05
-5.09823e-05
0.000114764
-9.05322e-05
0.000179304
-0.000141311
0.000249955
-0.000203229
0.000324718
-0.000276137
0.000401858
-0.000359818
0.000479881
-0.000453985
0.000557517
-0.000558284
0.000633686
-0.00067229
0.000707485
-0.000795521
0.000778157
-0.000927438
0.000845081
-0.00106745
0.000907748
-0.00121493
0.000965751
-0.0013692
0.00101877
-0.00152958
0.00106656
-0.00169533
0.00110893
-0.00186572
0.00114577
-0.00204
0.001177
-0.00221741
0.00120258
-0.00239719
0.00122253
-0.00257859
0.00123687
-0.00276085
0.00124566
-0.00294322
0.00124899
-0.00312498
0.00124698
-0.00330541
0.00123973
-0.0034838
0.00122739
-0.00365947
0.00121011
-0.00383176
0.00118805
-0.00400002
0.00116138
-0.00416366
0.00113028
-0.00432206
0.00109495
-0.00447467
0.00105556
-0.00462094
0.00101231
-0.00476037
0.000965421
-0.00489247
0.000915081
-0.00501679
0.000861505
-0.0051329
0.000804903
-0.0052404
0.000745492
-0.00533894
0.000683488
-0.00542817
0.000619112
-0.0055078
0.000552585
-0.00557756
0.000484134
-0.00563719
0.000413985
-0.00568651
0.000342368
-0.00572534
0.000269516
-0.00575353
0.000195662
-0.00577098
0.000121045
-0.00577761
4.59049e-05
-0.00577339
-2.95162e-05
-0.00575832
-0.000104973
-0.00573242
-0.000180216
-0.00569576
-0.000254997
-0.00564845
-0.000329061
-0.00559061
-0.000402154
-0.00552243
-0.000474018
-0.00544411
-0.000544394
-0.00535591
-0.000613022
-0.0052581
-0.00067964
-0.005151
-0.000743988
-0.00503497
-0.000805803
-0.00491039
-0.000864826
-0.00477771
-0.000920797
-0.00463737
-0.000973461
-0.00448988
-0.00102256
-0.00433576
-0.00106786
-0.00417558
-0.00110911
-0.00400994
-0.00114607
-0.00383945
-0.00117852
-0.00366478
-0.00120624
-0.00348661
-0.00122903
-0.00330564
-0.0012467
-0.0031226
-0.00125907
-0.00293824
-0.00126599
-0.00275333
-0.00126731
-0.00256865
-0.00126291
-0.00238498
-0.00125271
-0.00220314
-0.00123665
-0.0020239
-0.00121468
-0.00184808
-0.00118682
-0.00167645
-0.00115309
-0.0015098
-0.0011136
-0.00134889
-0.00106846
-0.00119443
-0.00101786
-0.00104714
-0.000962061
-0.000907682
-0.00090137
-0.00077666
-0.000836185
-0.000654643
-0.000766987
-0.000542136
-0.000694361
-0.000439577
-0.000619003
-0.000347333
-0.000541739
-0.000265696
-0.000463539
-0.000194878
-0.000385541
-0.000135014
-0.000309071