/*--------------------------------*- C++ -*----------------------------------*\
  =========                 |
  \\      /  F ield         | OpenFOAM: The Open Source CFD Toolbox
   \\    /   O peration     | Website:  https://openfoam.org
    \\  /    A nd           | Version:  11
     \\/     M anipulation  |
\*---------------------------------------------------------------------------*/
FoamFile
{
    format      ascii;
    class       volScalarField;
    location    "4.4";
    object      p;
}
// * * * * * * * * * * * * * * * * * * * * * * * * * * * * * * * * * * * * * //

dimensions      [0 2 -2 0 0 0 0];

internalField   nonuniform List<scalar> 
10100
(
3.34811e-07
0.000100854
-7.66461e-05
-0.00058651
-0.00138486
-0.00241471
-0.00361994
-0.00494754
-0.00635065
-0.00778842
-0.00922627
-0.0106349
-0.0119898
-0.0132696
-0.014455
-0.01553
-0.0164813
-0.0172975
-0.0179695
-0.0184901
-0.0188532
-0.0190554
-0.0190938
-0.0189651
-0.0186669
-0.0181985
-0.0175605
-0.0167546
-0.0157839
-0.0146516
-0.0133609
-0.0119154
-0.0103198
-0.00857934
-0.00669933
-0.00468565
-0.0025448
-0.000283727
0.00209047
0.00457059
0.00714896
0.00981761
0.0125687
0.0153943
0.0182857
0.0212337
0.0242286
0.0272609
0.0303213
0.0334003
0.0364881
0.0395751
0.0426516
0.0457083
0.0487351
0.0517219
0.0546582
0.0575344
0.0603408
0.0630685
0.0657086
0.0682527
0.0706923
0.0730187
0.0752235
0.077298
0.079234
0.0810244
0.0826635
0.0841459
0.0854663
0.0866198
0.0876027
0.0884118
0.0890455
0.0895025
0.0897829
0.0898877
0.0898191
0.08958
0.0891751
0.0886108
0.087895
0.087037
0.0860477
0.0849398
0.0837283
0.0824302
0.0810649
0.0796544
0.0782239
0.0768027
0.0754247
0.074129
0.072959
0.0719621
0.0711867
0.0706806
0.0704866
0.070566
-5.53016e-05
2.143e-05
-0.000168831
-0.000632104
-0.00132465
-0.00220816
-0.00324254
-0.00438621
-0.00560144
-0.00685388
-0.00811223
-0.00934995
-0.0105445
-0.011675
-0.0127239
-0.0136753
-0.0145154
-0.0152343
-0.0158229
-0.0162732
-0.0165795
-0.016737
-0.0167418
-0.0165912
-0.0162829
-0.0158155
-0.015189
-0.0144046
-0.0134648
-0.0123728
-0.0111317
-0.00974503
-0.00821666
-0.00655112
-0.00475336
-0.00282898
-0.000784291
0.00137429
0.00364021
0.00600651
0.00846602
0.0110113
0.0136348
0.016329
0.0190856
0.0218959
0.0247508
0.0276416
0.0305591
0.0334938
0.0364366
0.0393783
0.04231
0.045223
0.0481078
0.0509543
0.0537525
0.0564933
0.0591676
0.0617669
0.0642832
0.0667088
0.0690353
0.0712543
0.0733576
0.0753373
0.0771859
0.0788971
0.0804659
0.0818873
0.0831561
0.0842679
0.0852193
0.086008
0.0866323
0.0870915
0.0873857
0.0875163
0.0874857
0.0872972
0.0869557
0.0864677
0.0858411
0.0850848
0.0842096
0.0832283
0.0821555
0.0810074
0.0798019
0.0785594
0.0773034
0.0760609
0.0748624
0.0737414
0.0727338
0.0718766
0.0712053
0.0707539
0.0705663
0.0706466
0.000182206
0.000224765
1.51202e-05
-0.000431224
-0.00106742
-0.0018636
-0.00278885
-0.0038103
-0.00489608
-0.00601664
-0.00714532
-0.00825803
-0.00933294
-0.0103514
-0.0112966
-0.0121529
-0.0129077
-0.0135503
-0.0140728
-0.0144677
-0.0147287
-0.0148504
-0.0148289
-0.0146607
-0.0143437
-0.0138768
-0.0132594
-0.0124925
-0.0115779
-0.0105187
-0.00931787
-0.00797872
-0.0065049
-0.00490029
-0.00316948
-0.00131788
0.000648471
0.00272348
0.00490104
0.00717446
0.00953682
0.0119814
0.014501
0.0170882
0.0197349
0.0224328
0.0251734
0.0279487
0.0307496
0.0335668
0.0363912
0.0392145
0.0420284
0.0448244
0.0475934
0.0503257
0.0530116
0.0556424
0.0582093
0.0607044
0.0631202
0.0654496
0.0676846
0.0698168
0.071838
0.0737409
0.0755189
0.0771665
0.0786789
0.0800515
0.0812793
0.0823579
0.0832844
0.0840568
0.0846737
0.0851344
0.0854391
0.0855894
0.0855881
0.0854389
0.0851471
0.0847189
0.0841618
0.0834845
0.0826974
0.0818128
0.0808449
0.079809
0.0787217
0.077602
0.0764714
0.0753551
0.0742803
0.0732761
0.0723725
0.0716004
0.0709886
0.0705656
0.0703791
0.0704556
0.000719091
0.000687289
0.000434207
-2.1389e-05
-0.000638021
-0.00138969
-0.00225132
-0.00319501
-0.00419385
-0.00522275
-0.00625817
-0.00727853
-0.00826423
-0.00919749
-0.0100626
-0.0108454
-0.0115334
-0.0121162
-0.0125861
-0.0129362
-0.01316
-0.0132527
-0.0132096
-0.0130271
-0.0127031
-0.0122363
-0.0116265
-0.0108743
-0.00998146
-0.00895022
-0.00778346
-0.00648445
-0.00505657
-0.00350333
-0.0018292
-3.9452e-05
0.00186042
0.00386474
0.00596739
0.00816183
0.0104417
0.0128006
0.0152321
0.0177285
0.020282
0.0228846
0.0255286
0.0282059
0.0309075
0.0336246
0.0363487
0.0390719
0.0417862
0.0444832
0.0471542
0.0497897
0.0523807
0.0549186
0.057395
0.0598023
0.0621336
0.064382
0.0665397
0.0685984
0.0705505
0.0723892
0.0741082
0.0757027
0.077168
0.0784999
0.0796933
0.0807443
0.08165
0.0824087
0.0830192
0.0834806
0.0837931
0.0839587
0.0839805
0.0838628
0.0836105
0.0832299
0.0827279
0.0821129
0.0813947
0.0805848
0.0796967
0.0787449
0.0777449
0.0767144
0.0756735
0.0746449
0.0736529
0.0727227
0.0718802
0.071152
0.0705636
0.0701409
0.069928
0.0699536
0.001504
0.00135964
0.00103846
0.00055268
-6.76467e-05
-0.000799757
-0.00162339
-0.00251523
-0.00345221
-0.00441244
-0.00537551
-0.00632259
-0.0072357
-0.00809856
-0.00889656
-0.00961687
-0.0102476
-0.0107797
-0.0112045
-0.0115153
-0.0117066
-0.0117733
-0.0117109
-0.011516
-0.0111862
-0.0107199
-0.0101171
-0.00937863
-0.0085059
-0.00750071
-0.00636576
-0.005104
-0.00371846
-0.00221275
-0.000591202
0.00114126
0.00297956
0.00491836
0.00695162
0.00907295
0.0112764
0.0135562
0.0159057
0.0183176
0.0207846
0.0232992
0.0258539
0.0284404
0.03105
0.0336742
0.0363055
0.0389361
0.0415583
0.0441639
0.0467444
0.0492905
0.0517936
0.0542456
0.0566387
0.0589653
0.0612188
0.0633926
0.065479
0.0674699
0.0693582
0.0711377
0.0728029
0.0743488
0.075771
0.0770653
0.0782269
0.0792521
0.0801386
0.0808845
0.0814884
0.0819495
0.0822683
0.082447
0.0824891
0.0823988
0.0821809
0.0818412
0.0813864
0.0808246
0.0801648
0.0794179
0.0785963
0.0777133
0.0767839
0.0758245
0.0748536
0.0738912
0.0729587
0.0720778
0.071271
0.0705615
0.0699719
0.0695254
0.0692549
0.0691813
0.00249358
0.00220929
0.00179961
0.00126511
0.000620624
-0.000113988
-0.000921624
-0.00178384
-0.00268051
-0.00359294
-0.00450318
-0.00539427
-0.00625078
-0.00705773
-0.00780146
-0.00847044
-0.00905361
-0.00954248
-0.00992941
-0.0102075
-0.010371
-0.0104153
-0.0103362
-0.0101307
-0.00979621
-0.00933116
-0.00873538
-0.0080097
-0.00715541
-0.00617422
-0.00506854
-0.00384106
-0.0024945
-0.0010324
0.000540865
0.00222083
0.00400275
0.00588129
0.00785065
0.00990495
0.0120386
0.0142457
0.0165198
0.018854
0.0212415
0.0236753
0.0261478
0.028651
0.0311762
0.0337154
0.0362615
0.0388074
0.0413452
0.0438671
0.0463647
0.0488291
0.051252
0.0536255
0.0559422
0.058195
0.0603777
0.0624835
0.0645048
0.0664338
0.068264
0.0699899
0.0716062
0.073108
0.0744909
0.0757506
0.0768829
0.0778845
0.0787531
0.0794869
0.0800842
0.0805442
0.0808679
0.0810579
0.0811175
0.0810507
0.0808618
0.0805562
0.0801407
0.0796227
0.079011
0.0783154
0.0775473
0.0767192
0.0758451
0.07494
0.0740206
0.0731044
0.07221
0.0713564
0.0705633
0.0698504
0.0692377
0.0687453
0.0683913
0.068184
0.00364525
0.00320363
0.00269002
0.00209063
0.00140389
0.000647264
-0.000164692
-0.00101638
-0.00189203
-0.00277507
-0.00364976
-0.00450141
-0.00531601
-0.00608022
-0.00678234
-0.00741094
-0.00795646
-0.00841024
-0.0087659
-0.00901703
-0.00915788
-0.00918382
-0.00909114
-0.00887695
-0.00853888
-0.00807557
-0.00748688
-0.00677324
-0.00593587
-0.00497662
-0.00389755
-0.00270108
-0.00139004
3.22535e-05
0.00156186
0.00319446
0.00492533
0.00674926
0.00866075
0.0106543
0.0127245
0.0148658
0.0170715
0.0193352
0.0216506
0.0240112
0.0264093
0.0288367
0.0312853
0.0337476
0.0362171
0.0386864
0.0411478
0.0435939
0.0460167
0.0484075
0.050758
0.0530607
0.0553085
0.0574949
0.0596137
0.0616584
0.0636212
0.0654948
0.0672731
0.0689511
0.0705237
0.0719858
0.0733332
0.0745616
0.0756673
0.0766475
0.0774998
0.0782222
0.0788131
0.0792717
0.0795993
0.0797987
0.0798728
0.079825
0.0796593
0.0793811
0.078997
0.078514
0.07794
0.0772841
0.076557
0.0757705
0.0749371
0.0740704
0.0731849
0.072296
0.0714201
0.0705739
0.0697745
0.0690387
0.0683838
0.067827
0.0673698
0.0670062
0.00491934
0.00431026
0.00368084
0.00300382
0.00226039
0.00146535
0.000632629
-0.000225901
-0.00109665
-0.00196574
-0.00282026
-0.00364675
-0.00443239
-0.00516595
-0.00583707
-0.00643514
-0.00695155
-0.00737847
-0.00770943
-0.00793882
-0.00806141
-0.00807282
-0.00796948
-0.00774863
-0.00740828
-0.00694722
-0.0063654
-0.00566323
-0.00484161
-0.00390228
-0.00284737
-0.00167905
-0.000400053
0.000986291
0.00247642
0.00406639
0.00575138
0.00752609
0.00938546
0.0113244
0.0133376
0.0154191
0.0175629
0.0197632
0.0220141
0.0243087
0.0266393
0.0289982
0.0313779
0.0337713
0.0361718
0.0385722
0.040965
0.0433432
0.0456988
0.0480234
0.0503088
0.0525479
0.0547342
0.0568613
0.0589231
0.060913
0.0628235
0.0646478
0.0663803
0.0680161
0.0695498
0.0709764
0.0722917
0.0734921
0.0745742
0.075535
0.0763722
0.0770839
0.0776686
0.0781259
0.0784568
0.0786636
0.0787489
0.0787157
0.0785678
0.0783108
0.0779509
0.0774946
0.0769492
0.0763229
0.0756256
0.0748682
0.0740621
0.0732191
0.0723518
0.0714738
0.0705997
0.0697442
0.0689217
0.0681464
0.0674334
0.0667976
0.0662231
0.0656897
0.00628149
0.00549895
0.00474531
0.00398079
0.00316864
0.00232274
0.00145498
0.000575529
-0.000304181
-0.00117314
-0.00202018
-0.0028337
-0.00360243
-0.00431616
-0.00496544
-0.00554189
-0.00603682
-0.00644367
-0.00675623
-0.00696909
-0.00707753
-0.00707776
-0.00696647
-0.00674089
-0.00639943
-0.0059413
-0.00536615
-0.00467456
-0.00386762
-0.00294658
-0.00191336
-0.000770489
0.000479503
0.00183382
0.00328889
0.0048405
0.00648407
0.00821488
0.010028
0.0119182
0.0138799
0.0159078
0.0179963
0.0201399
0.0223329
0.0245682
0.0268384
0.0291362
0.0314543
0.033786
0.0361248
0.0384636
0.0407954
0.0431129
0.0454087
0.0476741
0.0499014
0.052084
0.0542156
0.0562902
0.0583015
0.0602427
0.062107
0.0638879
0.0655802
0.0671788
0.0686781
0.0700732
0.0713602
0.072536
0.0735972
0.0745406
0.075364
0.0760659
0.0766449
0.0771006
0.0774337
0.0776458
0.0777392
0.0777167
0.077582
0.0773406
0.0769984
0.0765614
0.0760362
0.0754304
0.0747528
0.0740134
0.0732221
0.0723894
0.0715266
0.0706457
0.0697594
0.0688805
0.0680209
0.0671924
0.0664087
0.0656828
0.0649817
0.0642714
0.00770164
0.00674286
0.00585977
0.00499955
0.00410934
0.00320176
0.00228793
0.00137592
0.000474661
-0.000405843
-0.00125628
-0.00206752
-0.00282957
-0.00353296
-0.00416934
-0.00473165
-0.00521242
-0.00560527
-0.00590469
-0.00610577
-0.0062042
-0.0061963
-0.00607933
-0.00585093
-0.00550953
-0.00505467
-0.00448625
-0.00380455
-0.00301068
-0.00210623
-0.0010929
2.7256e-05
0.00125171
0.00257755
0.0040013
0.00551893
0.00712596
0.00881785
0.0105898
0.0124366
0.0143527
0.0163331
0.0183726
0.0204661
0.0226076
0.0247902
0.0270067
0.0292503
0.0315141
0.0337911
0.0360752
0.0383595
0.0406373
0.0429014
0.0451442
0.0473573
0.0495333
0.0516662
0.05375
0.0557784
0.0577451
0.0596438
0.0614678
0.063211
0.0648684
0.0664344
0.0679037
0.0692713
0.0705339
0.0716884
0.0727313
0.0736595
0.0744708
0.0751639
0.0757377
0.0761914
0.0765253
0.0767405
0.0768392
0.0768239
0.0766985
0.076468
0.0761377
0.0757134
0.0752009
0.074607
0.0739398
0.0732079
0.0724203
0.0715865
0.0707163
0.0698206
0.0689103
0.0679961
0.0670878
0.0661952
0.0653311
0.0645068
0.0636733
0.0627833
0.0091528
0.00801783
0.00700183
0.00604026
0.00506467
0.00408667
0.0031177
0.00216307
0.00123023
0.000327959
-0.000535963
-0.00135407
-0.0021179
-0.0028191
-0.00345079
-0.00400588
-0.00447875
-0.00486336
-0.00515451
-0.00534795
-0.00544
-0.00542703
-0.00530632
-0.00507656
-0.0047366
-0.00428542
-0.00372317
-0.00305074
-0.00226902
-0.00137927
-0.000383357
0.000716596
0.00191841
0.0032193
0.00461563
0.00610339
0.00767842
0.00933633
0.0110722
0.0128807
0.0147567
0.0166955
0.0186923
0.0207418
0.0228381
0.0249744
0.0271439
0.0293403
0.0315565
0.0337858
0.036022
0.0382588
0.0404894
0.0427069
0.0449033
0.0470708
0.0492025
0.0512926
0.053335
0.0553233
0.0572514
0.0591133
0.0609028
0.0626138
0.064241
0.0657791
0.0672227
0.0685673
0.0698094
0.0709459
0.0719733
0.0728885
0.0736895
0.0743749
0.0749437
0.0753948
0.0757282
0.0759448
0.0760464
0.0760355
0.0759158
0.0756919
0.0753688
0.0749512
0.0744443
0.0738543
0.0731886
0.072455
0.0716616
0.0708167
0.0699293
0.0690086
0.0680639
0.0671042
0.0661378
0.0651725
0.0642205
0.0632922
0.0623229
0.0612532
0.0106118
0.00930148
0.00815071
0.00708434
0.00601776
0.00496282
0.00393071
0.00292571
0.00195328
0.00102041
0.00013414
-0.000698976
-0.00147212
-0.00217837
-0.00281185
-0.00336663
-0.00383714
-0.00421829
-0.00450591
-0.00469585
-0.00478437
-0.00476873
-0.00464678
-0.00441714
-0.004079
-0.00363183
-0.0030758
-0.00241177
-0.00164082
-0.000764191
0.000216451
0.00129906
0.00248134
0.00376045
0.00513291
0.00659498
0.00814258
0.00977115
0.0114757
0.0132509
0.0150924
0.0169956
0.0189557
0.0209672
0.0230244
0.0251209
0.0272503
0.029406
0.0315812
0.0337693
0.0359645
0.0381606
0.0403508
0.0425281
0.0446848
0.0468135
0.0489077
0.0509614
0.0529687
0.0549229
0.0568183
0.0586493
0.0604097
0.0620935
0.0636954
0.0652102
0.0666327
0.0679584
0.0691839
0.0703059
0.0713207
0.0722253
0.0730176
0.0736965
0.0742605
0.0747086
0.0750406
0.0752571
0.0753597
0.0753507
0.0752336
0.0750126
0.0746919
0.0742755
0.0737678
0.0731745
0.0725025
0.0717591
0.0709517
0.0700876
0.0691742
0.0682195
0.0672315
0.0662179
0.0651855
0.0641409
0.0630957
0.0620592
0.0609529
0.0597051
0.0120585
0.0105745
0.0092887
0.0081144
0.00695338
0.0058162
0.0047147
0.00365282
0.00263392
0.00166349
0.000747723
-0.000107553
-0.000896926
-0.00161511
-0.00225617
-0.00281596
-0.00328944
-0.00367203
-0.00395997
-0.00414977
-0.00423787
-0.00422185
-0.00410042
-0.0038724
-0.00353677
-0.00309351
-0.00254337
-0.00188714
-0.00112567
-0.000260211
0.000707484
0.00177529
0.00294091
0.00420156
0.00555395
0.00699444
0.00851882
0.0101224
0.0118003
0.0135477
0.0153602
0.0172335
0.0191625
0.021142
0.0231665
0.0252298
0.0273254
0.029447
0.0315877
0.0337413
0.0359022
0.0380642
0.0402205
0.0423641
0.0444878
0.0465844
0.0486476
0.0506714
0.0526496
0.0545757
0.0564443
0.0582499
0.0599867
0.0616484
0.0632298
0.0647258
0.0661316
0.0674426
0.0686554
0.0697662
0.0707713
0.0716674
0.0724528
0.0731261
0.0736859
0.0741309
0.0744606
0.0746758
0.0747779
0.0747688
0.0746515
0.0744297
0.074107
0.0736866
0.0731725
0.0725697
0.0718849
0.0711251
0.0702968
0.069406
0.0684589
0.0674624
0.0664234
0.0653488
0.0642445
0.0631154
0.0619727
0.0608258
0.059582
0.058159
0.0134758
0.0118211
0.0103999
0.00911589
0.00785752
0.00663442
0.00545895
0.00433405
0.00326261
0.00224903
0.00129799
0.000414175
-0.000397599
-0.00113311
-0.00178774
-0.00235735
-0.00283819
-0.00322664
-0.00351871
-0.00371109
-0.00380132
-0.00378749
-0.00366822
-0.00344252
-0.00310996
-0.00267095
-0.00212634
-0.00147683
-0.000723294
0.000132857
0.00108975
0.00214526
0.00329718
0.00454284
0.00587895
0.00730176
0.00880695
0.01039
0.0120462
0.013771
0.01556
0.0174089
0.0193126
0.0212661
0.0232642
0.0253006
0.0273689
0.0294626
0.0315754
0.033701
0.0358342
0.0379686
0.0400973
0.0422138
0.0443111
0.0463824
0.0484211
0.0504211
0.0523762
0.0542802
0.0561277
0.0579137
0.059632
0.0612766
0.0628422
0.0643241
0.0657174
0.0670178
0.0682214
0.0693242
0.0703221
0.0712119
0.071992
0.072661
0.0732174
0.0736594
0.0739866
0.0741996
0.0742997
0.0742885
0.0741685
0.0739425
0.0736135
0.0731846
0.0726592
0.072042
0.0713394
0.0705574
0.0697019
0.0687778
0.0677902
0.0667452
0.0656491
0.064508
0.0633267
0.062109
0.0608659
0.0596069
0.0582263
0.0566312
0.0148488
0.0130262
0.0114705
0.0100758
0.00871773
0.00740615
0.00615278
0.00496026
0.00383133
0.00276918
0.00177759
0.000860086
2.04203e-05
-0.000737183
-0.00141009
-0.00199439
-0.00248692
-0.00288448
-0.0031837
-0.00338174
-0.00347659
-0.00346669
-0.00335079
-0.00312828
-0.00279935
-0.00236468
-0.00182498
-0.00118098
-0.000433838
0.00041478
0.001363
0.00240883
0.00355014
0.00478422
0.00610764
0.00751653
0.00900667
0.0105737
0.0122132
0.0139205
0.0156913
0.0175211
0.0194053
0.0213389
0.0233166
0.0253323
0.0273794
0.0294518
0.0315431
0.0336474
0.0357592
0.0378722
0.0399798
0.0420757
0.0441534
0.0462058
0.0482263
0.0502086
0.0521466
0.0540344
0.0558669
0.0576388
0.0593439
0.0609763
0.0625309
0.0640032
0.0653884
0.0666819
0.0678795
0.068977
0.0699703
0.0708562
0.0716329
0.0722992
0.0728531
0.0732927
0.0736173
0.0738275
0.0739244
0.0739093
0.0737839
0.0735505
0.0732118
0.0727705
0.07223
0.0715945
0.0708696
0.0700607
0.0691723
0.0682088
0.0671748
0.0660759
0.0649178
0.0637058
0.0624436
0.0611339
0.0597883
0.0584161
0.0568995
0.0551358
0.0161646
0.0141769
0.0124883
0.0109822
0.0095226
0.00811995
0.00678598
0.0055226
0.00433188
0.00321648
0.00217947
0.00122381
0.000352012
-0.000432694
-0.00112776
-0.00173066
-0.0022386
-0.0026484
-0.00295742
-0.00316367
-0.00326529
-0.00326069
-0.00314906
-0.00293056
-0.00260575
-0.00217516
-0.00163945
-0.000999742
-0.000257612
0.000585227
0.00152705
0.00256598
0.00369975
0.00492547
0.00623962
0.00763842
0.00911777
0.0106734
0.012301
0.0139958
0.0157534
0.0175696
0.0194399
0.0213595
0.0233228
0.0253238
0.0273559
0.0294132
0.0314894
0.0335787
0.0356754
0.0377735
0.0398665
0.0419485
0.044013
0.0460529
0.0480613
0.0500319
0.051959
0.0538368
0.0556602
0.0574235
0.0591207
0.060746
0.0622944
0.0637617
0.0651429
0.066433
0.0676277
0.0687227
0.069714
0.0705985
0.0713742
0.0720395
0.0725922
0.0730301
0.0733524
0.0735594
0.073652
0.0736311
0.0734981
0.0732549
0.0729038
0.0724474
0.0718885
0.0712313
0.0704803
0.0696397
0.0687135
0.0677056
0.0666204
0.0654631
0.064239
0.0629524
0.0616059
0.0602019
0.0587518
0.0572658
0.0556144
0.0536853
0.0174118
0.0152618
0.0134411
0.0118238
0.0102615
0.00876536
0.00734837
0.00601131
0.0047554
0.00358318
0.00249676
0.0014986
0.000591036
-0.000224585
-0.000945665
-0.00157049
-0.0020965
-0.00252122
-0.00284273
-0.00305927
-0.00316903
-0.00317077
-0.0030644
-0.00285062
-0.00252992
-0.00210267
-0.00156997
-0.000933527
-0.000195043
0.000643977
0.00158192
0.00261671
0.00374585
0.00496633
0.00627472
0.00766739
0.0091403
0.0106891
0.0123093
0.0139963
0.0157458
0.0175539
0.0194159
0.0213271
0.0232818
0.0252739
0.0272972
0.0293458
0.0314133
0.0334937
0.0355815
0.0376711
0.0397562
0.0418309
0.0438886
0.0459221
0.0479243
0.0498895
0.051812
0.0536859
0.055506
0.0572664
0.0589611
0.0605844
0.0621317
0.0635985
0.0649796
0.0662698
0.0674646
0.06856
0.0695522
0.070438
0.0712151
0.0718813
0.0724342
0.0728715
0.0731919
0.0733956
0.0734831
0.0734551
0.0733128
0.0730579
0.0726925
0.0722187
0.071639
0.0709568
0.0701757
0.0692994
0.0683312
0.0672748
0.0661346
0.0649155
0.0636219
0.0622573
0.0608238
0.0593232
0.0577675
0.0561674
0.0543824
0.052291
0.0185808
0.0162697
0.0143177
0.0125893
0.0109237
0.00933249
0.00782995
0.00641675
0.00509305
0.00386082
0.00272201
0.00167816
0.000730968
-0.000118511
-0.000868731
-0.00151802
-0.0020645
-0.0025066
-0.00284266
-0.00307081
-0.00318967
-0.00319878
-0.0030986
-0.00288971
-0.00257247
-0.00214773
-0.00161725
-0.000982999
-0.000246463
0.000591008
0.0015276
0.0025609
0.00368824
0.00490671
0.00621306
0.00760369
0.00907439
0.0106206
0.012238
0.013922
0.0156686
0.0174737
0.0193329
0.0212411
0.0231928
0.0251821
0.0272027
0.0292486
0.0313134
0.0333911
0.0354765
0.0375641
0.0396479
0.0417216
0.0437786
0.0458117
0.0478141
0.0497802
0.0517042
0.0535803
0.0554027
0.0571659
0.0588637
0.0604904
0.0620415
0.0635122
0.0648971
0.0661909
0.0673893
0.0684883
0.0694844
0.0703742
0.0711549
0.071824
0.0723787
0.0728162
0.0731354
0.073336
0.0734182
0.0733824
0.0732297
0.0729618
0.0725806
0.0720877
0.0714848
0.0707744
0.0699598
0.0690441
0.0680306
0.0669227
0.0657245
0.0644403
0.063074
0.0616286
0.0601057
0.0585069
0.0568447
0.0551306
0.0532131
0.0509618
0.0196612
0.0171906
0.0151077
0.0132675
0.0114985
0.00981153
0.00822153
0.00672975
0.00533608
0.00404147
0.00284756
0.00175547
0.000765706
-0.000120184
-0.000901746
-0.00157772
-0.00214705
-0.00260843
-0.00296017
-0.00320083
-0.00332981
-0.00334722
-0.00325347
-0.00304893
-0.00273436
-0.00231146
-0.00178238
-0.00114887
-0.000412161
0.000426137
0.00136377
0.00239811
0.00352666
0.00474667
0.00605487
0.00744744
0.00891998
0.0104679
0.012087
0.0137729
0.0155216
0.0173289
0.0191904
0.021101
0.0230555
0.0250478
0.0270716
0.0291207
0.0311889
0.0332702
0.0353596
0.0374517
0.0395404
0.0416193
0.0436817
0.0457205
0.0477294
0.0497026
0.0516343
0.0535183
0.0553489
0.0571204
0.0588269
0.0604625
0.0620224
0.0635014
0.0648941
0.0661954
0.0674009
0.0685072
0.0695102
0.0704066
0.0711932
0.0718671
0.072425
0.0728642
0.0731829
0.0733809
0.073458
0.0734144
0.073251
0.0729692
0.0725708
0.0720567
0.0714282
0.0706871
0.0698361
0.0688783
0.0678169
0.0666549
0.0653959
0.0640439
0.0626021
0.0610734
0.0594591
0.0577606
0.0559913
0.0541634
0.0521144
0.0497051
0.0206426
0.0180148
0.0158011
0.0138487
0.0119755
0.0101923
0.00851395
0.00694186
0.00547615
0.00411731
0.00286603
0.00172319
0.000689217
-0.000235272
-0.00105008
-0.0017548
-0.00234869
-0.00283039
-0.0031986
-0.00345274
-0.00359273
-0.00361869
-0.00353084
-0.00332987
-0.00301742
-0.00259571
-0.00206673
-0.00143192
-0.000692808
0.000148492
0.00108946
0.00212764
0.00326075
0.00448601
0.00579985
0.0071982
0.0086766
0.0102306
0.011856
0.0135486
0.0153042
0.0171188
0.0189878
0.0209063
0.0228692
0.0248702
0.0269028
0.0289609
0.0310385
0.0331297
0.0352296
0.0373325
0.0394321
0.0415222
0.0435962
0.0456471
0.0476687
0.0496552
0.0516004
0.0534982
0.0553427
0.0571283
0.058849
0.0604989
0.0620725
0.0635645
0.0649696
0.0662826
0.0674994
0.0686164
0.0696297
0.0705353
0.0713301
0.0720107
0.0725736
0.0730158
0.0733354
0.0735318
0.0736045
0.0735536
0.0733794
0.0730831
0.072666
0.072129
0.0714729
0.0706989
0.0698095
0.0688076
0.067696
0.0664775
0.0651553
0.0637327
0.062213
0.0605989
0.0588916
0.0570922
0.0552152
0.0532734
0.0510935
0.0485276
0.021516
0.0187324
0.0163886
0.0143237
0.0123453
0.0104652
0.00869794
0.00704458
0.00550521
0.00408033
0.0027701
0.00157473
0.000494988
-0.000469854
-0.00131972
-0.00205465
-0.00267395
-0.00317662
-0.00356222
-0.00383069
-0.00398187
-0.00401579
-0.00393303
-0.00373513
-0.0034243
-0.00300262
-0.00247181
-0.00183355
-0.00108999
-0.000243594
0.000703282
0.00174849
0.00288971
0.00412385
0.00544698
0.00685493
0.00834332
0.00990783
0.0115442
0.0132482
0.0150157
0.0168425
0.0187242
0.0206561
0.0226327
0.0246478
0.0266949
0.028768
0.0308611
0.0329684
0.0350849
0.0372046
0.0393213
0.0414287
0.0435205
0.0455899
0.0476303
0.049636
0.0516008
0.0535181
0.0553823
0.0571878
0.0589283
0.0605976
0.0621901
0.0637003
0.0651226
0.066452
0.0676845
0.0688162
0.069843
0.0707608
0.0715661
0.0722556
0.0728256
0.0732729
0.0735952
0.0737914
0.0738608
0.073803
0.0736181
0.0733069
0.0728703
0.072309
0.0716236
0.0708153
0.0698862
0.0688385
0.0676749
0.0663976
0.0650097
0.0635142
0.0619146
0.0602134
0.0584114
0.05651
0.0545246
0.0524684
0.0501578
0.047436
0.0222728
0.0193344
0.0168617
0.0146839
0.0125997
0.0106218
0.00876493
0.00702947
0.00541531
0.00392291
0.00255244
0.0013036
0.000176205
-0.00083039
-0.00171655
-0.00248242
-0.00312767
-0.00365212
-0.00405586
-0.00433875
-0.00450055
-0.00454165
-0.00446345
-0.00426817
-0.00395793
-0.00353449
-0.00299975
-0.00235612
-0.0016062
-0.000752342
0.000203485
0.00125915
0.00241197
0.00365842
0.00499445
0.00641595
0.00791864
0.00949815
0.0111502
0.0128703
0.0146544
0.0164985
0.0183983
0.0203487
0.0223444
0.0243791
0.0264464
0.0285403
0.030655
0.0327845
0.0349235
0.037066
0.0392058
0.0413369
0.0434528
0.0455468
0.0476122
0.0496431
0.0516332
0.053576
0.0554657
0.0572966
0.0590625
0.0607567
0.0623736
0.0639072
0.065352
0.066703
0.0679557
0.0691063
0.0701502
0.0710832
0.0719019
0.0726029
0.0731826
0.0736374
0.0739645
0.0741623
0.0742296
0.0741657
0.0739703
0.0736441
0.0731876
0.0726015
0.0718861
0.0710427
0.0700726
0.0689778
0.0677602
0.0664222
0.0649664
0.0633962
0.0617148
0.0599247
0.0580268
0.0560222
0.0539272
0.051756
0.0493143
0.0464366
0.0229062
0.019813
0.0172115
0.0149214
0.012731
0.0106543
0.00870694
0.0068885
0.00519872
0.00363795
0.00220599
0.000902458
-0.000273856
-0.00132313
-0.0022462
-0.00304351
-0.00371542
-0.00426229
-0.00468414
-0.00498081
-0.0051525
-0.00520033
-0.00512634
-0.00493271
-0.00462131
-0.00419407
-0.00365361
-0.00300289
-0.00224444
-0.00138019
-0.000412033
0.000657485
0.00182516
0.00308729
0.00443995
0.00587918
0.00740059
0.00899963
0.0106719
0.0124129
0.0142187
0.0160854
0.0180084
0.0199826
0.0220027
0.0240624
0.0261556
0.0282763
0.0304184
0.032576
0.0347434
0.0369147
0.0390837
0.0412446
0.0433909
0.0455157
0.0476122
0.0496742
0.0516954
0.0536694
0.0555905
0.0574526
0.0592494
0.0609741
0.0626207
0.0641834
0.0656563
0.067034
0.0683119
0.0694856
0.0705506
0.0715025
0.072338
0.0730536
0.0736459
0.0741107
0.074445
0.0746462
0.0747129
0.0746437
0.0744385
0.0740976
0.0736217
0.0730108
0.0722654
0.0713861
0.070374
0.0692307
0.0679577
0.0665573
0.0650322
0.0633857
0.0616209
0.0597403
0.0577448
0.0556357
0.0534299
0.0511425
0.0485688
0.0455345
0.0234104
0.0201614
0.0174303
0.0150282
0.0127314
0.0105551
0.00851629
0.00661422
0.00484802
0.00321797
0.00172356
0.000364008
-0.000861669
-0.00195417
-0.00291464
-0.00374403
-0.00444316
-0.00501234
-0.00545161
-0.00576135
-0.00594252
-0.00599676
-0.0059261
-0.00573247
-0.0054179
-0.00498511
-0.00443735
-0.00377751
-0.00300769
-0.00212972
-0.00114591
-5.9413e-05
0.00112632
0.00240774
0.0037811
0.00524236
0.00678691
0.00840999
0.0101071
0.0118741
0.0137068
0.0156012
0.0175526
0.019556
0.0216058
0.0236962
0.025821
0.0279743
0.0301497
0.0323411
0.0345427
0.0367488
0.0389532
0.0411501
0.043333
0.0454947
0.0476282
0.0497273
0.0517855
0.0537966
0.0557548
0.0576539
0.0594872
0.061248
0.06293
0.0645274
0.0660339
0.0674437
0.0687517
0.0699532
0.0710436
0.0720186
0.0728748
0.0736088
0.0742167
0.0746944
0.075038
0.0752447
0.0753123
0.0752394
0.0750255
0.074671
0.0741763
0.0735413
0.0727659
0.0718502
0.0707953
0.0696023
0.0682727
0.0668089
0.0652135
0.0634895
0.0616397
0.0596668
0.0575721
0.0553567
0.0530387
0.0506339
0.0479268
0.0447346
0.0237798
0.0203733
0.0175115
0.0149965
0.012593
0.0103167
0.00818559
0.00619902
0.00435565
0.00265532
0.0010977
-0.000318507
-0.00159392
-0.00273014
-0.00372852
-0.00459039
-0.00531659
-0.00590743
-0.00636349
-0.00668593
-0.00687619
-0.00693594
-0.006867
-0.00667146
-0.00635207
-0.00591222
-0.00535519
-0.00468343
-0.00389891
-0.00300394
-0.00200149
-0.000894973
0.000312303
0.00161699
0.00301531
0.00450292
0.00607497
0.00772669
0.00945373
0.0112518
0.0131167
0.015044
0.017029
0.0190668
0.021152
0.0232788
0.0254412
0.0276328
0.0298473
0.0320781
0.0343199
0.0365668
0.0388129
0.041052
0.0432775
0.045482
0.0476587
0.0498009
0.0519023
0.0539565
0.0559577
0.0578995
0.0597751
0.0615776
0.0633008
0.0649385
0.0664842
0.0679315
0.0692748
0.0705091
0.0716297
0.0726324
0.0735137
0.0742702
0.0748974
0.0753906
0.075746
0.0759602
0.0760308
0.0759562
0.0757356
0.075369
0.0748567
0.0741981
0.0733926
0.0724403
0.0713419
0.0700985
0.0687119
0.067184
0.0655173
0.0637144
0.0617781
0.0597114
0.0575156
0.0551921
0.05276
0.050236
0.0473938
0.044042
0.0240073
0.0204424
0.0174485
0.0148192
0.0123084
0.0099316
0.00770738
0.00563523
0.00371384
0.00194269
0.000321158
-0.00115189
-0.00247775
-0.00365816
-0.00469467
-0.00558877
-0.00634138
-0.00695334
-0.00742593
-0.00776067
-0.00795905
-0.0080227
-0.00795363
-0.00775459
-0.00742895
-0.00698016
-0.0064111
-0.00572409
-0.00492161
-0.00400672
-0.00298272
-0.00185284
-0.000620124
0.000712032
0.00213951
0.00365771
0.00526174
0.00694695
0.00870904
0.0105435
0.0124457
0.0144112
0.0164352
0.018513
0.0206395
0.0228087
0.0250144
0.0272502
0.0295094
0.0317858
0.0340738
0.0363679
0.0386619
0.0409494
0.0432235
0.045477
0.0477028
0.0498944
0.0520454
0.0541491
0.0561993
0.0581897
0.0601133
0.0619634
0.0637336
0.0654172
0.0670076
0.0684978
0.0698818
0.0711543
0.0723103
0.0733458
0.074257
0.07504
0.0756901
0.0762022
0.076572
0.0767964
0.0768727
0.076799
0.076574
0.0761972
0.0756684
0.0749867
0.0741514
0.0731624
0.0720205
0.0707268
0.0692828
0.0676901
0.0659509
0.0640677
0.0620435
0.0598813
0.0575827
0.0551492
0.0526009
0.0499555
0.0469762
0.0434624
0.0240859
0.0203619
0.0172349
0.01449
0.0118706
0.00939217
0.00707397
0.00491542
0.00291516
0.00107266
-0.000613286
-0.00214366
-0.00352046
-0.00474522
-0.00581969
-0.00674548
-0.00752397
-0.00815674
-0.0086454
-0.00899143
-0.0091964
-0.0092622
-0.00919146
-0.00898749
-0.00865376
-0.00819334
-0.007609
-0.00690356
-0.00608028
-0.00514265
-0.00409383
-0.00293675
-0.00167447
-0.000310763
0.00114995
0.00270306
0.00434384
0.00606769
0.00787006
0.00974609
0.0116909
0.0136999
0.0157686
0.0178923
0.0200661
0.0222836
0.0245386
0.0268244
0.0291344
0.0314625
0.0338032
0.0361508
0.0384989
0.0408409
0.0431699
0.0454787
0.0477601
0.0500077
0.0522147
0.0543742
0.0564797
0.0585247
0.0605024
0.062406
0.0642288
0.065964
0.0676045
0.0691431
0.0705734
0.0718898
0.0730869
0.0741604
0.0751062
0.0759201
0.0765969
0.0771314
0.0775192
0.077757
0.0778421
0.0777722
0.0775453
0.0771603
0.0766163
0.0759124
0.0750478
0.0740227
0.0728377
0.071494
0.0699923
0.0683341
0.0665211
0.0645562
0.0624426
0.0601834
0.0577801
0.0552346
0.052568
0.049799
0.04668
0.0430012
0.0240085
0.0201245
0.0168634
0.0140016
0.0112719
0.00869068
0.00627761
0.00403189
0.00195199
3.7293e-05
-0.00171341
-0.0033017
-0.00472945
-0.00599836
-0.00711039
-0.00806745
-0.00887152
-0.00952452
-0.0100281
-0.0103839
-0.0105939
-0.0106604
-0.0105865
-0.0103758
-0.0100313
-0.00955609
-0.00895336
-0.00822673
-0.00737994
-0.00641637
-0.00533892
-0.00415054
-0.00285469
-0.00145549
4.2618e-05
0.00163527
0.00331784
0.00508549
0.00693323
0.00885588
0.0108485
0.0129067
0.015026
0.0172019
0.0194289
0.0217007
0.0240107
0.0263526
0.0287199
0.0311063
0.0335062
0.0359136
0.038322
0.0407248
0.0431151
0.0454857
0.0478295
0.0501397
0.0524092
0.054631
0.0567982
0.0589041
0.060942
0.062905
0.0647864
0.066579
0.0682752
0.0698678
0.0713501
0.072716
0.07396
0.0750769
0.0760623
0.0769114
0.0776191
0.0781801
0.0785899
0.0788452
0.0789427
0.0788796
0.0786533
0.0782619
0.0777044
0.0769796
0.0760872
0.075027
0.0737997
0.072406
0.0708463
0.0691216
0.0672339
0.0651861
0.0629817
0.0606237
0.058114
0.0554544
0.0526672
0.0497722