/*--------------------------------*- C++ -*----------------------------------*\
  =========                 |
  \\      /  F ield         | OpenFOAM: The Open Source CFD Toolbox
   \\    /   O peration     | Website:  https://openfoam.org
    \\  /    A nd           | Version:  11
     \\/     M anipulation  |
\*---------------------------------------------------------------------------*/
FoamFile
{
    format      ascii;
    class       surfaceScalarField;
    location    "3.1";
    object      phi;
}
// * * * * * * * * * * * * * * * * * * * * * * * * * * * * * * * * * * * * * //

dimensions      [0 3 -1 0 0 0 0];

internalField   nonuniform List<scalar> 
19980
(
6.16371e-07
-6.16105e-07
1.38673e-06
-7.70424e-07
2.48436e-06
-1.09755e-06
3.11421e-06
-6.29894e-07
3.13309e-06
-1.87935e-08
2.4291e-06
7.03755e-07
9.41238e-07
1.48788e-06
-1.34319e-06
2.28447e-06
-4.42112e-06
3.07786e-06
-8.26788e-06
3.84679e-06
-1.28516e-05
4.58365e-06
-1.81271e-05
5.27556e-06
-2.40506e-05
5.92341e-06
-3.05745e-05
6.52397e-06
-3.76482e-05
7.0737e-06
-4.522e-05
7.57179e-06
-5.32355e-05
8.0155e-06
-6.16387e-05
8.40325e-06
-7.03751e-05
8.73645e-06
-7.93926e-05
9.01752e-06
-8.86378e-05
9.24531e-06
-9.80559e-05
9.41821e-06
-0.000107596
9.54015e-06
-0.00011721
9.61419e-06
-0.000126849
9.63894e-06
-0.000136464
9.6155e-06
-0.000146013
9.54842e-06
-0.000155453
9.4401e-06
-0.000164745
9.29152e-06
-0.000173851
9.1062e-06
-0.000182739
8.88764e-06
-0.000191374
8.63602e-06
-0.000199726
8.35114e-06
-0.000207761
8.03596e-06
-0.000215456
7.69483e-06
-0.000222786
7.32955e-06
-0.000229725
6.9394e-06
-0.00023625
6.52465e-06
-0.000242338
6.08842e-06
-0.000247973
5.63475e-06
-0.000253139
5.16579e-06
-0.00025782
4.68139e-06
-0.000262001
4.1812e-06
-0.000265668
3.66639e-06
-0.000268807
3.13947e-06
-0.00027141
2.60307e-06
-0.00027347
2.05911e-06
-0.000274978
1.50874e-06
-0.000275931
9.53005e-07
-0.000276325
3.93177e-07
-0.000276155
-1.69158e-07
-0.000275423
-7.3224e-07
-0.000274129
-1.2945e-06
-0.000272274
-1.85461e-06
-0.000269863
-2.41123e-06
-0.0002669
-2.96264e-06
-0.000263394
-3.50655e-06
-0.000259354
-4.04034e-06
-0.000254792
-4.56196e-06
-0.000249721
-5.07012e-06
-0.000244157
-5.56397e-06
-0.000238115
-6.0424e-06
-0.000231611
-6.50356e-06
-0.000224667
-6.94487e-06
-0.000217303
-7.36369e-06
-0.000209545
-7.75779e-06
-0.00020142
-8.12548e-06
-0.000192954
-8.46541e-06
-0.000184178
-8.77605e-06
-0.000175123
-9.05527e-06
-0.000165822
-9.30043e-06
-0.000156314
-9.50857e-06
-0.000146637
-9.67674e-06
-0.000136835
-9.80211e-06
-0.000126953
-9.8822e-06
-0.000117038
-9.91483e-06
-0.00010714
-9.89801e-06
-9.73103e-05
-9.8298e-06
-8.76023e-05
-9.70805e-06
-7.80719e-05
-9.53045e-06
-6.87772e-05
-9.29477e-06
-5.97778e-05
-8.99933e-06
-5.11345e-05
-8.6433e-06
-4.29076e-05
-8.22692e-06
-3.51563e-05
-7.75128e-06
-2.79385e-05
-7.21786e-06
-2.13104e-05
-6.62809e-06
-1.53269e-05
-5.98344e-06
-1.0041e-05
-5.28599e-06
-5.5019e-06
-4.53909e-06
-1.75386e-06
-3.74809e-06
1.16727e-06
-2.92115e-06
3.23753e-06
-2.07026e-06
4.45041e-06
-1.21288e-06
4.8261e-06
-3.75703e-07
4.42747e-06
3.98581e-07
3.38753e-06
1.03992e-06
1.95771e-06
1.42993e-06
5.95786e-07
1.36217e-06
5.96027e-07
1.96101e-06
-2.57716e-06
4.166e-06
-2.9753e-06
5.58405e-06
-2.51568e-06
5.86931e-06
-9.15235e-07
4.50817e-06
1.34238e-06
1.22958e-06
3.98243e-06
-4.11435e-06
6.83176e-06
-1.15906e-05
9.76072e-06
-2.11951e-05
1.26825e-05
-3.28806e-05
1.55322e-05
-4.65643e-05
1.82676e-05
-6.21434e-05
2.08546e-05
-7.94948e-05
2.32751e-05
-9.84868e-05
2.55161e-05
-0.00011898
2.75665e-05
-0.000140826
2.94186e-05
-0.000163879
3.10676e-05
-0.000187988
3.25125e-05
-0.000213004
3.37528e-05
-0.000238777
3.47903e-05
-0.000265161
3.56293e-05
-0.000292015
3.62723e-05
-0.000319198
3.67225e-05
-0.00034657
3.69866e-05
-0.000374002
3.70711e-05
-0.000401369
3.69817e-05
-0.000428545
3.67254e-05
-0.000455416
3.63107e-05
-0.000481871
3.57468e-05
-0.000507807
3.50419e-05
-0.000533122
3.42027e-05
-0.000557721
3.3235e-05
-0.000581515
3.21454e-05
-0.000604421
3.09421e-05
-0.00062636
2.96329e-05
-0.000647254
2.82241e-05
-0.000667035
2.67204e-05
-0.000685638
2.5128e-05
-0.000703004
2.34546e-05
-0.000719078
2.17084e-05
-0.000733808
1.98958e-05
-0.000747148
1.80217e-05
-0.000759058
1.60904e-05
-0.000769498
1.41071e-05
-0.000778437
1.20781e-05
-0.000785844
1.00101e-05
-0.000791695
7.90979e-06
-0.00079597
5.78359e-06
-0.000798654
3.63742e-06
-0.000799738
1.47692e-06
-0.000799215
-6.92307e-07
-0.000797083
-2.86443e-06
-0.000793344
-5.0334e-06
-0.000788005
-7.19316e-06
-0.000781079
-9.33742e-06
-0.000772582
-1.14592e-05
-0.000762538
-1.35511e-05
-0.000750973
-1.56051e-05
-0.000737921
-1.76138e-05
-0.00072342
-1.9571e-05
-0.000707513
-2.14709e-05
-0.000690248
-2.33075e-05
-0.000671678
-2.50735e-05
-0.000651862
-2.67608e-05
-0.000630866
-2.83604e-05
-0.000608759
-2.98641e-05
-0.00058562
-3.12648e-05
-0.00056153
-3.25553e-05
-0.000536577
-3.37287e-05
-0.000510856
-3.47769e-05
-0.000484465
-3.56911e-05
-0.000457512
-3.6462e-05
-0.000430108
-3.70804e-05
-0.000402373
-3.75371e-05
-0.000374432
-3.78233e-05
-0.000346416
-3.79312e-05
-0.00031846
-3.78532e-05
-0.000290708
-3.75826e-05
-0.000263303
-3.71125e-05
-0.000236397
-3.64363e-05
-0.000210144
-3.55481e-05
-0.0001847
-3.44435e-05
-0.000160223
-3.31203e-05
-0.000136871
-3.15785e-05
-0.000114802
-2.98202e-05
-9.41706e-05
-2.78495e-05
-7.51269e-05
-2.56718e-05
-5.78158e-05
-2.32946e-05
-4.23736e-05
-2.07283e-05
-2.89238e-05
-1.79889e-05
-1.75718e-05
-1.51e-05
-8.39719e-06
-1.20957e-05
-1.44325e-06
-9.02423e-06
3.29815e-06
-5.95424e-06
5.90834e-06
-2.98579e-06
6.57365e-06
-2.66707e-07
5.6306e-06
1.98282e-06
3.62338e-06
3.43673e-06
1.36042e-06
3.62455e-06
1.95662e-06
1.68965e-06
-4.26673e-06
4.0084e-06
-5.29411e-06
4.94946e-06
-3.45668e-06
3.85042e-06
1.83745e-07
1.66527e-07
5.02621e-06
-6.48169e-06
1.06304e-05
-1.63007e-05
1.66508e-05
-2.9393e-05
2.28529e-05
-4.57544e-05
2.90439e-05
-6.53223e-05
3.51001e-05
-8.79744e-05
4.09196e-05
-0.000113557
4.64374e-05
-0.000141886
5.16043e-05
-0.000172756
5.63859e-05
-0.00020595
6.07604e-05
-0.000241243
6.47118e-05
-0.000278405
6.82295e-05
-0.000317201
7.13087e-05
-0.0003574
7.39515e-05
-0.000398771
7.61622e-05
-0.000441087
7.79447e-05
-0.000484121
7.93064e-05
-0.000527657
8.02594e-05
-0.000571486
8.08153e-05
-0.000615399
8.09845e-05
-0.000659198
8.07805e-05
-0.000702693
8.02197e-05
-0.0007457
7.93183e-05
-0.000788045
7.80917e-05
-0.000829559
7.65557e-05
-0.000870082
7.47259e-05
-0.000909463
7.26167e-05
-0.000947561
7.02426e-05
-0.000984237
6.76188e-05
-0.00101937
6.4761e-05
-0.00105282
6.16834e-05
-0.0010845
5.83992e-05
-0.0011143
5.49222e-05
-0.00114211
5.12671e-05
-0.00116785
4.74491e-05
-0.00119144
4.34822e-05
-0.00121279
3.93789e-05
-0.00123186
3.51512e-05
-0.00124856
3.08113e-05
-0.00126285
2.63721e-05
-0.00127469
2.18475e-05
-0.00128403
1.72516e-05
-0.00129085
1.25982e-05
-0.00129511
7.90043e-06
-0.00129681
3.17114e-06
-0.00129592
-1.57674e-06
-0.00129246
-6.33005e-06
-0.00128641
-1.10752e-05
-0.00127781
-1.57983e-05
-0.00126666
-2.04852e-05
-0.001253
-2.5121e-05
-0.00123686
-2.969e-05
-0.00121829
-3.41767e-05
-0.00119734
-3.85654e-05
-0.00117407
-4.28412e-05
-0.00114855
-4.69894e-05
-0.00112086
-5.09952e-05
-0.00109109
-5.48424e-05
-0.00105934
-5.85139e-05
-0.00102571
-6.19923e-05
-0.000990311
-6.526e-05
-0.000953275
-6.83005e-05
-0.000914733
-7.10974e-05
-0.000874828
-7.36339e-05
-0.000833711
-7.58929e-05
-0.000791546
-7.78564e-05
-0.000748502
-7.95061e-05
-0.000704759
-8.08237e-05
-0.000660505
-8.17914e-05
-0.000615936
-8.23921e-05
-0.000571258
-8.26094e-05
-0.000526682
-8.24284e-05
-0.00048243
-8.18351e-05
-0.000438726
-8.08163e-05
-0.000395802
-7.93603e-05
-0.000353893
-7.74569e-05
-0.000313238
-7.50987e-05
-0.000274077
-7.22814e-05
-0.000236651
-6.90048e-05
-0.000201198
-6.52726e-05
-0.000167955
-6.10929e-05
-0.000137148
-5.64783e-05
-0.000108996
-5.14471e-05
-8.36983e-05
-4.60259e-05
-6.14344e-05
-4.02528e-05
-4.23523e-05
-3.41821e-05
-2.6559e-05
-2.78892e-05
-1.41044e-05
-2.14788e-05
-4.96208e-06
-1.50965e-05
9.9778e-07
-8.94567e-06
4.04378e-06
-3.31258e-06
4.62725e-06
1.39968e-06
3.43155e-06
4.63265e-06
1.42393e-06
5.63188e-06
3.38057e-06
1.30513e-06
-5.57192e-06
2.49786e-06
-6.48691e-06
1.75499e-06
-2.71385e-06
-1.79962e-06
3.73836e-06
-8.77866e-06
1.20052e-05
-1.95981e-05
2.14499e-05
-3.45191e-05
3.15717e-05
-5.36517e-05
4.19856e-05
-7.70062e-05
5.23985e-05
-0.000104504
6.25976e-05
-0.000136001
7.24176e-05
-0.000171305
8.17409e-05
-0.000210182
9.04811e-05
-0.000252374
9.85777e-05
-0.000297601
0.000105988
-0.000345572
0.000112683
-0.000395988
0.000118645
-0.000448549
0.000123869
-0.000502948
0.00012835
-0.00055888
0.000132095
-0.000616048
0.000135113
-0.000674159
0.000137417
-0.000732924
0.000139024
-0.000792061
0.000139952
-0.000851298
0.000140222
-0.000910374
0.000139856
-0.000969034
0.00013888
-0.00102703
0.000137317
-0.00108414
0.000135194
-0.00114012
0.000132538
-0.00119476
0.000129373
-0.00124787
0.000125724
-0.00129925
0.000121618
-0.00134871
0.00011708
-0.00139608
0.000112135
-0.00144121
0.000106808
-0.00148393
0.000101122
-0.00152411
9.51026e-05
-0.00156162
8.87738e-05
-0.00159633
8.21606e-05
-0.00162813
7.52863e-05
-0.00165693
6.81738e-05
-0.00168262
6.08454e-05
-0.00170513
5.33232e-05
-0.00172439
4.56301e-05
-0.00174033
3.77895e-05
-0.00175291
2.98248e-05
-0.00176207
2.17595e-05
-0.00176779
1.36169e-05
-0.00177003
5.41964e-06
-0.0017688
-2.80906e-06
-0.00176409
-1.10459e-05
-0.00175589
-1.9267e-05
-0.00174424
-2.7448e-05
-0.00172917
-3.55641e-05
-0.0017107
-4.35896e-05
-0.00168889
-5.14983e-05
-0.0016638
-5.92637e-05
-0.00163551
-6.68591e-05
-0.00160409
-7.42579e-05
-0.00156965
-8.14337e-05
-0.00153228
-8.83592e-05
-0.00149212
-9.50064e-05
-0.00144929
-0.000101346
-0.00140393
-0.000107349
-0.0013562
-0.000112986
-0.00130628
-0.000118227
-0.00125433
-0.000123045
-0.00120055
-0.000127408
-0.00114516
-0.000131289
-0.00108836
-0.000134657
-0.00103038
-0.000137481
-0.000971474
-0.000139733
-0.000911882
-0.000141384
-0.000851868
-0.000142406
-0.000791704
-0.000142773
-0.000731673
-0.00014246
-0.000672063
-0.000141445
-0.000613172
-0.000139707
-0.000555304
-0.000137229
-0.000498766
-0.000133995
-0.00044387
-0.000129995
-0.000390928
-0.000125223
-0.000340252
-0.000119681
-0.00029215
-0.000113374
-0.000246926
-0.000106318
-0.000204869
-9.85352e-05
-0.000166254
-9.00619e-05
-0.000131333
-8.0947e-05
-0.000100326
-7.126e-05
-7.3412e-05
-6.1096e-05
-5.0716e-05
-5.05851e-05
-3.22917e-05
-3.9903e-05
-1.81004e-05
-2.92879e-05
-7.98401e-06
-1.90622e-05
-1.63298e-06
-9.66371e-06
1.45229e-06
-1.68558e-06
2.00386e-06
4.08129e-06
1.03894e-06
6.59674e-06
4.41946e-06
5.90876e-07
-6.16274e-06
1.29513e-07
-6.02555e-06
-3.05665e-06
4.72239e-07
-9.84017e-06
1.05218e-05
-2.08371e-05
2.30023e-05
-3.64711e-05
3.70839e-05
-5.70034e-05
5.2104e-05
-8.25524e-05
6.75347e-05
-0.000113127
8.29729e-05
-0.000148632
9.8103e-05
-0.000188906
0.000112692
-0.000233726
0.000126561
-0.000282824
0.000139579
-0.000335896
0.000151649
-0.000392613
0.000162705
-0.000452632
0.000172702
-0.000515597
0.00018161
-0.000581141
0.000189413
-0.000648901
0.000196111
-0.000718513
0.000201706
-0.000789613
0.000206213
-0.000861843
0.000209648
-0.000934854
0.000212035
-0.0010083
0.000213402
-0.00108186
0.000213778
-0.0011552
0.000213195
-0.00122801
0.00021169
-0.00129999
0.000209298
-0.00137085
0.000206058
-0.00144032
0.000202006
-0.00150813
0.000197181
-0.00157403
0.000191621
-0.00163777
0.000185364
-0.00169914
0.000178449
-0.00175792
0.000170913
-0.0018139
0.000162793
-0.00186691
0.000154127
-0.00191676
0.000144952
-0.00196329
0.000135304
-0.00200635
0.00012522
-0.0020458
0.000114737
-0.00208151
0.000103889
-0.00211338
9.27105e-05
-0.00214129
8.12373e-05
-0.00216517
6.9504e-05
-0.00218492
5.75462e-05
-0.0022005
4.53991e-05
-0.00221184
3.30983e-05
-0.0022189
2.06792e-05
-0.00222166
8.17723e-06
-0.00222009
-4.3719e-06
-0.00221421
-1.69319e-05
-0.00220401
-2.94662e-05
-0.00218952
-4.19375e-05
-0.00217078
-5.43075e-05
-0.00214783
-6.65376e-05
-0.00212074
-7.85882e-05
-0.00208958
-9.04191e-05
-0.00205445
-0.00010199
-0.00201545
-0.000113259
-0.0019727
-0.000124186
-0.00192633
-0.000134729
-0.00187649
-0.000144844
-0.00182335
-0.000154488
-0.00176708
-0.000163617
-0.00170788
-0.000172186
-0.00164596
-0.000180152
-0.00158153
-0.000187469
-0.00151485
-0.000194094
-0.00144615
-0.000199982
-0.00137572
-0.000205088
-0.00130383
-0.000209369
-0.00123079
-0.000212782
-0.00115688
-0.000215285
-0.00108245
-0.000216838
-0.00100782
-0.000217403
-0.000933336
-0.000216945
-0.000859349
-0.000215432
-0.000786222
-0.000212835
-0.000714322
-0.000209129
-0.000644022
-0.000204294
-0.000575699
-0.000198319
-0.000509727
-0.000191195
-0.000446481
-0.000182927
-0.000386329
-0.000173526
-0.00032963
-0.000163017
-0.000276725
-0.00015144
-0.000227937
-0.00013885
-0.000183557
-0.000125326
-0.000143841
-0.000110977
-0.000108991
-9.59458e-05
-7.91489e-05
-8.0427e-05
-5.43754e-05
-6.46765e-05
-3.46305e-05
-4.90328e-05
-1.975e-05
-3.39426e-05
-9.41797e-06
-1.99958e-05
-3.13511e-06
-7.96861e-06
-1.84249e-07
1.13054e-06
4.13433e-07
5.99907e-06
4.83287e-06
-2.51271e-07
-5.9117e-06
-2.72166e-06
-3.55509e-06
-8.8207e-06
6.57098e-06
-1.93556e-05
2.10569e-05
-3.48813e-05
3.85279e-05
-5.57922e-05
5.79948e-05
-8.23254e-05
7.86374e-05
-0.000114589
9.97982e-05
-0.000152571
0.000120955
-0.000196165
0.000141697
-0.000245186
0.000161713
-0.000299383
0.000180758
-0.000358456
0.000198652
-0.000422067
0.000215261
-0.000489847
0.000230485
-0.000561403
0.000244258
-0.000636331
0.000256538
-0.000714218
0.0002673
-0.000794643
0.000276536
-0.000877186
0.00028425
-0.00096143
0.000290457
-0.00104696
0.00029518
-0.00113338
0.00029845
-0.00122028
0.000300302
-0.00130728
0.000300775
-0.00139399
0.000299914
-0.00148007
0.000297765
-0.00156515
0.000294379
-0.0016489
0.000289806
-0.00173099
0.000284096
-0.00181111
0.000277302
-0.00188897
0.000269478
-0.00196428
0.000260676
-0.00203678
0.000250948
-0.00210621
0.000240348
-0.00217235
0.000228927
-0.00223496
0.000216738
-0.00229384
0.000203831
-0.00234879
0.00019026
-0.00239965
0.000176075
-0.00244624
0.000161326
-0.00248841
0.000146063
-0.00252603
0.000130335
-0.00255899
0.000114193
-0.00258717
9.76846e-05
-0.00261049
8.08609e-05
-0.00262886
6.37715e-05
-0.00264222
4.64659e-05
-0.00265054
2.8994e-05
-0.00265377
1.14062e-05
-0.00265189
-6.24684e-06
-0.00264491
-2.39138e-05
-0.00263284
-4.15428e-05
-0.00261569
-5.90809e-05
-0.00259352
-7.64747e-05
-0.00256639
-9.36698e-05
-0.00253437
-0.000110611
-0.00249755
-0.000127241
-0.00245603
-0.000143504
-0.00240995
-0.000159341
-0.00235944
-0.000174695
-0.00230467
-0.000189505
-0.0022458
-0.000203713
-0.00218303
-0.000217256
-0.00211657
-0.000230073
-0.00204666
-0.000242102
-0.00197353
-0.000253282
-0.00189745
-0.000263551
-0.00181869
-0.000272846
-0.00173757
-0.000281106
-0.00165439
-0.00028827
-0.00156948
-0.000294278
-0.00148319
-0.000299072
-0.00139588
-0.000302595
-0.00130792
-0.000304793
-0.00121971
-0.000305616
-0.00113164
-0.000305016
-0.00104412
-0.00030295
-0.000957575
-0.000299382
-0.000872424
-0.000294279
-0.0007891
-0.000287618
-0.000708037
-0.000279382
-0.000629664
-0.000269567
-0.000554411
-0.00025818
-0.000482697
-0.00024524
-0.000414928
-0.000230786
-0.000351492
-0.000214876
-0.000292751
-0.000197592
-0.000239031
-0.000179046
-0.000190616
-0.000159391
-0.000147735
-0.000138827
-0.000110545
-0.000117616
-7.91236e-05
-9.60985e-05
-5.34414e-05
-7.47149e-05
-3.33493e-05
-5.40347e-05
-1.85534e-05
-3.47918e-05
-8.59204e-06
-1.79301e-05
-2.81116e-06
-4.65033e-06
-3.34029e-07
3.52195e-06
4.49885e-06
-1.14105e-06
-4.77064e-06
-5.81012e-06
1.11389e-06
-1.51116e-05
1.58724e-05
-2.97182e-05
3.56635e-05
-5.01097e-05
5.89194e-05
-7.66176e-05
8.45028e-05
-0.000109433
0.000111453
-0.000148628
0.000138994
-0.000194166
0.000166492
-0.000245915
0.000193446
-0.000303663
0.000219461
-0.000367135
0.00024423
-0.000436
0.000267516
-0.000509883
0.000289144
-0.000588381
0.000308983
-0.000671063
0.00032694
-0.000757482
0.000342956
-0.000847176
0.000356995
-0.000939682
0.000369042
-0.00103453
0.000379099
-0.00113126
0.000387182
-0.0012294
0.000393319
-0.00132849
0.000397547
-0.0014281
0.00039991
-0.00152778
0.000400457
-0.00162711
0.000399246
-0.00172569
0.000396336
-0.0018231
0.00039179
-0.00191896
0.000385672
-0.00201292
0.00037805
-0.00210461
0.000368993
-0.0021937
0.000358568
-0.00227987
0.000346845
-0.00236281
0.000333893
-0.00244224
0.000319781
-0.0025179
0.000304579
-0.00258951
0.000288355
-0.00265686
0.000271177
-0.00271971
0.000253114
-0.00277787
0.000234234
-0.00283115
0.000214603
-0.00287937
0.000194288
-0.00292239
0.000173355
-0.00296007
0.000151869
-0.00299228
0.000129898
-0.00301893
0.000107508
-0.00303992
8.47636e-05
-0.00305519
6.17325e-05
-0.00306468
3.84809e-05
-0.00306835
1.50759e-05
-0.00306618
-8.41469e-06
-0.00305817
-3.19222e-05
-0.00304434
-5.53774e-05
-0.00302471
-7.87097e-05
-0.00299933
-0.000101848
-0.00296828
-0.00012472
-0.00293164
-0.000147252
-0.00288951
-0.000169369
-0.00284202
-0.000190996
-0.00278931
-0.000212055
-0.00273153
-0.000232468
-0.00266888
-0.000252158
-0.00260155
-0.000271043
-0.00252976
-0.000289044
-0.00245376
-0.000306078
-0.0023738
-0.000322065
-0.00229016
-0.000336923
-0.00220314
-0.000350569
-0.00211306
-0.000362923
-0.00202026
-0.000373903
-0.0019251
-0.000383432
-0.00182795
-0.000391429
-0.0017292
-0.00039782
-0.00162926
-0.000402533
-0.00152856
-0.000405497
-0.00142753
-0.000406648
-0.00132662
-0.000405925
-0.00122629
-0.000403276
-0.00112702
-0.000398654
-0.00102928
-0.000392019
-0.000933555
-0.000383344
-0.000840326
-0.000372611
-0.000750076
-0.000359818
-0.000663278
-0.000344977
-0.0005804
-0.000328119
-0.000501888
-0.000309297
-0.000428172
-0.000288592
-0.000359648
-0.000266116
-0.000296676
-0.000242018
-0.000239568
-0.000216499
-0.000188577
-0.000189818
-0.000143886
-0.000162307
-0.000105594
-0.000134391
-7.36972e-05
-0.000106612
-4.80796e-05
-7.96523e-05
-2.84924e-05
-5.4379e-05
-1.454e-05
-3.18824e-05
-5.66567e-06
-1.35247e-05
-1.13437e-06
-1.00934e-06
3.36448e-06
-2.04543e-06
-2.72517e-06
-8.98821e-06
8.05666e-06
-2.16317e-05
2.85157e-05
-4.05034e-05
5.45353e-05
-6.59701e-05
8.43861e-05
-9.82773e-05
0.00011681
-0.00013756
0.000150735
-0.000183837
0.000185271
-0.000237032
0.000219687
-0.000296982
0.000253396
-0.000363441
0.000285921
-0.000436105
0.000316894
-0.000514613
0.000346024
-0.000598557
0.000373089
-0.000687499
0.000397925
-0.000780973
0.000420413
-0.000878491
0.000440474
-0.000979555
0.000458059
-0.00108366
0.000473144
-0.00119029
0.000485728
-0.00129893
0.000495828
-0.00140909
0.000503475
-0.00152025
0.000508711
-0.00163193
0.000511591
-0.00174365
0.000512175
-0.00185494
0.000510532
-0.00196534
0.000506735
-0.00207441
0.000500862
-0.00218173
0.000492992
-0.00228689
0.000483211
-0.0023895
0.000471602
-0.00248918
0.000458253
-0.00258559
0.00044325
-0.00267838
0.000426681
-0.00276723
0.000408633
-0.00285185
0.000389194
-0.00293194
0.000368451
-0.00300726
0.000346491
-0.00307754
0.000323401
-0.00314257
0.000299266
-0.00320214
0.000274172
-0.00325606
0.000248205
-0.00330415
0.000221448
-0.00334627
0.000193987
-0.00338228
0.000165905
-0.00341206
0.000137288
-0.00343551
0.00010822
-0.00345257
7.87862e-05
-0.00346316
4.90715e-05
-0.00346724
1.91621e-05
-0.0034648
-1.08551e-05
-0.00345583
-4.08924e-05
-0.00344035
-7.0861e-05
-0.00341839
-0.000100671
-0.00339001
-0.000130231
-0.00335528
-0.000159449
-0.0033143
-0.000188231
-0.00326719
-0.000216481
-0.00321408
-0.000244104
-0.00315513
-0.000271
-0.00309053
-0.00029707
-0.00302047
-0.000322214
-0.00294519
-0.000346331
-0.00286491
-0.000369317
-0.00277992
-0.00039107
-0.0026905
-0.000411486
-0.00259696
-0.000430461
-0.00249964
-0.000447893
-0.00239888
-0.000463678
-0.00229507
-0.000477715
-0.0021886
-0.000489904
-0.00207988
-0.000500148
-0.00196935
-0.000508352
-0.00185746
-0.000514426
-0.00174467
-0.000518283
-0.00163147
-0.000519845
-0.00151836
-0.000519037
-0.00140584
-0.000515794
-0.00129444
-0.000510061
-0.00118467
-0.000501791
-0.00107706
-0.000490952
-0.00097214
-0.000477528
-0.000870442
-0.000461517
-0.00077248
-0.000442939
-0.00067876
-0.000421839
-0.00058977
-0.000398287
-0.000505974
-0.000372389
-0.000427803
-0.000344286
-0.000355649
-0.000314172
-0.000289853
-0.000282295
-0.0002307
-0.000248972
-0.000178399
-0.000214607
-0.000133082
-0.000179708
-9.47839e-05
-0.00014491
-6.34357e-05
-0.000111001
-3.88521e-05
-7.89626e-05
-2.07238e-05
-5.00106e-05
-8.61301e-06
-2.56356e-05
-1.94737e-06
-7.67497e-06
1.41709e-06
-2.93114e-06
2.05882e-07
-1.21609e-05
1.72865e-05
-2.82088e-05
4.45635e-05
-5.14316e-05
7.77582e-05
-8.20783e-05
0.000115033
-0.000120302
0.000155033
-0.000166158
0.000196592
-0.000219607
0.000238719
-0.000280521
0.000280601
-0.000348691
0.000321566
-0.000423841
0.000361071
-0.000505627
0.00039868
-0.000593656
0.000434052
-0.000687488
0.000466921
-0.000786651
0.000497088
-0.000890643
0.000524406
-0.000998944
0.000548774
-0.00111101
0.00057013
-0.00122631
0.00058844
-0.00134428
0.000603699
-0.00146438
0.000615925
-0.00158605
0.000625149
-0.00170877
0.000631423
-0.00183198
0.000634808
-0.00195518
0.000635375
-0.00207786
0.000633207
-0.00219951
0.000628391
-0.00231967
0.00062102
-0.00243787
0.000611191
-0.00255366
0.000599005
-0.00266663
0.000584567
-0.00277636
0.00056798
-0.00288246
0.000549352
-0.00298456
0.000528789
-0.00308233
0.000506398
-0.00317542
0.000482288
-0.00326354
0.000456565
-0.00334639
0.000429337
-0.0034237
0.000400711
-0.00349522
0.000370792
-0.00356074
0.000339686
-0.00362003
0.000307499
-0.00367292
0.000274334
-0.00371923
0.000240298
-0.00375882
0.000205495
-0.00379156
0.00017003
-0.00381734
0.000134006
-0.00383609
9.7531e-05
-0.00384773
6.0709e-05
-0.00385221
2.36473e-05
-0.00384952
-1.35465e-05
-0.00383965
-5.07635e-05
-0.00382262
-8.78936e-05
-0.00379846
-0.000124826
-0.00376725
-0.000161447
-0.00372905
-0.000197642
-0.00368399
-0.000233296
-0.00363218
-0.000268291
-0.00357378
-0.000302506
-0.00350895
-0.000335822
-0.00343791
-0.000368114
-0.00336087
-0.000399259
-0.00327807
-0.000429131
-0.00318978
-0.000457605
-0.00309629
-0.000484553
-0.00299793
-0.000509849
-0.00289503
-0.000533365
-0.00278795
-0.000554973
-0.00267707
-0.000574549
-0.00256282
-0.000591968
-0.00244562
-0.000607109
-0.00232591
-0.000619853
-0.00220418
-0.000630086
-0.0020809
-0.000637698
-0.0019566
-0.000642585
-0.00183179
-0.000644653
-0.00170702
-0.000643812
-0.00158283
-0.000639986
-0.00145978
-0.00063311
-0.00133844
-0.000623131
-0.00121938
-0.000610012
-0.00110317
-0.000593737
-0.000990375
-0.00057431
-0.000881556
-0.000551758
-0.000777257
-0.000526139
-0.000678
-0.000497544
-0.000584286
-0.000466103
-0.000496579
-0.000431993
-0.000415303
-0.000395448
-0.000340834
-0.000356764
-0.000273487
-0.000316319
-0.00021351
-0.000274585
-0.000161073
-0.000232145
-0.00011626
-0.000189722
-7.90628e-05
-0.000148198
-4.93714e-05
-0.000108654
-2.69764e-05
-7.24056e-05
-1.15704e-05
-4.10415e-05
-2.75099e-06
-1.64943e-05
-1.3339e-06
-3.79151e-06
3.99743e-06
-1.52779e-05
2.87728e-05
-3.47201e-05
6.40057e-05
-6.23143e-05
0.000105352
-9.81813e-05
0.0001509
-0.000142369
0.000199221
-0.000194846
0.000249069
-0.000255506
0.000299379
-0.000324162
0.000349256
-0.000400555
0.000397959
-0.000484363
0.000444879
-0.000575206
0.000489523
-0.000672653
0.000531499
-0.000776231
0.000570499
-0.000885432
0.000606289
-0.000999722
0.000638696
-0.00111854
0.000667595
-0.00124132
0.000692911
-0.00136748
0.000714599
-0.00149644
0.000732652
-0.00162759
0.000747082
-0.00176037
0.000757928
-0.00189419
0.000765245
-0.00202849
0.000769104
-0.0021627
0.000769588
-0.00229629
0.000766791
-0.00242871
0.000760816
-0.00255946
0.000751772
-0.00268805
0.000739775
-0.00281398
0.000724943
-0.00293682
0.0007074
-0.00305611
0.000687271
-0.00317144
0.000664682
-0.00328241
0.000639761
-0.00338865
0.000612638
-0.0034898
0.00058344
-0.00358553
0.000552297
-0.00367553
0.000519337
-0.00375951
0.00048469
-0.0038372
0.000448482
-0.00390836
0.000410842
-0.00397275
0.000371895
-0.00403019
0.000331769
-0.00408048
0.000290591
-0.00412347
0.000248487
-0.00415903
0.000205584
-0.00418703
0.000162008
-0.00420738
0.000117886
-0.00422002
7.33469e-05
-0.00422489
2.85195e-05
-0.00422198
-1.6466e-05
-0.00421126
-6.14779e-05
-0.00419277
-0.000106383
-0.00416655
-0.000151048
-0.00413266
-0.000195336
-0.00409119
-0.000239108
-0.00404227
-0.000282224
-0.00398602
-0.000324542
-0.0039226
-0.000365919
-0.00385222
-0.000406207
-0.00377507
-0.000445259
-0.00369141
-0.000482925
-0.00360148
-0.000519055
-0.00350559
-0.000553497
-0.00340405
-0.000586099
-0.00329719
-0.000616707
-0.00318538
-0.00064517
-0.00306902
-0.000671335
-0.00294852
-0.000695052
-0.00282431
-0.000716173
-0.00269687
-0.000734552
-0.00256667
-0.00075005
-0.00243423
-0.000762529
-0.00230007
-0.000771861
-0.00216473
-0.000777924
-0.00202878
-0.000780604
-0.00189279
-0.0007798
-0.00175736
-0.000775422
-0.00162307
-0.000767393
-0.00149055
-0.000755656
-0.00136039
-0.000740171
-0.00123321
-0.00072092
-0.0011096
-0.000697911
-0.000990178
-0.000671184
-0.000875509
-0.000640808
-0.000766156
-0.000606896
-0.000662654
-0.000569605
-0.000565502
-0.000529145
-0.000475159
-0.00048579
-0.000392037
-0.000439886
-0.000316488
-0.000391868
-0.000248803
-0.00034227
-0.000189199
-0.000291749
-0.000137818
-0.000241103
-9.4719e-05
-0.000191297
-5.98781e-05
-0.000143495
-3.31927e-05
-9.90911e-05
-1.44898e-05
-5.97444e-05
-3.53443e-06
-2.74497e-05
-4.86832e-06
-4.61763e-06
8.61492e-06
-1.83092e-05
4.24646e-05
-4.11041e-05
8.68005e-05
-7.30399e-05
0.000137288
-0.000114112
0.000191972
-0.000164261
0.00024937
-0.000223364
0.000308172
-0.000291237
0.000367252
-0.000367628
0.000425648
-0.000452224
0.000482555
-0.000544653
0.000537308
-0.00064449
0.000589361
-0.000751267
0.000638276
-0.000864472
0.000683705
-0.000983563
0.00072538
-0.00110797
0.000763101
-0.0012371
0.000796725
-0.00137035
0.000826159
-0.0015071
0.000851352
-0.00164673
0.000872287
-0.00178863
0.000888978
-0.00193217
0.000901467
-0.00207674
0.000909814
-0.00222174
0.0009141
-0.00236657
0.000914419
-0.00251065
0.000910879
-0.00265344
0.000903597
-0.00279437
0.000892702
-0.00293292
0.000878324
-0.00306858
0.000860605
-0.00320086
0.000839687
-0.00332931
0.000815715
-0.00345347
0.000788839
-0.00357291
0.000759207
-0.00368725
0.000726973
-0.00379609
0.000692286
-0.0038991
0.000655299
-0.00399592
0.000616163
-0.00408626
0.000575031
-0.00416983
0.000532052
-0.00424637
0.000487378
-0.00431563
0.000441158
-0.0043774
0.000393543
-0.0044315
0.000344683
-0.00447774
0.000294726
-0.00451598
0.000243824
-0.0045461
0.000192127
-0.00456799
0.000139784
-0.00458159
8.69483e-05
-0.00458685
3.37724e-05
-0.00458372
-1.95894e-05
-0.00457222
-7.29813e-05
-0.00455236
-0.000126246
-0.00452418
-0.000179224
-0.00448776
-0.000231754
-0.0044432
-0.000283672
-0.00439061
-0.000334813
-0.00433014
-0.000385009
-0.00426197
-0.000434088
-0.0041863
-0.000481879
-0.00410335
-0.000528206
-0.00401339
-0.000572893
-0.00391668
-0.000615763
-0.00381354
-0.000656636
-0.00370431
-0.000695333
-0.00358934
-0.000731673
-0.00346903
-0.000765479
-0.0033438
-0.00079657
-0.00321408
-0.000824771
-0.00308034
-0.000849908
-0.00294308
-0.000871812
-0.00280281
-0.000890317
-0.00266008
-0.000905265
-0.00251543
-0.000916506
-0.00236946
-0.000923899
-0.00222275
-0.000927312
-0.00207592
-0.000926629
-0.0019296
-0.000921745
-0.00178441
-0.000912577
-0.00164101
-0.000899057
-0.00150004
-0.000881142
-0.00136215
-0.000858817
-0.00122796
-0.000832093
-0.00109813
-0.000801019
-0.000973256
-0.000765681
-0.000853943
-0.00072621
-0.000740758
-0.00068279
-0.000634237
-0.000635666
-0.000534877
-0.00058515
-0.000443128
-0.000531635
-0.000359387
-0.000475609
-0.00028399
-0.000417667
-0.00021721
-0.000358529
-0.00015925
-0.000299062
-0.000110246
-0.000240301
-7.02641e-05
-0.000183477
-3.93107e-05
-0.000130044
-1.7346e-05
-8.1709e-05
-4.2936e-06
-4.05021e-05
-9.16191e-06
-5.41149e-06
1.40264e-05
-2.12424e-05
5.82954e-05
-4.73216e-05
0.00011288
-8.35396e-05
0.000173506
-0.00012977
0.000238202
-0.000185843
0.000305443
-0.000251544
0.000373873
-0.000326604
0.000442312
-0.000410704
0.000509747
-0.000503468
0.000575319
-0.000604473
0.000638313
-0.000713247
0.000698134
-0.000829275
0.000754304
-0.000952008
0.000806438
-0.00108087
0.000854237
-0.00121524
0.000897477
-0.00135451
0.000935994
-0.00149803
0.000969681
-0.00164516
0.000998478
-0.00179523
0.00102236
-0.00194761
0.00104135
-0.00210162
0.00105548
-0.00225664
0.00106483
-0.00241202
0.00106948
-0.00256715
0.00106954
-0.0027214
0.00106513
-0.0028742
0.00105639
-0.00302495
0.00104346
-0.00317312
0.00102649
-0.00331815
0.00100564
-0.00345954
0.000981075
-0.00359679
0.000952966
-0.00372943
0.000921481
-0.00385702
0.000886795
-0.00397913
0.000849082
-0.00409536
0.000808517
-0.00420534
0.000765276
-0.00430871
0.000719536
-0.00440515
0.000671471
-0.00449436
0.000621258
-0.00457605
0.000569072
-0.00464998
0.000515086
-0.00471591
0.000459476
-0.00477365
0.000402417
-0.004823
0.000344082
-0.00486382
0.000284646
-0.00489598
0.000224284
-0.00491937
0.000163172
-0.00493391
0.000101486
-0.00493954
3.94051e-05
-0.00493624
-2.28913e-05
-0.004924
-8.52217e-05
-0.00490284
-0.000147403
-0.00487281
-0.000209249
-0.004834
-0.000270573
-0.00478648
-0.000331184
-0.00473041
-0.000390888
-0.00466593
-0.000449491
-0.00459322
-0.000506794
-0.0045125
-0.000562596
-0.00442402
-0.000616694
-0.00432803
-0.000668884
-0.00422483
-0.000718959
-0.00411475
-0.000766711
-0.00399815
-0.000811933
-0.00387541
-0.000854415
-0.00374694
-0.00089395
-0.00361318
-0.000930332
-0.0034746
-0.000963356
-0.00333168
-0.000992822
-0.00318496
-0.00101853
-0.00303497
-0.0010403
-0.00288229
-0.00105795
-0.0027275
-0.00107129
-0.00257122
-0.00108018
-0.00241407
-0.00108446
-0.0022567
-0.001084
-0.00209978
-0.00107867
-0.00194396
-0.00106839
-0.00178993
-0.00105308
-0.00163837
-0.0010327
-0.00148996
-0.00100723
-0.00134538
-0.000976677
-0.00120529
-0.00094111
-0.00107034
-0.000900627
-0.000941175
-0.000855379
-0.00081839
-0.000805575
-0.000702563
-0.000751493
-0.000594231
-0.000693482
-0.000493887
-0.000631979
-0.000401974
-0.000567522
-0.000318882