/*--------------------------------*- C++ -*----------------------------------*\
  =========                 |
  \\      /  F ield         | OpenFOAM: The Open Source CFD Toolbox
   \\    /   O peration     | Website:  https://openfoam.org
    \\  /    A nd           | Version:  11
     \\/     M anipulation  |
\*---------------------------------------------------------------------------*/
FoamFile
{
    format      ascii;
    class       volVectorField;
    location    "3.1";
    object      U;
}
// * * * * * * * * * * * * * * * * * * * * * * * * * * * * * * * * * * * * * //

dimensions      [0 1 -1 0 0 0 0];

internalField   nonuniform List<vector> 
10100
(
(8.77461e-06 3.16892e-06 0)
(1.06539e-05 2.25986e-06 0)
(2.28506e-05 -2.8809e-06 0)
(2.81427e-05 -2.30063e-06 0)
(3.24003e-05 -7.67827e-07 0)
(2.93212e-05 1.27662e-06 0)
(1.85554e-05 3.56353e-06 0)
(-2.50018e-07 5.92269e-06 0)
(-2.70854e-05 8.27306e-06 0)
(-6.17287e-05 1.05565e-05 0)
(-0.000103979 1.27082e-05 0)
(-0.000153334 1.47026e-05 0)
(-0.000209421 1.65966e-05 0)
(-0.000271774 1.83917e-05 0)
(-0.000339892 2.00758e-05 0)
(-0.000413243 2.16061e-05 0)
(-0.000491292 2.29651e-05 0)
(-0.000573519 2.41611e-05 0)
(-0.000659345 2.51754e-05 0)
(-0.000748232 2.60306e-05 0)
(-0.000839679 2.67497e-05 0)
(-0.000933118 2.73043e-05 0)
(-0.00102802 2.76906e-05 0)
(-0.00112392 2.79325e-05 0)
(-0.00122031 2.80278e-05 0)
(-0.00131668 2.79693e-05 0)
(-0.00141259 2.77677e-05 0)
(-0.00150763 2.74308e-05 0)
(-0.00160139 2.69716e-05 0)
(-0.00169347 2.64232e-05 0)
(-0.00178352 2.58037e-05 0)
(-0.00187121 2.50886e-05 0)
(-0.00195622 2.42487e-05 0)
(-0.00203823 2.32984e-05 0)
(-0.00211696 2.22829e-05 0)
(-0.00219214 2.12248e-05 0)
(-0.00226353 2.01067e-05 0)
(-0.00233089 1.89054e-05 0)
(-0.00239401 1.76267e-05 0)
(-0.00245269 1.63001e-05 0)
(-0.00250673 1.49477e-05 0)
(-0.00255599 1.35662e-05 0)
(-0.00260033 1.21381e-05 0)
(-0.0026396 1.06548e-05 0)
(-0.00267366 9.12528e-06 0)
(-0.00270241 7.56799e-06 0)
(-0.00272574 5.99766e-06 0)
(-0.00274359 4.4182e-06 0)
(-0.0027559 2.82608e-06 0)
(-0.00276263 1.21798e-06 0)
(-0.00276376 -4.03832e-07 0)
(-0.00275926 -2.03159e-06 0)
(-0.00274912 -3.65709e-06 0)
(-0.00273337 -5.2758e-06 0)
(-0.00271203 -6.8863e-06 0)
(-0.00268514 -8.4861e-06 0)
(-0.00265278 -1.00681e-05 0)
(-0.00261502 -1.16219e-05 0)
(-0.00257198 -1.31396e-05 0)
(-0.00252378 -1.46177e-05 0)
(-0.00247057 -1.60561e-05 0)
(-0.0024125 -1.74544e-05 0)
(-0.00234972 -1.88094e-05 0)
(-0.00228243 -2.01144e-05 0)
(-0.00221083 -2.13608e-05 0)
(-0.00213516 -2.25393e-05 0)
(-0.00205568 -2.3643e-05 0)
(-0.00197265 -2.46679e-05 0)
(-0.00188637 -2.56118e-05 0)
(-0.00179713 -2.64715e-05 0)
(-0.00170527 -2.72406e-05 0)
(-0.00161113 -2.79088e-05 0)
(-0.00151511 -2.84628e-05 0)
(-0.00141761 -2.88885e-05 0)
(-0.00131908 -2.91735e-05 0)
(-0.00121998 -2.93076e-05 0)
(-0.00112079 -2.92835e-05 0)
(-0.00102202 -2.90958e-05 0)
(-0.000924195 -2.87393e-05 0)
(-0.000827867 -2.82069e-05 0)
(-0.000733604 -2.74891e-05 0)
(-0.000641995 -2.6576e-05 0)
(-0.000553643 -2.54613e-05 0)
(-0.000469155 -2.41459e-05 0)
(-0.000389128 -2.2638e-05 0)
(-0.000314148 -2.09475e-05 0)
(-0.000244788 -1.90814e-05 0)
(-0.000181606 -1.70441e-05 0)
(-0.000125143 -1.48391e-05 0)
(-7.59143e-05 -1.24714e-05 0)
(-3.43923e-05 -9.94993e-06 0)
(-9.86843e-07 -7.29384e-06 0)
(2.39922e-05 -4.53579e-06 0)
(4.03772e-05 -1.72516e-06 0)
(4.82109e-05 1.05739e-06 0)
(4.78648e-05 3.6659e-06 0)
(4.02218e-05 5.82826e-06 0)
(2.70819e-05 7.02911e-06 0)
(1.23393e-05 6.32745e-06 0)
(2.64548e-06 2.65229e-06 0)
(1.5144e-05 -1.46553e-05 0)
(3.50424e-05 -1.40776e-05 0)
(5.1541e-05 -1.70016e-05 0)
(6.06169e-05 -9.53591e-06 0)
(5.5979e-05 2.13625e-06 0)
(3.33706e-05 1.60457e-05 0)
(-9.44734e-06 3.124e-05 0)
(-7.34266e-05 4.67257e-05 0)
(-0.000158848 6.22572e-05 0)
(-0.000265478 7.73145e-05 0)
(-0.000392527 9.17671e-05 0)
(-0.000539095 0.000105382 0)
(-0.000704042 0.000118114 0)
(-0.000886083 0.000129906 0)
(-0.00108385 0.000140708 0)
(-0.00129592 0.000150511 0)
(-0.00152077 0.000159231 0)
(-0.00175693 0.000166847 0)
(-0.00200293 0.000173405 0)
(-0.00225725 0.00017891 0)
(-0.00251837 0.000183361 0)
(-0.0027849 0.000186766 0)
(-0.00305545 0.00018916 0)
(-0.00332856 0.000190587 0)
(-0.00360287 0.000191069 0)
(-0.00387716 0.000190628 0)
(-0.00415019 0.000189305 0)
(-0.00442071 0.00018715 0)
(-0.00468759 0.000184217 0)
(-0.0049498 0.000180564 0)
(-0.0052063 0.000176235 0)
(-0.00545608 0.000171246 0)
(-0.00569826 0.000165614 0)
(-0.00593198 0.000159388 0)
(-0.00615641 0.000152627 0)
(-0.00637075 0.000145367 0)
(-0.00657426 0.000137622 0)
(-0.00676632 0.00012941 0)
(-0.00694633 0.000120777 0)
(-0.00711369 0.000111781 0)
(-0.00726783 0.000102462 0)
(-0.00740827 9.28345e-05 0)
(-0.00753459 8.29088e-05 0)
(-0.00764643 7.27054e-05 0)
(-0.00774342 6.22607e-05 0)
(-0.00782523 5.1617e-05 0)
(-0.00789158 4.08139e-05 0)
(-0.00794224 2.98831e-05 0)
(-0.00797705 1.88515e-05 0)
(-0.00799591 7.74437e-06 0)
(-0.00799873 -3.41106e-06 0)
(-0.00798546 -1.4584e-05 0)
(-0.0079561 -2.5743e-05 0)
(-0.00791069 -3.68584e-05 0)
(-0.00784932 -4.79e-05 0)
(-0.00777215 -5.88326e-05 0)
(-0.00767939 -6.96141e-05 0)
(-0.00757127 -8.01993e-05 0)
(-0.0074481 -9.05483e-05 0)
(-0.00731024 -0.000100632 0)
(-0.00715808 -0.000110426 0)
(-0.00699209 -0.000119905 0)
(-0.00681278 -0.000129034 0)
(-0.0066207 -0.000137765 0)
(-0.00641647 -0.000146051 0)
(-0.00620077 -0.000153847 0)
(-0.00597434 -0.000161118 0)
(-0.00573798 -0.000167831 0)
(-0.00549254 -0.000173952 0)
(-0.00523893 -0.000179441 0)
(-0.00497812 -0.000184249 0)
(-0.00471113 -0.000188323 0)
(-0.00443907 -0.000191611 0)
(-0.00416308 -0.000194057 0)
(-0.00388438 -0.000195611 0)
(-0.00360426 -0.000196229 0)
(-0.00332406 -0.000195869 0)
(-0.00304516 -0.000194493 0)
(-0.002769 -0.00019206 0)
(-0.00249708 -0.000188533 0)
(-0.00223091 -0.000183875 0)
(-0.00197204 -0.000178056 0)
(-0.00172206 -0.000171063 0)
(-0.00148253 -0.000162895 0)
(-0.00125505 -0.000153567 0)
(-0.00104117 -0.000143104 0)
(-0.000842436 -0.000131535 0)
(-0.000660322 -0.000118892 0)
(-0.000496242 -0.000105223 0)
(-0.000351507 -9.05994e-05 0)
(-0.000227276 -7.51348e-05 0)
(-0.000124496 -5.89969e-05 0)
(-4.38136e-05 -4.24295e-05 0)
(1.45539e-05 -2.57896e-05 0)
(5.09948e-05 -9.61565e-06 0)
(6.6765e-05 5.25675e-06 0)
(6.43061e-05 1.75088e-05 0)
(4.77704e-05 2.50462e-05 0)
(2.45852e-05 2.46321e-05 0)
(6.28504e-06 1.2358e-05 0)
(1.09822e-05 -3.16038e-05 0)
(3.1519e-05 -4.19623e-05 0)
(4.95299e-05 -3.18177e-05 0)
(4.99489e-05 -7.88979e-06 0)
(2.69911e-05 2.50631e-05 0)
(-2.40589e-05 6.36763e-05 0)
(-0.000106036 0.000105251 0)
(-0.00022047 0.000148139 0)
(-0.000367776 0.000190869 0)
(-0.00054766 0.000232682 0)
(-0.000759102 0.000272834 0)
(-0.0010007 0.000310831 0)
(-0.00127071 0.000346379 0)
(-0.00156723 0.000379289 0)
(-0.00188809 0.00040938 0)
(-0.00223106 0.000436541 0)
(-0.00259393 0.000460746 0)
(-0.00297431 0.000481941 0)
(-0.00336983 0.000500121 0)
(-0.00377824 0.000515347 0)
(-0.00419725 0.000527641 0)
(-0.00462454 0.000537029 0)
(-0.00505793 0.000543606 0)
(-0.00549527 0.000547467 0)
(-0.00593446 0.000548679 0)
(-0.0063735 0.000547337 0)
(-0.00681045 0.000543557 0)
(-0.00724341 0.000537448 0)
(-0.00767059 0.00052912 0)
(-0.00809028 0.000518694 0)
(-0.00850084 0.000506282 0)
(-0.00890073 0.000491976 0)
(-0.00928847 0.000475871 0)
(-0.00966269 0.000458077 0)
(-0.010022 0.000438707 0)
(-0.0103652 0.000417855 0)
(-0.0106912 0.000395601 0)
(-0.0109988 0.000372037 0)
(-0.0112871 0.000347271 0)
(-0.0115551 0.000321415 0)
(-0.0118019 0.000294563 0)
(-0.0120268 0.000266794 0)
(-0.012229 0.00023818 0)
(-0.012408 0.000208803 0)
(-0.0125631 0.000178753 0)
(-0.0126939 0.000148125 0)
(-0.0127999 0.000117015 0)
(-0.0128807 8.55166e-05 0)
(-0.0129361 5.37197e-05 0)
(-0.012966 2.17112e-05 0)
(-0.01297 -1.04236e-05 0)
(-0.0129483 -4.25981e-05 0)
(-0.0129007 -7.47231e-05 0)
(-0.0128275 -0.000106707 0)
(-0.0127286 -0.000138456 0)
(-0.0126045 -0.000169866 0)
(-0.0124554 -0.000200828 0)
(-0.0122817 -0.000231231 0)
(-0.012084 -0.000260967 0)
(-0.0118627 -0.00028994 0)
(-0.0116186 -0.00031806 0)
(-0.0113523 -0.00034523 0)
(-0.0110648 -0.000371343 0)
(-0.0107569 -0.000396277 0)
(-0.0104297 -0.000419909 0)
(-0.0100843 -0.000442118 0)
(-0.00972183 -0.000462794 0)
(-0.00934359 -0.000481831 0)
(-0.00895099 -0.00049912 0)
(-0.00854549 -0.000514542 0)
(-0.00812868 -0.00052797 0)
(-0.0077022 -0.000539273 0)
(-0.00726782 -0.000548318 0)
(-0.00682735 -0.000554979 0)
(-0.00638274 -0.000559132 0)
(-0.00593598 -0.000560662 0)
(-0.00548917 -0.000559463 0)
(-0.00504448 -0.000555434 0)
(-0.00460413 -0.000548477 0)
(-0.00417041 -0.000538504 0)
(-0.00374567 -0.000525436 0)
(-0.00333227 -0.000509216 0)
(-0.0029326 -0.000489813 0)
(-0.00254907 -0.000467225 0)
(-0.00218409 -0.000441477 0)
(-0.00184004 -0.000412623 0)
(-0.00151924 -0.000380745 0)
(-0.00122393 -0.000345957 0)
(-0.000956217 -0.000308426 0)
(-0.000718007 -0.0002684 0)
(-0.00051096 -0.000226237 0)
(-0.000336386 -0.000182449 0)
(-0.00019511 -0.000137754 0)
(-8.731e-05 -9.31697e-05 0)
(-1.22736e-05 -5.01505e-05 0)
(3.19037e-05 -1.08004e-05 0)
(4.86463e-05 2.18286e-05 0)
(4.33573e-05 4.33699e-05 0)
(2.49422e-05 4.7756e-05 0)
(6.94138e-06 2.70355e-05 0)
(8.78891e-06 -5.13962e-05 0)
(2.26029e-05 -6.2329e-05 0)
(2.76078e-05 -3.58017e-05 0)
(7.88149e-06 1.27905e-05 0)
(-4.37196e-05 7.62326e-05 0)
(-0.000131968 0.000149348 0)
(-0.000260302 0.000227852 0)
(-0.000430427 0.000308737 0)
(-0.000642954 0.000389544 0)
(-0.000897459 0.000468636 0)
(-0.00119286 0.000544712 0)
(-0.00152743 0.00061692 0)
(-0.00189892 0.000684552 0)
(-0.00230491 0.00074714 0)
(-0.00274273 0.000804414 0)
(-0.00320945 0.000856131 0)
(-0.00370212 0.000902161 0)
(-0.00421776 0.000942491 0)
(-0.00475332 0.000977102 0)
(-0.00530572 0.00100602 0)
(-0.00587195 0.00102934 0)
(-0.00644907 0.00104717 0)
(-0.00703418 0.00105961 0)
(-0.00762436 0.00106683 0)
(-0.00821686 0.001069 0)
(-0.00880907 0.00106628 0)
(-0.0093984 0.00105887 0)
(-0.0099823 0.00104698 0)
(-0.0105584 0.00103081 0)
(-0.0111243 0.00101056 0)
(-0.011678 0.000986417 0)
(-0.0122173 0.000958577 0)
(-0.0127401 0.000927253 0)
(-0.0132448 0.000892647 0)
(-0.0137294 0.000854945 0)
(-0.0141922 0.000814323 0)
(-0.0146318 0.000770966 0)
(-0.0150467 0.000725068 0)
(-0.0154354 0.000676824 0)
(-0.0157968 0.000626422 0)
(-0.0161297 0.000574035 0)
(-0.0164329 0.000519833 0)
(-0.0167055 0.000463986 0)
(-0.0169468 0.000406667 0)
(-0.0171558 0.000348047 0)
(-0.017332 0.000288301 0)
(-0.0174747 0.000227608 0)
(-0.0175834 0.000166146 0)
(-0.0176579 0.000104094 0)
(-0.0176977 4.16289e-05 0)
(-0.0177028 -2.10767e-05 0)
(-0.0176731 -8.38484e-05 0)
(-0.0176085 -0.000146508 0)
(-0.0175093 -0.000208872 0)
(-0.0173755 -0.00027075 0)
(-0.0172077 -0.000331946 0)
(-0.0170062 -0.000392256 0)
(-0.0167715 -0.000451477 0)
(-0.0165044 -0.000509404 0)
(-0.0162056 -0.000565837 0)
(-0.0158761 -0.000620578 0)
(-0.0155168 -0.000673428 0)
(-0.0151288 -0.00072417 0)
(-0.0147135 -0.000772582 0)
(-0.0142722 -0.000818434 0)
(-0.0138064 -0.000861498 0)
(-0.0133177 -0.000901553 0)
(-0.0128078 -0.000938382 0)
(-0.0122787 -0.000971764 0)
(-0.0117323 -0.00100147 0)
(-0.0111708 -0.00102727 0)
(-0.0105963 -0.00104892 0)
(-0.0100113 -0.00106619 0)
(-0.00941817 -0.00107885 0)
(-0.00881947 -0.00108669 0)
(-0.00821789 -0.0010895 0)
(-0.0076162 -0.00108709 0)
(-0.00701726 -0.00107926 0)
(-0.00642401 -0.00106587 0)
(-0.00583946 -0.00104676 0)
(-0.00526666 -0.00102181 0)
(-0.00470873 -0.000990917 0)
(-0.00416877 -0.000954043 0)
(-0.00364991 -0.000911183 0)
(-0.00315526 -0.000862386 0)
(-0.0026879 -0.000807759 0)
(-0.00225079 -0.000747473 0)
(-0.00184678 -0.00068178 0)
(-0.00147852 -0.000611041 0)
(-0.00114838 -0.000535773 0)
(-0.000858391 -0.000456701 0)
(-0.000610113 -0.000374825 0)
(-0.000404482 -0.000291518 0)
(-0.000241637 -0.000208671 0)
(-0.000120662 -0.000128889 0)
(-3.92993e-05 -5.57786e-05 0)
(6.3504e-06 5.6807e-06 0)
(2.22241e-05 4.87246e-05 0)
(1.75258e-05 6.43307e-05 0)
(5.73869e-06 4.01148e-05 0)
(5.86313e-06 -6.07392e-05 0)
(8.9685e-06 -6.72659e-05 0)
(-6.44366e-06 -1.78128e-05 0)
(-5.44682e-05 6.2721e-05 0)
(-0.000142191 0.000164498 0)
(-0.00027459 0.000280126 0)
(-0.000455003 0.000403957 0)
(-0.000685287 0.000531287 0)
(-0.000966031 0.000658689 0)
(-0.00129676 0.000783501 0)
(-0.00167613 0.00090374 0)
(-0.0021022 0.00101799 0)
(-0.00257252 0.00112518 0)
(-0.00308416 0.00122451 0)
(-0.00363392 0.00131543 0)
(-0.00421847 0.00139761 0)
(-0.0048343 0.00147081 0)
(-0.00547774 0.00153492 0)
(-0.00614516 0.00158995 0)
(-0.00683293 0.00163593 0)
(-0.00753739 0.00167296 0)
(-0.00825492 0.00170122 0)
(-0.00898199 0.00172092 0)
(-0.00971512 0.00173227 0)
(-0.010451 0.0017355 0)
(-0.0111862 0.00173089 0)
(-0.0119178 0.00171875 0)
(-0.0126424 0.0016994 0)
(-0.0133573 0.00167314 0)
(-0.0140597 0.00164026 0)
(-0.0147467 0.0016011 0)
(-0.0154159 0.00155596 0)
(-0.0160646 0.00150516 0)
(-0.0166908 0.00144901 0)
(-0.017292 0.00138781 0)
(-0.0178663 0.00132189 0)
(-0.0184117 0.00125153 0)
(-0.0189264 0.00117703 0)
(-0.0194087 0.0010987 0)
(-0.019857 0.00101684 0)
(-0.0202699 0.000931741 0)
(-0.020646 0.000843686 0)
(-0.0209842 0.000752957 0)
(-0.0212833 0.00065983 0)
(-0.0215425 0.000564589 0)
(-0.0217608 0.000467522 0)
(-0.0219376 0.000368919 0)
(-0.0220723 0.00026907 0)
(-0.0221643 0.000168261 0)
(-0.0222135 6.67775e-05 0)
(-0.0222195 -3.50929e-05 0)
(-0.0221823 -0.000137059 0)
(-0.0221018 -0.000238825 0)
(-0.0219783 -0.000340086 0)
(-0.021812 -0.000440534 0)
(-0.0216034 -0.000539854 0)
(-0.021353 -0.000637722 0)
(-0.0210616 -0.000733812 0)
(-0.0207299 -0.000827796 0)
(-0.020359 -0.000919341 0)
(-0.0199499 -0.00100811 0)
(-0.019504 -0.00109378 0)
(-0.0190225 -0.00117598 0)
(-0.0185072 -0.00125438 0)
(-0.0179597 -0.00132859 0)
(-0.0173819 -0.00139826 0)
(-0.0167757 -0.00146304 0)
(-0.0161434 -0.00152255 0)
(-0.0154872 -0.00157645 0)
(-0.0148097 -0.00162436 0)
(-0.0141134 -0.00166591 0)
(-0.0134011 -0.00170075 0)
(-0.0126756 -0.00172853 0)
(-0.0119401 -0.00174888 0)
(-0.0111976 -0.00176147 0)
(-0.0104514 -0.001766 0)
(-0.00970499 -0.00176215 0)
(-0.00896174 -0.00174967 0)
(-0.00822526 -0.00172831 0)
(-0.0074992 -0.00169785 0)
(-0.00678728 -0.00165813 0)
(-0.00609324 -0.00160902 0)
(-0.00542084 -0.00155046 0)
(-0.00477383 -0.00148247 0)
(-0.00415593 -0.00140513 0)
(-0.0035708 -0.00131863 0)
(-0.00302195 -0.00122328 0)
(-0.00251273 -0.00111952 0)
(-0.00204621 -0.00100797 0)
(-0.00162515 -0.000889514 0)
(-0.00125188 -0.000765325 0)
(-0.000928166 -0.000637004 0)
(-0.000655051 -0.000506696 0)
(-0.0004327 -0.000377272 0)
(-0.000260156 -0.000252576 0)
(-0.000135088 -0.000137759 0)
(-5.35249e-05 -3.96985e-05 0)
(-9.50425e-06 3.2553e-05 0)
(5.60497e-06 6.7181e-05 0)
(3.62259e-06 4.77985e-05 0)
(2.69727e-06 -6.25684e-05 0)
(-7.15762e-06 -5.31884e-05 0)
(-4.73016e-05 2.75888e-05 0)
(-0.000128889 0.00014822 0)
(-0.000258157 0.000296014 0)
(-0.00043955 0.00046189 0)
(-0.000676358 0.00063842 0)
(-0.000970291 0.00081966 0)
(-0.00132168 0.00100099 0)
(-0.00172994 0.00117875 0)
(-0.00219357 0.00135024 0)
(-0.00271033 0.00151333 0)
(-0.00327747 0.00166648 0)
(-0.00389179 0.00180858 0)
(-0.00454971 0.00193878 0)
(-0.00524737 0.00205652 0)
(-0.0059808 0.00216147 0)
(-0.00674591 0.00225344 0)
(-0.00753852 0.00233236 0)
(-0.00835442 0.00239829 0)
(-0.00918939 0.00245136 0)
(-0.0100393 0.00249181 0)
(-0.0109 0.00251988 0)
(-0.0117676 0.00253588 0)
(-0.012638 0.00254016 0)
(-0.0135075 0.00253311 0)
(-0.0143724 0.00251513 0)
(-0.015229 0.00248666 0)
(-0.016074 0.00244811 0)
(-0.0169039 0.00239995 0)
(-0.0177158 0.00234261 0)
(-0.0185064 0.00227655 0)
(-0.0192729 0.00220222 0)
(-0.0200126 0.00212006 0)
(-0.0207229 0.00203053 0)
(-0.0214013 0.00193406 0)
(-0.0220455 0.00183111 0)
(-0.0226535 0.00172209 0)
(-0.0232232 0.00160746 0)
(-0.0237526 0.00148764 0)
(-0.0242402 0.00136306 0)
(-0.0246844 0.00123415 0)
(-0.0250837 0.00110132 0)
(-0.0254369 0.000964983 0)
(-0.0257428 0.00082555 0)
(-0.0260005 0.000683448 0)
(-0.0262091 0.000539101 0)
(-0.026368 0.000392929 0)
(-0.0264764 0.000245354 0)
(-0.0265342 9.6795e-05 0)
(-0.026541 -5.2322e-05 0)
(-0.0264968 -0.000201565 0)
(-0.0264014 -0.000350495 0)
(-0.0262552 -0.000498667 0)
(-0.0260585 -0.000645627 0)
(-0.0258119 -0.000790914 0)
(-0.0255159 -0.000934061 0)
(-0.0251714 -0.00107459 0)
(-0.0247795 -0.00121203 0)
(-0.0243412 -0.00134587 0)
(-0.0238578 -0.00147565 0)
(-0.023331 -0.00160084 0)
(-0.0227623 -0.00172095 0)
(-0.0221536 -0.00183544 0)
(-0.0215069 -0.00194381 0)
(-0.0208245 -0.00204552 0)
(-0.0201086 -0.00214006 0)
(-0.0193619 -0.0022269 0)
(-0.018587 -0.0023055 0)
(-0.0177868 -0.00237535 0)
(-0.0169645 -0.00243592 0)
(-0.0161232 -0.0024867 0)
(-0.0152663 -0.00252719 0)
(-0.0143974 -0.0025569 0)
(-0.0135202 -0.00257536 0)
(-0.0126383 -0.00258214 0)
(-0.0117559 -0.00257682 0)
(-0.0108769 -0.00255903 0)
(-0.0100055 -0.00252844 0)
(-0.00914598 -0.00248478 0)
(-0.00830254 -0.00242782 0)
(-0.00747954 -0.00235741 0)
(-0.00668129 -0.0022735 0)
(-0.00591211 -0.00217613 0)
(-0.00517624 -0.00206546 0)
(-0.00447784 -0.00194179 0)
(-0.00382088 -0.0018056 0)
(-0.00320913 -0.00165757 0)
(-0.00264606 -0.00149865 0)
(-0.00213474 -0.00133013 0)
(-0.00167777 -0.00115371 0)
(-0.00127712 -0.000971677 0)
(-0.000933995 -0.000786999 0)
(-0.000648684 -0.000603576 0)
(-0.000420352 -0.000426498 0)
(-0.000246846 -0.000262413 0)
(-0.000124439 -0.000119967 0)
(-4.75441e-05 -1.02823e-05 0)
(-8.73564e-06 5.23804e-05 0)
(1.11305e-06 4.84063e-05 0)
(-5.39471e-07 -5.55841e-05 0)
(-2.42722e-05 -1.77758e-05 0)
(-9.18143e-05 0.000104058 0)
(-0.00021013 0.00027321 0)
(-0.000384195 0.000474887 0)
(-0.000618065 0.000698348 0)
(-0.00091437 0.000934572 0)
(-0.00127439 0.00117648 0)
(-0.0016983 0.00141825 0)
(-0.00218518 0.00165531 0)
(-0.00273327 0.00188411 0)
(-0.00334014 0.0021019 0)
(-0.00400271 0.00230659 0)
(-0.00471742 0.00249663 0)
(-0.00548037 0.00267091 0)
(-0.00628736 0.00282864 0)
(-0.007134 0.00296928 0)
(-0.00801572 0.00309254 0)
(-0.00892788 0.00319832 0)
(-0.00986584 0.00328667 0)
(-0.0108249 0.00335774 0)
(-0.0118003 0.00341177 0)
(-0.0127876 0.00344909 0)
(-0.0137822 0.00347012 0)
(-0.0147798 0.00347529 0)
(-0.0157759 0.00346512 0)
(-0.0167664 0.00344014 0)
(-0.0177473 0.0034009 0)
(-0.0187146 0.00334797 0)
(-0.0196646 0.00328193 0)
(-0.0205937 0.0032034 0)
(-0.0214984 0.00311298 0)
(-0.0223755 0.00301127 0)
(-0.0232218 0.00289888 0)
(-0.0240344 0.00277641 0)
(-0.0248105 0.00264446 0)
(-0.0255474 0.00250364 0)
(-0.0262428 0.00235453 0)
(-0.0268943 0.00219774 0)
(-0.0274999 0.00203385 0)
(-0.0280575 0.00186345 0)
(-0.0285654 0.0016871 0)
(-0.029022 0.00150539 0)
(-0.0294258 0.00131889 0)
(-0.0297755 0.00112816 0)
(-0.0300701 0.000933782 0)
(-0.0303085 0.000736339 0)
(-0.0304899 0.000536402 0)
(-0.0306138 0.000334548 0)
(-0.0306796 0.000131356 0)
(-0.0306872 -7.25858e-05 0)
(-0.0306363 -0.000276683 0)
(-0.030527 -0.000480333 0)
(-0.0303596 -0.000682926 0)
(-0.0301344 -0.000883842 0)
(-0.0298521 -0.00108245 0)
(-0.0295134 -0.00127812 0)
(-0.0291193 -0.00147019 0)
(-0.0286709 -0.00165801 0)
(-0.0281695 -0.0018409 0)
(-0.0276166 -0.00201821 0)
(-0.027014 -0.00218923 0)
(-0.0263636 -0.00235327 0)
(-0.0256674 -0.00250963 0)
(-0.0249278 -0.00265761 0)
(-0.0241473 -0.00279648 0)
(-0.0233286 -0.00292553 0)
(-0.0224745 -0.00304407 0)
(-0.0215882 -0.00315136 0)
(-0.020673 -0.00324671 0)
(-0.0197323 -0.00332942 0)
(-0.0187697 -0.0033988 0)
(-0.0177892 -0.00345419 0)
(-0.0167948 -0.00349494 0)
(-0.0157905 -0.00352044 0)
(-0.0147807 -0.00353011 0)
(-0.0137699 -0.00352343 0)
(-0.0127625 -0.00349991 0)
(-0.0117633 -0.00345913 0)
(-0.0107771 -0.00340074 0)
(-0.00980858 -0.00332448 0)
(-0.0088626 -0.00323018 0)
(-0.00794401 -0.0031178 0)
(-0.0070576 -0.00298742 0)
(-0.00620808 -0.00283931 0)
(-0.00540004 -0.00267392 0)
(-0.00463787 -0.00249192 0)
(-0.00392572 -0.00229427 0)
(-0.0032674 -0.0020823 0)
(-0.00266628 -0.00185775 0)
(-0.00212524 -0.00162291 0)
(-0.00164647 -0.00138075 0)
(-0.00123143 -0.0011351 0)
(-0.000880622 -0.000890894 0)
(-0.000593496 -0.000654408 0)
(-0.00036828 -0.000433677 0)
(-0.000201749 -0.000238931 0)
(-8.89924e-05 -8.30672e-05 0)
(-2.42083e-05 1.76497e-05 0)
(-1.514e-06 4.11621e-05 0)
(-3.72756e-06 -3.96191e-05 0)
(-4.18079e-05 4.02201e-05 0)
(-0.000137676 0.000213547 0)
(-0.000294531 0.000440271 0)
(-0.000515513 0.000703758 0)
(-0.000803928 0.000991982 0)
(-0.00116171 0.00129472 0)
(-0.00158957 0.00160356 0)
(-0.00208726 0.00191171 0)
(-0.0026535 0.00221373 0)
(-0.00328624 0.00250521 0)
(-0.00398271 0.00278276 0)
(-0.00473953 0.00304378 0)
(-0.00555285 0.00328627 0)
(-0.00641841 0.00350875 0)
(-0.00733167 0.00371018 0)
(-0.00828786 0.00388985 0)
(-0.00928204 0.00404734 0)
(-0.0103091 0.00418247 0)
(-0.0113641 0.00429526 0)
(-0.0124417 0.00438588 0)
(-0.013537 0.0044546 0)
(-0.0146448 0.00450182 0)
(-0.0157603 0.00452804 0)
(-0.0168784 0.0045338 0)
(-0.0179946 0.00451975 0)
(-0.0191041 0.00448654 0)
(-0.0202026 0.00443487 0)
(-0.0212856 0.00436546 0)
(-0.022349 0.00427905 0)
(-0.0233888 0.00417642 0)
(-0.0244012 0.00405834 0)
(-0.0253825 0.0039256 0)
(-0.0263293 0.00377896 0)
(-0.0272382 0.0036192 0)
(-0.0281063 0.0034471 0)
(-0.0289305 0.00326344 0)
(-0.0297082 0.00306899 0)
(-0.0304368 0.00286453 0)
(-0.031114 0.00265082 0)
(-0.0317375 0.00242862 0)
(-0.0323053 0.00219866 0)
(-0.0328158 0.00196171 0)
(-0.0332672 0.00171851 0)
(-0.0336582 0.00146982 0)
(-0.0339874 0.00121638 0)
(-0.0342538 0.000958946 0)
(-0.0344565 0.000698266 0)
(-0.0345948 0.000435092 0)
(-0.0346683 0.000170187 0)
(-0.0346765 -9.56823e-05 0)
(-0.0346195 -0.000361736 0)
(-0.0344972 -0.000627188 0)
(-0.0343098 -0.000891242 0)
(-0.0340579 -0.00115309 0)
(-0.0337421 -0.00141192 0)
(-0.0333633 -0.00166689 0)
(-0.0329225 -0.00191715 0)
(-0.0324211 -0.00216186 0)
(-0.0318604 -0.00240014 0)
(-0.0312422 -0.00263111 0)
(-0.0305684 -0.00285388 0)
(-0.0298411 -0.00306755 0)
(-0.0290626 -0.0032712 0)
(-0.0282356 -0.00346391 0)
(-0.0273628 -0.00364477 0)
(-0.0264472 -0.00381286 0)
(-0.025492 -0.00396725 0)
(-0.0245007 -0.00410703 0)
(-0.0234769 -0.0042313 0)
(-0.0224245 -0.00433915 0)
(-0.0213475 -0.00442972 0)
(-0.0202501 -0.00450216 0)
(-0.0191369 -0.00455565 0)
(-0.0180123 -0.00458943 0)
(-0.0168811 -0.00460277 0)
(-0.0157483 -0.004595 0)
(-0.0146189 -0.00456554 0)
(-0.013498 -0.00451387 0)
(-0.0123908 -0.00443958 0)
(-0.0113026 -0.00434234 0)
(-0.0102386 -0.004222 0)
(-0.00920426 -0.00407853 0)
(-0.00820468 -0.00391209 0)
(-0.00724503 -0.00372304 0)
(-0.00633029 -0.00351202 0)
(-0.00546524 -0.00327993 0)
(-0.00465437 -0.00302806 0)
(-0.00390182 -0.0027581 0)
(-0.00321129 -0.00247229 0)
(-0.00258592 -0.00217353 0)
(-0.00202822 -0.00186549 0)
(-0.00153992 -0.00155285 0)
(-0.00112187 -0.0012415 0)
(-0.000773951 -0.000938836 0)
(-0.000494926 -0.000654138 0)
(-0.000282267 -0.000398992 0)
(-0.000131947 -0.000187742 0)
(-4.0036e-05 -3.82012e-05 0)
(-4.11432e-06 2.57816e-05 0)
(-6.77439e-06 -1.47135e-05 0)
(-5.90274e-05 0.00012114 0)
(-0.000183746 0.00035698 0)
(-0.000379865 0.000650621 0)
(-0.00064876 0.000984146 0)
(-0.000992836 0.00134441 0)
(-0.00141325 0.0017202 0)
(-0.00191 0.00210203 0)
(-0.00248223 0.00248217 0)
(-0.00312826 0.00285431 0)
(-0.00384566 0.00321332 0)
(-0.00463127 0.00355518 0)
(-0.00548138 0.00387674 0)
(-0.00639182 0.00417555 0)
(-0.00735802 0.00444979 0)
(-0.00837508 0.00469812 0)
(-0.00943787 0.00491965 0)
(-0.0105411 0.00511383 0)
(-0.0116793 0.00528038 0)
(-0.012847 0.00541928 0)
(-0.0140387 0.00553067 0)
(-0.0152489 0.00561488 0)
(-0.0164722 0.00567239 0)
(-0.0177032 0.00570376 0)
(-0.0189365 0.00570967 0)
(-0.0201671 0.00569087 0)
(-0.02139 0.00564814 0)
(-0.0226002 0.00558235 0)
(-0.0237931 0.00549437 0)
(-0.0249642 0.00538514 0)
(-0.0261091 0.0052556 0)
(-0.0272235 0.00510669 0)
(-0.0283036 0.00493939 0)
(-0.0293455 0.00475466 0)
(-0.0303457 0.00455346 0)
(-0.0313008 0.00433677 0)
(-0.0322076 0.00410557 0)
(-0.0330631 0.00386081 0)
(-0.0338645 0.00360347 0)
(-0.0346093 0.0033345 0)
(-0.0352951 0.00305484 0)
(-0.0359196 0.00276545 0)
(-0.0364809 0.00246726 0)
(-0.0369773 0.00216122 0)
(-0.0374072 0.00184829 0)
(-0.0377691 0.00152939 0)
(-0.038062 0.00120547 0)
(-0.0382848 0.000877476 0)
(-0.0384369 0.000546359 0)
(-0.0385176 0.000213077 0)
(-0.0385266 -0.000121401 0)
(-0.0384638 -0.000456094 0)
(-0.0383292 -0.000790013 0)
(-0.0381231 -0.00112216 0)
(-0.0378461 -0.00145151 0)
(-0.0374988 -0.00177704 0)
(-0.0370822 -0.0020977 0)
(-0.0365975 -0.00241244 0)
(-0.036046 -0.00272018 0)
(-0.0354294 -0.00301982 0)
(-0.0347496 -0.00331025 0)
(-0.0340086 -0.00359037 0)
(-0.0332087 -0.00385903 0)
(-0.0323525 -0.0041151 0)
(-0.0314429 -0.00435744 0)
(-0.0304829 -0.0045849 0)
(-0.0294757 -0.00479632 0)
(-0.0284248 -0.00499055 0)
(-0.0273341 -0.00516647 0)
(-0.0262074 -0.00532295 0)
(-0.025049 -0.00545888 0)
(-0.0238633 -0.00557318 0)
(-0.0226549 -0.00566483 0)
(-0.0214286 -0.0057328 0)
(-0.0201895 -0.00577618 0)
(-0.0189426 -0.00579407 0)
(-0.0176933 -0.00578567 0)
(-0.0164471 -0.00575028 0)
(-0.0152095 -0.00568728 0)
(-0.0139861 -0.00559619 0)
(-0.0127827 -0.00547666 0)
(-0.0116049 -0.00532852 0)
(-0.0104585 -0.00515178 0)
(-0.00934908 -0.00494669 0)
(-0.00828215 -0.00471373 0)
(-0.00726309 -0.00445373 0)
(-0.00629703 -0.00416785 0)
(-0.00538881 -0.0038577 0)
(-0.00454289 -0.00352539 0)
(-0.0037633 -0.00317366 0)
(-0.0030535 -0.00280599 0)
(-0.00241636 -0.00242676 0)
(-0.00185396 -0.00204145 0)
(-0.00136762 -0.00165685 0)
(-0.00095771 -0.00128136 0)
(-0.000623693 -0.000925324 0)
(-0.000363863 -0.000601464 0)
(-0.000175205 -0.000325245 0)
(-5.5773e-05 -0.00011561 0)
(-6.62171e-06 2.27666e-06 0)
(-9.66981e-06 1.89903e-05 0)
(-7.58454e-05 0.000224783 0)
(-0.000229089 0.000534488 0)
(-0.000464573 0.000904746 0)
(-0.000781736 0.0013167 0)
(-0.00118194 0.00175642 0)
(-0.00166546 0.00221179 0)
(-0.00223153 0.00267252 0)
(-0.00287865 0.00313001 0)
(-0.00360464 0.00357715 0)
(-0.00440654 0.00400818 0)
(-0.00528081 0.00441849 0)
(-0.00622338 0.00480437 0)
(-0.00722974 0.00516294 0)
(-0.00829495 0.00549202 0)
(-0.00941378 0.00579002 0)
(-0.0105807 0.00605584 0)
(-0.0117902 0.00628876 0)
(-0.0130363 0.00648842 0)
(-0.0143134 0.00665472 0)
(-0.0156154 0.00678782 0)
(-0.0169365 0.00688809 0)
(-0.018271 0.00695604 0)
(-0.019613 0.00699236 0)
(-0.0209569 0.00699781 0)
(-0.0222972 0.00697327 0)
(-0.0236285 0.00691967 0)
(-0.0249457 0.00683803 0)
(-0.0262436 0.00672941 0)
(-0.0275174 0.00659493 0)
(-0.0287623 0.00643571 0)
(-0.029974 0.00625289 0)
(-0.0311481 0.00604763 0)
(-0.0322806 0.00582111 0)
(-0.0333676 0.00557449 0)
(-0.0344054 0.00530897 0)
(-0.0353906 0.00502572 0)
(-0.03632 0.00472592 0)
(-0.0371906 0.00441074 0)
(-0.0379996 0.00408134 0)
(-0.0387444 0.00373888 0)
(-0.0394227 0.00338453 0)
(-0.0400323 0.00301943 0)
(-0.0405714 0.00264474 0)
(-0.0410382 0.00226161 0)
(-0.0414312 0.00187121 0)
(-0.0417493 0.00147467 0)
(-0.0419912 0.00107316 0)
(-0.0421563 0.000667834 0)
(-0.042244 0.00025988 0)
(-0.0422538 -0.000149519 0)
(-0.0421856 -0.000559166 0)
(-0.0420395 -0.000967849 0)
(-0.0418158 -0.00137435 0)
(-0.0415151 -0.00177741 0)
(-0.041138 -0.00217579 0)
(-0.0406858 -0.0025682 0)
(-0.0401595 -0.00295335 0)
(-0.0395608 -0.00332993 0)
(-0.0388913 -0.00369659 0)
(-0.0381531 -0.004052 0)
(-0.0373484 -0.00439478 0)
(-0.0364797 -0.00472357 0)
(-0.0355499 -0.00503697 0)
(-0.0345619 -0.00533359 0)
(-0.033519 -0.00561205 0)
(-0.0324247 -0.00587094 0)
(-0.0312829 -0.00610887 0)
(-0.0300975 -0.00632447 0)
(-0.0288728 -0.00651638 0)
(-0.0276134 -0.00668327 0)
(-0.026324 -0.00682384 0)
(-0.0250095 -0.00693685 0)
(-0.0236751 -0.00702111 0)
(-0.0223262 -0.00707548 0)
(-0.0209684 -0.00709894 0)
(-0.0196072 -0.00709052 0)
(-0.0182486 -0.0070494 0)
(-0.0168985 -0.00697488 0)
(-0.015563 -0.00686639 0)
(-0.014248 -0.00672356 0)
(-0.0129598 -0.00654621 0)
(-0.0117044 -0.0063344 0)
(-0.0104878 -0.00608847 0)
(-0.00931588 -0.00580905 0)
(-0.0081944 -0.00549716 0)
(-0.00712883 -0.00515423 0)
(-0.00612436 -0.0047822 0)
(-0.00518579 -0.00438361 0)
(-0.0043175 -0.00396168 0)
(-0.00352334 -0.00352047 0)
(-0.00280653 -0.00306503 0)
(-0.00216963 -0.00260158 0)
(-0.00161445 -0.00213774 0)
(-0.00114201 -0.00168277 0)
(-0.000752508 -0.00124795 0)
(-0.000445166 -0.000846863 0)
(-0.000218043 -0.000495824 0)
(-7.11844e-05 -0.000214541 0)
(-9.01594e-06 -2.9186e-05 0)
(-1.24365e-05 6.10891e-05 0)
(-9.20472e-05 0.000350827 0)
(-0.000273331 0.000745806 0)
(-0.00054782 0.0012025 0)
(-0.000913034 0.00170147 0)
(-0.00136928 0.00222816 0)
(-0.00191593 0.00276974 0)
(-0.00255137 0.00331522 0)
(-0.00327341 0.00385527 0)
(-0.00407922 0.00438215 0)
(-0.00496534 0.00488948 0)
(-0.00592777 0.00537206 0)
(-0.00696208 0.0058257 0)
(-0.00806332 0.00624712 0)
(-0.00922621 0.00663381 0)
(-0.0104451 0.0069839 0)
(-0.0117143 0.00729608 0)
(-0.0130277 0.00756947 0)
(-0.0143793 0.00780359 0)
(-0.0157628 0.00799832 0)
(-0.017172 0.00815381 0)
(-0.0186007 0.00827046 0)
(-0.0200427 0.00834883 0)
(-0.0214921 0.0083897 0)
(-0.0229426 0.00839393 0)
(-0.0243887 0.00836254 0)
(-0.0258244 0.00829664 0)
(-0.0272443 0.00819739 0)
(-0.028643 0.00806605 0)
(-0.0300153 0.0079039 0)
(-0.0313562 0.00771227 0)
(-0.032661 0.00749251 0)
(-0.0339251 0.00724599 0)
(-0.0351442 0.0069741 0)
(-0.036314 0.00667823 0)
(-0.0374309 0.0063598 0)
(-0.038491 0.00602019 0)
(-0.0394909 0.00566081 0)
(-0.0404275 0.00528305 0)
(-0.0412977 0.0048883 0)
(-0.0420989 0.00447794 0)
(-0.0428284 0.00405336 0)
(-0.0434841 0.00361595 0)
(-0.0440639 0.00316708 0)
(-0.044566 0.00270812 0)
(-0.0449887 0.00224047 0)
(-0.0453308 0.00176549 0)
(-0.0455911 0.00128457 0)
(-0.0457687 0.000799106 0)
(-0.0458631 0.00031051 0)
(-0.0458738 -0.0001798 0)
(-0.0458006 -0.000670391 0)
(-0.0456437 -0.00115982 0)
(-0.0454034 -0.00164661 0)
(-0.0450802 -0.00212929 0)
(-0.044675 -0.00260635 0)
(-0.0441889 -0.00307626 0)
(-0.0436232 -0.00353748 0)
(-0.0429796 -0.00398843 0)
(-0.0422598 -0.00442752 0)
(-0.0414661 -0.00485316 0)
(-0.0406009 -0.0052637 0)
(-0.0396668 -0.00565751 0)
(-0.0386667 -0.00603295 0)
(-0.037604 -0.00638836 0)
(-0.0364821 -0.00672207 0)
(-0.0353047 -0.00703243 0)
(-0.0340759 -0.0073178 0)
(-0.0328 -0.00757654 0)
(-0.0314815 -0.00780704 0)