/*--------------------------------*- C++ -*----------------------------------*\
  =========                 |
  \\      /  F ield         | OpenFOAM: The Open Source CFD Toolbox
   \\    /   O peration     | Website:  https://openfoam.org
    \\  /    A nd           | Version:  11
     \\/     M anipulation  |
\*---------------------------------------------------------------------------*/
FoamFile
{
    format      ascii;
    class       volScalarField;
    location    "1.7";
    object      p;
}
// * * * * * * * * * * * * * * * * * * * * * * * * * * * * * * * * * * * * * //

dimensions      [0 2 -2 0 0 0 0];

internalField   nonuniform List<scalar> 
10100
(
3.55086e-07
-0.000111149
-0.000372691
-0.000340734
-2.93824e-07
0.000532549
0.00115192
0.00179571
0.00241916
0.00300188
0.00353915
0.00403291
0.00449346
0.00493744
0.00537138
0.00580424
0.0062485
0.00670642
0.00719958
0.0077476
0.00836154
0.00904844
0.00982485
0.0106989
0.0116787
0.0127787
0.0140068
0.0153623
0.0168419
0.0184415
0.0201537
0.0219732
0.023898
0.0259274
0.0280616
0.0303018
0.032648
0.0350944
0.0376301
0.0402496
0.0429517
0.0457327
0.048585
0.0514955
0.0544511
0.0574419
0.0604593
0.0634982
0.0665562
0.0696262
0.0726943
0.0757439
0.0787609
0.0817375
0.0846726
0.087565
0.0904109
0.0932052
0.0959413
0.0986108
0.101206
0.103719
0.10615
0.108498
0.110766
0.11295
0.11504
0.117031
0.118919
0.120704
0.122381
0.123939
0.125372
0.126671
0.127829
0.128839
0.129692
0.13038
0.130898
0.131248
0.131438
0.131471
0.131347
0.131062
0.13062
0.130033
0.129317
0.128488
0.127556
0.126537
0.125452
0.124331
0.123211
0.12213
0.121125
0.120232
0.119485
0.118928
0.118628
0.118622
-9.26471e-05
0.00055551
0.000893466
0.00129923
0.00182283
0.00237663
0.00293603
0.00347607
0.00399215
0.00447337
0.00492206
0.00534861
0.00576151
0.00616693
0.00658021
0.00701444
0.00747144
0.00795528
0.00847736
0.00904646
0.00967604
0.0103835
0.0111811
0.0120832
0.0130953
0.0142187
0.0154592
0.0168182
0.0182906
0.0198716
0.0215588
0.0233498
0.0252426
0.0272324
0.0293163
0.031498
0.0337801
0.0361589
0.0386264
0.041176
0.0438031
0.0465012
0.0492623
0.05208
0.0549448
0.0578436
0.060767
0.0637112
0.0666729
0.0696451
0.0726146
0.0755641
0.0784814
0.0813628
0.0842057
0.0870058
0.0897607
0.0924677
0.0951197
0.0977068
0.100221
0.102657
0.105011
0.107287
0.109487
0.111604
0.113628
0.115554
0.117383
0.119111
0.12073
0.122231
0.123611
0.124864
0.125986
0.126967
0.127799
0.128473
0.128985
0.129342
0.129553
0.129623
0.129548
0.129323
0.128953
0.12845
0.127831
0.127111
0.1263
0.125413
0.124469
0.123499
0.122536
0.121612
0.120761
0.120008
0.11938
0.118909
0.118655
0.11866
0.000124814
0.00132994
0.00206852
0.00274016
0.00339134
0.00397077
0.00448409
0.00495029
0.00537658
0.00577196
0.00614475
0.00651064
0.00687173
0.00723776
0.00762509
0.00804148
0.00849217
0.00898706
0.00951935
0.0101036
0.0107458
0.0114609
0.012271
0.0131883
0.0142149
0.0153532
0.0166042
0.0179658
0.0194341
0.0210041
0.0226735
0.0244421
0.0263089
0.0282691
0.0303174
0.0324558
0.0346873
0.0370096
0.0394199
0.0419135
0.0444821
0.0471168
0.0498087
0.0525519
0.055341
0.0581644
0.0610111
0.0638796
0.0667676
0.0696635
0.0725523
0.0754206
0.0782579
0.0810601
0.0838262
0.0865522
0.0892343
0.0918706
0.0944555
0.0969766
0.0994229
0.101791
0.104083
0.106301
0.108443
0.110503
0.112473
0.114348
0.116129
0.117811
0.119386
0.120843
0.122179
0.123395
0.124488
0.125449
0.126265
0.12693
0.127441
0.127809
0.128042
0.128141
0.128102
0.127921
0.127606
0.127171
0.12663
0.125995
0.125276
0.124485
0.123645
0.122785
0.121934
0.121121
0.12037
0.119702
0.119138
0.118708
0.118463
0.118446
0.00112501
0.00256522
0.00350461
0.00429387
0.00496802
0.00551222
0.00595524
0.00633464
0.00667251
0.00698055
0.00727922
0.00757706
0.00788562
0.00821379
0.0085652
0.00895653
0.00939048
0.00986796
0.010399
0.0109885
0.0116417
0.0123679
0.0131863
0.0141103
0.0151448
0.0162894
0.0175423
0.0189043
0.0203722
0.0219363
0.0235928
0.0253445
0.0271895
0.0291232
0.0311434
0.0332509
0.0354456
0.0377232
0.0400827
0.0425261
0.0450453
0.0476279
0.0502657
0.0529514
0.055677
0.0584344
0.0612172
0.0640231
0.0668488
0.0696816
0.0725037
0.0753025
0.0780724
0.0808096
0.0835094
0.0861697
0.0887914
0.091372
0.0939001
0.0963616
0.0987482
0.101059
0.103298
0.105466
0.10756
0.109573
0.111496
0.113327
0.115068
0.116712
0.118247
0.119665
0.120966
0.122153
0.123222
0.124162
0.124962
0.125619
0.126135
0.126517
0.126772
0.126896
0.126884
0.126736
0.126463
0.126083
0.125609
0.125045
0.124397
0.12368
0.122919
0.122139
0.121368
0.120628
0.119937
0.119313
0.118776
0.118351
0.118079
0.117991
0.00282195
0.00422496
0.00517071
0.00593713
0.00656139
0.00701868
0.00737533
0.00766324
0.00791473
0.00814821
0.00837719
0.00861728
0.00887851
0.00916662
0.00949347
0.00986146
0.0102773
0.0107376
0.0112583
0.0118436
0.0125006
0.0132364
0.0140624
0.014992
0.0160308
0.0171759
0.0184272
0.019786
0.0212471
0.0228025
0.0244492
0.0261866
0.0280096
0.0299154
0.0319069
0.0339841
0.0361441
0.0383839
0.0407013
0.0430967
0.0455662
0.0480991
0.050686
0.0533196
0.0559894
0.0586865
0.0614102
0.0641608
0.0669288
0.0696988
0.0724582
0.0751971
0.0779063
0.0805809
0.083219
0.0858208
0.0883872
0.0909146
0.0933896
0.0957961
0.098127
0.100386
0.102577
0.1047
0.106748
0.108715
0.110597
0.112392
0.114096
0.115702
0.117198
0.118579
0.11985
0.121014
0.122062
0.122983
0.123767
0.124417
0.124937
0.125333
0.125607
0.125753
0.125765
0.125647
0.125414
0.125083
0.124664
0.124159
0.123573
0.122919
0.122222
0.121507
0.120796
0.120107
0.119454
0.118852
0.118319
0.117877
0.117548
0.11735
0.00499807
0.00615255
0.00696154
0.00760947
0.00810791
0.0084583
0.00870306
0.00889758
0.00906558
0.00922819
0.00940322
0.00959595
0.00981768
0.0100733
0.0103709
0.0107211
0.0111241
0.0115764
0.0120854
0.0126675
0.0133254
0.0140644
0.0148946
0.0158279
0.0168686
0.0180126
0.0192607
0.0206135
0.0220645
0.023608
0.025242
0.0269639
0.028768
0.0306501
0.0326124
0.0346571
0.0367816
0.0389852
0.0412665
0.0436208
0.0460433
0.0485294
0.0510687
0.0536495
0.056265
0.0589107
0.0615833
0.0642805
0.0669936
0.0697072
0.0724089
0.075091
0.0777453
0.080364
0.0829457
0.0854944
0.0880124
0.0904921
0.0929168
0.0952723
0.0975559
0.0997725
0.101924
0.104005
0.106012
0.10794
0.109787
0.11155
0.113222
0.114793
0.116254
0.117605
0.118852
0.119996
0.121027
0.121931
0.122702
0.123345
0.123868
0.124275
0.124563
0.124724
0.124758
0.12467
0.124475
0.124186
0.123812
0.123354
0.122815
0.122211
0.121564
0.120898
0.120231
0.119574
0.118939
0.118339
0.117789
0.11731
0.116904
0.116573
0.00744966
0.00824927
0.00882327
0.00929107
0.00963519
0.00984151
0.0099731
0.0100632
0.0101451
0.0102404
0.0103573
0.0105075
0.0106955
0.0109216
0.0111929
0.0115247
0.0119102
0.0123544
0.0128602
0.0134388
0.0140946
0.0148342
0.0156673
0.0166015
0.0176393
0.01878
0.0200244
0.0213706
0.0228111
0.0243421
0.0259617
0.0276654
0.0294501
0.0313126
0.0332497
0.0352632
0.0373552
0.0395234
0.0417673
0.0440851
0.046469
0.0489107
0.0514028
0.0539351
0.0564999
0.059096
0.0617221
0.0643716
0.0670325
0.0696929
0.0723442
0.0749766
0.0775788
0.0801448
0.0826774
0.0851823
0.087658
0.0900935
0.0924729
0.0947863
0.0970334
0.0992172
0.101336
0.103384
0.105356
0.107253
0.109073
0.110809
0.112453
0.113995
0.115429
0.116759
0.117989
0.119118
0.120132
0.12102
0.121778
0.122416
0.122943
0.123358
0.123654
0.123828
0.123879
0.123817
0.123656
0.123403
0.123063
0.122638
0.122132
0.121563
0.120954
0.120323
0.119682
0.119039
0.118403
0.117787
0.117206
0.116673
0.116177
0.1157
0.0100296
0.0104223
0.0107187
0.0109706
0.011134
0.0111919
0.0111945
0.0111809
0.0111757
0.0111957
0.0112553
0.0113587
0.0115075
0.0117053
0.0119554
0.0122634
0.0126352
0.0130684
0.0135692
0.0141432
0.014797
0.0155359
0.0163687
0.0173014
0.0183356
0.0194719
0.0207094
0.0220467
0.0234785
0.0249985
0.0266038
0.0282903
0.0300545
0.0318961
0.0338117
0.0357983
0.03786
0.0399978
0.0422076
0.0444876
0.0468348
0.0492386
0.0516858
0.0541695
0.0566888
0.0592417
0.0618226
0.0644238
0.0670369
0.0696518
0.072258
0.0748434
0.0773977
0.0799177
0.0824088
0.0848754
0.0873133
0.0897099
0.0920521
0.0943334
0.0965538
0.0987135
0.100807
0.102828
0.104775
0.106649
0.10845
0.110167
0.111787
0.113306
0.114722
0.11604
0.117261
0.118378
0.119377
0.120249
0.120995
0.121628
0.122156
0.122576
0.122879
0.123061
0.123127
0.123088
0.122953
0.122727
0.12241
0.122003
0.121518
0.120974
0.120391
0.119782
0.119152
0.118505
0.117853
0.117207
0.116582
0.115987
0.115389
0.114761
0.0126281
0.0126094
0.0126062
0.0126278
0.0126001
0.0125019
0.0123746
0.012254
0.0121583
0.0121058
0.0121045
0.0121537
0.012259
0.0124235
0.0126484
0.0129345
0.0132908
0.0137111
0.0142033
0.0147719
0.0154215
0.0161573
0.0169876
0.0179174
0.0189476
0.0200791
0.021309
0.0226359
0.0240586
0.0255687
0.02716
0.0288321
0.0305805
0.0323999
0.0342914
0.0362564
0.0382935
0.0404016
0.0425809
0.0448298
0.0471414
0.0495052
0.0519109
0.054353
0.0568308
0.0593421
0.06188
0.0644373
0.067007
0.0695804
0.0721454
0.0746886
0.0772005
0.0796813
0.0821373
0.0845711
0.0869756
0.0893388
0.0916518
0.0939111
0.0961147
0.0982574
0.100332
0.102333
0.104262
0.106124
0.107913
0.109615
0.111219
0.112722
0.114129
0.115442
0.116658
0.117764
0.118749
0.119607
0.120344
0.120973
0.121501
0.121922
0.122227
0.122415
0.122494
0.122472
0.122357
0.122146
0.121839
0.121441
0.120968
0.120441
0.119874
0.119273
0.118639
0.117975
0.117293
0.116609
0.115931
0.115266
0.114561
0.11378
0.0151633
0.0147518
0.0144521
0.0142372
0.0140194
0.013764
0.013511
0.0132796
0.013094
0.0129669
0.0128987
0.012894
0.0129548
0.0130805
0.0132723
0.0135371
0.0138717
0.0142771
0.014756
0.015315
0.0159589
0.0166903
0.0175151
0.01844
0.0194666
0.0205924
0.0218158
0.0231342
0.0245456
0.0260455
0.027626
0.0292836
0.0310169
0.0328204
0.0346909
0.0366322
0.0386471
0.0407321
0.0428845
0.0451037
0.0473831
0.049711
0.0520784
0.0544828
0.0569241
0.0593974
0.0618952
0.0644122
0.0669439
0.0694813
0.0720093
0.0745141
0.0769898
0.0794394
0.0818676
0.0842729
0.0866474
0.0889831
0.0912759
0.0935227
0.0957159
0.0978459
0.0999055
0.101894
0.103816
0.105672
0.107454
0.109147
0.110742
0.112238
0.113644
0.114957
0.116168
0.117264
0.118236
0.119083
0.119816
0.120445
0.120973
0.121391
0.121694
0.121885
0.121973
0.121965
0.121859
0.121652
0.121345
0.12095
0.120486
0.119969
0.119406
0.1188
0.118149
0.117458
0.11674
0.116008
0.115271
0.114528
0.113712
0.11278
0.0175809
0.0168038
0.0162231
0.0157828
0.0153732
0.0149687
0.0145881
0.0142527
0.0139763
0.0137664
0.0136324
0.0135737
0.0135862
0.013671
0.0138295
0.0140678
0.0143776
0.014762
0.0152238
0.0157705
0.016405
0.0171288
0.0179462
0.0188659
0.0198886
0.0210068
0.0222215
0.0235351
0.024939
0.0264256
0.0279946
0.0296425
0.0313617
0.0331485
0.0350031
0.0369269
0.0389206
0.0409834
0.0431139
0.0453084
0.047558
0.049853
0.0521885
0.0545624
0.0569714
0.059409
0.0618703
0.0643534
0.0668539
0.0693594
0.0718537
0.074326
0.0767744
0.079201
0.0816063
0.0839863
0.0863358
0.0886519
0.0909332
0.0931734
0.0953595
0.0974796
0.0995299
0.101514
0.103437
0.105294
0.107073
0.108761
0.110353
0.111852
0.113262
0.114578
0.115784
0.116871
0.117834
0.118678
0.119412
0.120043
0.120568
0.120982
0.121282
0.121475
0.121569
0.121566
0.121461
0.121249
0.120939
0.120545
0.120085
0.119569
0.118999
0.118374
0.117696
0.116973
0.116214
0.115429
0.114623
0.113795
0.112866
0.111786
0.0198403
0.0187355
0.017897
0.017238
0.0166471
0.0160941
0.0155928
0.0151557
0.014788
0.0144987
0.0142967
0.0141793
0.0141434
0.0141874
0.0143129
0.0145169
0.0148004
0.0151604
0.0156025
0.0161333
0.0167536
0.0174672
0.0182794
0.0191926
0.020207
0.0213193
0.0225274
0.0238323
0.0252293
0.026709
0.0282674
0.0299031
0.031611
0.0333857
0.0352262
0.0371345
0.0391122
0.0411581
0.0432693
0.0454406
0.0476645
0.0499342
0.0522456
0.0545942
0.0569741
0.0593806
0.0618125
0.0642688
0.0667426
0.0692196
0.0716859
0.0741346
0.0765648
0.0789749
0.0813607
0.0837192
0.0860506
0.0883559
0.0906324
0.0928689
0.0950489
0.0971619
0.0992092
0.101197
0.103127
0.104988
0.106768
0.108456
0.110052
0.111561
0.112979
0.114296
0.115498
0.116579
0.117542
0.118392
0.119133
0.119764
0.120285
0.120693
0.120992
0.121187
0.121283
0.12128
0.121168
0.120949
0.120633
0.120236
0.119773
0.119248
0.11866
0.118008
0.117297
0.116535
0.11573
0.114885
0.114004
0.113086
0.112046
0.110823
0.0219174
0.0205211
0.0194428
0.0185838
0.0178223
0.0171278
0.0165091
0.0159693
0.0155149
0.0151514
0.0148799
0.0147028
0.0146182
0.0146194
0.0147073
0.0148764
0.0151295
0.0154626
0.0158826
0.0163952
0.0170004
0.017701
0.018506
0.0194153
0.0204213
0.0215248
0.0227285
0.0240282
0.0254161
0.0268879
0.0284404
0.0300686
0.0317662
0.0335297
0.0353593
0.037257
0.0392234
0.0412556
0.0433495
0.0455017
0.047707
0.0499595
0.0522528
0.0545801
0.056936
0.0593188
0.0617292
0.0641644
0.0666152
0.0690687
0.0715151
0.0739502
0.0763705
0.0787685
0.081138
0.0834806
0.0858026
0.0881052
0.0903806
0.0926133
0.0947878
0.0968984
0.0989501
0.100947
0.102885
0.104751
0.106535
0.10823
0.109838
0.111359
0.112785
0.114102
0.115301
0.116383
0.117355
0.118217
0.118965
0.119597
0.120114
0.12052
0.120819
0.121015
0.12111
0.1211
0.12098
0.120753
0.12043
0.120026
0.11955
0.119005
0.118391
0.117706
0.116958
0.116153
0.115296
0.114385
0.113424
0.112415
0.111268
0.109911
0.0237992
0.0221372
0.0208426
0.0198025
0.0188788
0.0180516
0.0173189
0.0166814
0.0161429
0.0157068
0.0153704
0.0151355
0.0149994
0.0149576
0.0150035
0.0151364
0.0153541
0.0156617
0.0160586
0.0165471
0.0171371
0.017831
0.0186264
0.0195245
0.0205251
0.0216261
0.0228245
0.0241167
0.0254984
0.026966
0.0285143
0.0301365
0.0318268
0.0335832
0.0354065
0.0372974
0.0392552
0.041276
0.0433567
0.0454961
0.0476905
0.0499325
0.0522127
0.0545238
0.0568628
0.0592306
0.0616266
0.0640452
0.0664774
0.0689149
0.071352
0.0737828
0.0761982
0.078587
0.0809453
0.083281
0.0856027
0.0879074
0.0901816
0.0924101
0.0945825
0.0966974
0.0987589
0.100766
0.10271
0.10458
0.106371
0.10808
0.109703
0.111235
0.112665
0.113983
0.115186
0.116277
0.117262
0.118135
0.118891
0.119524
0.12004
0.120447
0.120749
0.120946
0.121036
0.121018
0.120889
0.120655
0.120323
0.119905
0.119408
0.118836
0.11819
0.11747
0.116681
0.115829
0.114915
0.113935
0.112893
0.111797
0.110547
0.109063
0.0254672
0.023574
0.0220888
0.0208761
0.0198071
0.0188514
0.0180108
0.0172816
0.0166611
0.0161517
0.0157548
0.0154673
0.0152809
0.0151899
0.0151919
0.0152903
0.0154748
0.0157488
0.0161192
0.0165907
0.0171669
0.017849
0.0186348
0.0195251
0.0205213
0.0216189
0.0228118
0.0240988
0.0254784
0.0269444
0.0284891
0.0301069
0.0317944
0.0335491
0.0353702
0.037257
0.0392081
0.0412208
0.0432942
0.0454285
0.047619
0.0498554
0.0521273
0.0544294
0.0567611
0.0591219
0.0615083
0.0639142
0.066335
0.0687675
0.0712057
0.0736379
0.076051
0.078435
0.080791
0.0831297
0.0854572
0.087765
0.0900381
0.0922654
0.094442
0.0965666
0.0986386
0.100653
0.1026
0.104476
0.106278
0.108003
0.10964
0.11118
0.112613
0.113935
0.115147
0.116253
0.11725
0.118134
0.118894
0.119531
0.120052
0.120465
0.120772
0.12097
0.121056
0.121029
0.120892
0.120649
0.120306
0.11987
0.119348
0.118745
0.118064
0.117306
0.116474
0.11557
0.114596
0.113546
0.112427
0.111248
0.109901
0.108295
0.026911
0.0248227
0.0231668
0.021804
0.0205951
0.0195213
0.0185823
0.017762
0.0170605
0.0164838
0.0160291
0.0156848
0.0154471
0.0153108
0.0152724
0.0153284
0.0154796
0.0157241
0.0160682
0.0165221
0.0170855
0.0177552
0.0185319
0.019418
0.0204107
0.0215026
0.0226906
0.0239763
0.0253568
0.0268223
0.0283648
0.0299816
0.0316707
0.0334282
0.03525
0.0371344
0.0390814
0.0410915
0.0431652
0.0453012
0.0474922
0.0497272
0.0519978
0.0543008
0.0566337
0.0589928
0.0613737
0.063774
0.0661942
0.0686325
0.0710781
0.0735145
0.075929
0.0783163
0.0806802
0.0830293
0.0853651
0.0876769
0.0899525
0.0921857
0.0943728
0.096509
0.098589
0.100607
0.102559
0.104443
0.106258
0.107997
0.109645
0.111191
0.112629
0.11396
0.115185
0.116305
0.117314
0.118205
0.118972
0.119616
0.120146
0.120569
0.120883
0.121084
0.121167
0.121134
0.120989
0.120737
0.12038
0.119926
0.119378
0.118744
0.118026
0.117227
0.116348
0.115392
0.114356
0.113237
0.112044
0.110785
0.109348
0.107628
0.0281297
0.0258691
0.0240633
0.0225699
0.0212362
0.0200511
0.0190129
0.0181136
0.0173411
0.0166941
0.0161773
0.0157821
0.0154951
0.0153105
0.0152311
0.0152497
0.015366
0.0155818
0.0159057
0.016343
0.0168918
0.0175501
0.0183206
0.0192038
0.0201921
0.0212781
0.0224635
0.0237507
0.0251326
0.0265975
0.0281405
0.0297615
0.0314569
0.0332191
0.0350425
0.0369268
0.0388754
0.0408902
0.0429702
0.0451115
0.0473068
0.049547
0.0518257
0.054138
0.0564775
0.0588388
0.061221
0.0636263
0.0660567
0.0685074
0.0709635
0.0734076
0.0758305
0.0782306
0.0806103
0.0829736
0.0853193
0.0876388
0.0899242
0.0921713
0.0943735
0.0965213
0.0986076
0.10063
0.102588
0.104482
0.106311
0.108063
0.109721
0.111274
0.112721
0.114064
0.115302
0.116434
0.117453
0.118352
0.119128
0.119784
0.120329
0.120765
0.121088
0.12129
0.121371
0.121334
0.121183
0.120921
0.120552
0.120079
0.119508
0.118842
0.118087
0.117245
0.116318
0.115306
0.114209
0.113024
0.111759
0.110426
0.108903
0.107076
0.0291151
0.0267086
0.0247766
0.0231585
0.0217117
0.0204267
0.0192991
0.018322
0.0174828
0.0167759
0.0161988
0.0157492
0.0154151
0.0151889
0.0150666
0.015049
0.0151336
0.0153254
0.0156318
0.0160525
0.0165871
0.0172377
0.0180048
0.0188828
0.0198641
0.0209467
0.0221336
0.0234227
0.0248038
0.0262692
0.0278178
0.0294481
0.0311515
0.032918
0.0347445
0.0366345
0.0385921
0.0406171
0.0427061
0.0448557
0.0470612
0.0493154
0.0516099
0.0539362
0.0562858
0.0586555
0.0610488
0.0634694
0.0659169
0.0683835
0.0708532
0.0733111
0.0757512
0.0781716
0.0805713
0.0829512
0.0853106
0.0876446
0.089948
0.0922154
0.0944357
0.096596
0.0986903
0.10072
0.102688
0.104596
0.106438
0.108201
0.10987
0.111435
0.112895
0.114252
0.115503
0.116644
0.117671
0.11858
0.119369
0.120042
0.120604
0.121053
0.121384
0.121588
0.121667
0.121626
0.12147
0.121202
0.120822
0.120334
0.119741
0.119046
0.118253
0.117367
0.11639
0.115324
0.114165
0.112915
0.111581
0.110177
0.108573
0.106646
0.0298764
0.0273466
0.0252952
0.0235706
0.0220244
0.0206443
0.0194353
0.0183872
0.0174847
0.0167198
0.0160888
0.015588
0.0152085
0.0149415
0.0147798
0.0147283
0.0147872
0.0149589
0.0152456
0.01565
0.0161758
0.0168221
0.0175831
0.0184525
0.0194285
0.0205119
0.0217009
0.022989
0.0243695
0.0258401
0.0273996
0.0290403
0.0307504
0.0325225
0.0343579
0.0362608
0.0382324
0.0402696
0.0423701
0.0445333
0.0467566
0.0490313
0.0513457
0.0536891
0.056054
0.0584407
0.0608545
0.0632976
0.0657659
0.068251
0.0707393
0.0732186
0.0756832
0.0781288
0.0805511
0.0829508
0.0853299
0.0876863
0.0900148
0.0923069
0.0945479
0.0967238
0.098831
0.100874
0.102858
0.104781
0.106638
0.108415
0.110096
0.111675
0.113152
0.114524
0.115788
0.116939
0.117975
0.118896
0.1197
0.120391
0.12097
0.121432
0.121769
0.121974
0.12205
0.122006
0.121849
0.121578
0.121191
0.120689
0.120075
0.119352
0.118525
0.117597
0.116572
0.115451
0.114233
0.112919
0.111519
0.110047
0.108363
0.106344
0.0304173
0.0277803
0.0256299
0.0238068
0.0221688
0.0207104
0.0194255
0.0183078
0.0173462
0.0165269
0.0158468
0.015299
0.0148752
0.0145661
0.0143717
0.0142922
0.0143276
0.014478
0.0147461
0.0151394
0.0156593
0.0162985
0.01705
0.0179129
0.0188883
0.019973
0.0211604
0.022447
0.0238322
0.025314
0.026885
0.0285339
0.0302512
0.0320345
0.0338861
0.0358068
0.0377941
0.0398458
0.0419626
0.0441465
0.0463937
0.0486926
0.0510291
0.0533938
0.0557816
0.0581939
0.0606351
0.0631045
0.0655967
0.0681046
0.0706177
0.0731252
0.0756195
0.078093
0.0805403
0.0829642
0.0853695
0.0877551
0.0901138
0.0924341
0.0946993
0.0968959
0.0990228
0.101087
0.103091
0.105034
0.106909
0.108702
0.1104
0.111996
0.11349
0.114879
0.116157
0.11732
0.118369
0.119304
0.120126
0.120835
0.121429
0.121901
0.122243
0.122449
0.122525
0.12248
0.122323
0.122051
0.121658
0.121144
0.120512
0.119765
0.118906
0.11794
0.116869
0.115697
0.114421
0.113044
0.11158
0.110041
0.108284
0.106176
0.0307379
0.028008
0.025775
0.0238686
0.0221461
0.0206167
0.0192661
0.0180852
0.0170662
0.0161967
0.0154698
0.0148773
0.0144112
0.0140656
0.0138419
0.0137363
0.013748
0.0138779
0.0141331
0.0145188
0.01503
0.0156585
0.0164024
0.017264
0.0182405
0.019323
0.0205077
0.0217978
0.0231943
0.0246886
0.0262685
0.0279251
0.029655
0.0314573
0.03333
0.03527
0.0372748
0.0393457
0.0414861
0.0436971
0.0459722
0.0482976
0.0506601
0.0530525
0.0554713
0.0579162
0.0603889
0.0628875
0.0654075
0.0679441
0.0704886
0.0730297
0.0755571
0.078061
0.0805363
0.0829887
0.0854256
0.0878448
0.0902369
0.0925881
0.0948819
0.0971061
0.0992607
0.101352
0.103383
0.10535
0.107246
0.109059
0.110777
0.112395
0.113911
0.115319
0.116614
0.117793
0.118858
0.119811
0.120652
0.121379
0.121987
0.122469
0.122816
0.123025
0.123103
0.12306
0.122902
0.122627
0.122228
0.121702
0.121054
0.120287
0.119402
0.118401
0.117287
0.116064
0.114732
0.113295
0.111768
0.110166
0.108336
0.106143
0.0308466
0.0280382
0.0257299
0.0237555
0.0219608
0.0203624
0.0189532
0.0177175
0.0166444
0.015726
0.0149531
0.0143186
0.013814
0.0134374
0.0131844
0.0130525
0.0130417
0.0131562
0.0134019
0.0137776
0.0142769
0.0148967
0.0156384
0.0165006
0.0174752
0.0185545
0.0197418
0.0210428
0.0224524
0.0239563
0.0255439
0.0272133
0.0289638
0.0307903
0.032686
0.0346467
0.0366738
0.0387715
0.0409427
0.0431855
0.0454914
0.047847
0.0502416
0.0526698
0.055127
0.0576096
0.0601171
0.0626482
0.0652011
0.0677731
0.0703553
0.0729343
0.0754978
0.0780348
0.0805421
0.0830278
0.0855
0.0879555
0.0903824
0.0927669
0.0950939
0.097353
0.099544
0.101671
0.103733
0.105727
0.107647
0.109485
0.11123
0.112875
0.114418
0.11585
0.117167
0.118366
0.119451
0.120425
0.121287
0.122033
0.122656
0.123148
0.123502
0.123716
0.123798
0.123757
0.123597
0.123315
0.122906
0.122368
0.121706
0.120921
0.120011
0.118977
0.117822
0.11655
0.115163
0.113667
0.11208
0.110415
0.108515
0.106239
0.030769
0.0278827
0.0255089
0.0234755
0.0216181
0.0199551
0.0184897
0.017203
0.0160801
0.0151127
0.0142948
0.0136209
0.0130821
0.0126734
0.0123907
0.0122347
0.0122061
0.012308
0.0125415
0.0129039
0.0133937
0.0140105
0.0147521
0.0156121
0.0165832
0.0176649
0.0188632
0.020178
0.0215976
0.023109
0.0247092
0.0263999
0.028177
0.0300294
0.0319488
0.0339348
0.0359921
0.0381248
0.0403325
0.0426102
0.0449503
0.0473423
0.0497772
0.0522492
0.0547504
0.0572745
0.0598204
0.062389
0.0649817
0.0675962
0.0702217
0.0728424
0.0754449
0.0780193
0.0805641
0.0830881
0.0855991
0.0880922
0.0905554
0.0929758
0.0953411
0.0976422
0.099877
0.102046
0.104145
0.10617
0.108119
0.109987
0.111764
0.113443
0.115019
0.116482
0.117826
0.119051
0.12016
0.121157
0.122042
0.122807
0.123445
0.123949
0.124312
0.124533
0.124619
0.124577
0.124411
0.124118
0.123697
0.123146
0.122469
0.121665
0.12073
0.119663
0.118467
0.117147
0.115707
0.114154
0.112507
0.110781
0.10881
0.106453
0.0305184
0.0275603
0.0251232
0.0230348
0.0211225
0.0194014
0.0178791
0.0165402
0.015369
0.0143546
0.013494
0.0127816
0.0122087
0.0117665
0.0114564
0.0112803
0.0112362
0.0113232
0.0115411
0.0118924
0.0123783
0.0129944
0.0137331
0.0145892
0.0155622
0.0166551
0.0178683
0.0191939
0.0206209
0.0221442
0.0237661
0.025485
0.0272898
0.0291677
0.0311144
0.0331337
0.0352302
0.037404
0.039651
0.0419667
0.0443468
0.0467836
0.0492676
0.0517892
0.0543381
0.056907
0.0594963
0.0621099
0.0647503
0.0674142
0.0700878
0.0727539
0.0754
0.078018
0.080607
0.0831749
0.0857275
0.0882598
0.0907616
0.093223
0.0956331
0.0979826
0.100267
0.102481
0.104621
0.106683
0.108668
0.110573
0.112389
0.114109
0.115722
0.117222
0.118599
0.119854
0.120991
0.122014
0.122921
0.123705
0.124361
0.124879
0.125253
0.125482
0.12557
0.125525
0.12535
0.125044
0.124608
0.124042
0.123348
0.122522
0.121559
0.120458
0.11922
0.117852
0.116361
0.114751
0.113045
0.111257
0.109214
0.106776
0.0300978
0.0270795
0.024579
0.022437
0.0204734
0.0186982
0.0171185
0.0157259
0.0145064
0.0134479
0.0125455
0.0117938
0.0111852
0.0107134
0.0103802
0.0101844
0.0101225
0.0101923
0.0103976
0.0107433
0.0112268
0.0118388
0.0125731
0.0134308
0.014415
0.0155234
0.0167482
0.0180815
0.0195199
0.0210649
0.0227158
0.0244635
0.0262944
0.0282001
0.0301818
0.0322436
0.0343851
0.036602
0.0388902
0.041249
0.0436775
0.0461679
0.0487072
0.0512822
0.0538814
0.0564996
0.0591397
0.0618066
0.0645018
0.0672199
0.0699457
0.0726626
0.0753594
0.0780292
0.0806701
0.0832872
0.0858845
0.0884587
0.0910038
0.0935131
0.0959758
0.0983798
0.100717
0.102981
0.105166
0.107271
0.1093
0.11125
0.113113
0.114877
0.116533
0.118072
0.119488
0.120779
0.121949
0.122999
0.123929
0.124734
0.125407
0.12594
0.126326
0.126562
0.126652
0.126603
0.126417
0.126097
0.125645
0.125062
0.124347
0.123495
0.122502
0.121364
0.120084
0.11867
0.117127
0.115462
0.113696
0.111843
0.109727
0.107205
0.0295124
0.0264399
0.0238826
0.0216841
0.0196657
0.0178373
0.0162031
0.0147579
0.0134895
0.0123866
0.011442
0.0106521
0.0100102
0.00951309
0.00915728
0.00893978
0.00885849
0.00891433
0.00911253
0.00945384
0.00993119
0.0105376
0.0112731
0.0121418
0.0131416
0.0142621
0.015495
0.0168398
0.0183
0.0198744
0.0215544
0.0233279
0.0251859
0.0271269
0.029153
0.0312627
0.03345
0.0357103
0.038044
0.0404538
0.0429391
0.0454889
0.0480864
0.0507169
0.0533707
0.0560453
0.0587448
0.0614722
0.0642266
0.0670018
0.0697842
0.0725588
0.0753157
0.0780466
0.0807468
0.0834187
0.0860657
0.0886876
0.0912831
0.0938479
0.09637
0.0988338
0.101228
0.103545
0.105781
0.107938
0.110019
0.112022
0.113936
0.115749
0.117451
0.119035
0.120494
0.121826
0.123033
0.124114
0.125068
0.125893
0.126584
0.127132
0.12753
0.127773
0.127865
0.127812
0.127617
0.127283
0.126813
0.126209
0.12547
0.12459
0.123562
0.122386
0.121063
0.1196
0.118006
0.116284
0.114455
0.112535
0.110343
0.107733
0.0287671
0.0256427
0.0230336
0.0207762
0.0186992
0.0168167
0.0151307
0.0136331
0.0123149
0.0111669
0.010182
0.00935636
0.0086845
0.00816121
0.00778104
0.00754253
0.0074454
0.00749176
0.0076834
0.00801693
0.00848758
0.00909442
0.00984006
0.0107236
0.0117354
0.0128644
0.0141093
0.0154764
0.0169666
0.0185705
0.0202756
0.0220749
0.0239675
0.0259533
0.0280289
0.0301865
0.0324188
0.0347258
0.0371127
0.0395823
0.0421298
0.0447406
0.0473971
0.0500868
0.0528022
0.0555419
0.058308
0.0611002
0.0639163
0.0667518
0.0695962
0.0724372
0.0752637
0.0780638
0.0808296
0.0835626
0.0862674
0.0889466
0.0916017
0.0942292
0.0968154
0.0993425
0.101798
0.104174
0.10647
0.108687
0.110828
0.112889
0.114857
0.116722
0.118475
0.120109
0.121617
0.122996
0.124242
0.125357
0.126337
0.127182
0.127891
0.128454
0.128864
0.129114
0.129209
0.129153
0.12895
0.128603
0.128113
0.127485
0.126719
0.125807
0.124742
0.123524
0.122156
0.120644
0.118995
0.117213
0.115318
0.113327
0.111053
0.108352
0.0278672
0.024688
0.0220263
0.0197135
0.0175774
0.0156378
0.0138983
0.0123484
0.0109805
0.00978823
0.00876574
0.00790596
0.00720377
0.0066523
0.00624888
0.00599339
0.00588435
0.00592125
0.0061031
0.00642891
0.00689939
0.00751512
0.00827392
0.00916858
0.010189
0.0113306
0.0125984
0.0139963
0.0155167
0.0171458
0.0188763
0.0207094
0.0226469
0.0246832
0.0268078
0.0290116
0.0312919
0.0336536
0.0361025
0.0386372
0.0412481
0.0439198
0.0466382
0.0493939
0.0521799
0.0549919
0.0578282
0.0606871
0.0635675
0.0664684
0.0693825
0.0722983
0.0752018
0.0780771
0.0809144
0.0837161
0.086489
0.0892372
0.0919619
0.0946583
0.0973121
0.0999058
0.102428
0.104873
0.107238
0.109524
0.111731
0.113852
0.115877
0.117796
0.119605
0.121295
0.122859
0.124288
0.125578
0.126727
0.127735
0.128603
0.129328
0.129906
0.130328
0.130587
0.130685
0.130628
0.130418
0.130057
0.129548
0.128896
0.128101
0.127153
0.126048
0.124785
0.123368
0.121804
0.120097
0.118251
0.116285
0.114219
0.111859
0.109062
0.026821
0.0235763
0.0208576
0.0184923
0.016297
0.0142969
0.0125015
0.0109012
0.0094859
0.00824968
0.00718855
0.00629498
0.00556164
0.00498346
0.00456006
0.00428978
0.00416861
0.0041938
0.0043666
0.00469125
0.00516913
0.00579594
0.00656428
0.00746711
0.00850056
0.00966569
0.010965
0.012394
0.0139406
0.0155955
0.0173602
0.0192388
0.0212277
0.0233142
0.0254861
0.0277395
0.0300768
0.032503
0.0350193
0.0376194
0.040293
0.0430284
0.0458157
0.0486466
0.0515107
0.0543989
0.0573067
0.0602338
0.0631832
0.0661567
0.0691482
0.0721449
0.07513
0.0780855
0.0810013
0.0838812
0.0867331
0.0895607
0.0923634
0.0951344
0.0978601
0.100526
0.103123
0.105646
0.108089
0.110451
0.112728
0.114913
0.116998
0.118976
0.120845
0.122598
0.124222
0.125705
0.12704
0.128226
0.129264
0.130156
0.130901
0.131494
0.131928
0.132197
0.1323
0.132241
0.132025
0.131653
0.131127
0.13045
0.129623
0.128637
0.127488
0.126177
0.124709
0.12309
0.121321
0.119405
0.117364
0.115217
0.112767
0.109868
0.0256339
0.0223102
0.0195267
0.0171054
0.0148513
0.0127913
0.0109392
0.00928842
0.00782649
0.00654601
0.00544409
0.00451631
0.00375338
0.00315127
0.00270868
0.00242218
0.0022872
0.00230232
0.00247254
0.00280256
0.00328902
0.00392332
0.00469914
0.00561519
0.00667228
0.0078692
0.00920053
0.0106572
0.0122311
0.0139215
0.0157329
0.0176645
0.0197053
0.0218408
0.0240642
0.0263773
0.0287829
0.0312801
0.0338641
0.0365284
0.0392672
0.0420736
0.0449392
0.0478529
0.0507993
0.0537654
0.0567469
0.059747
0.0627724
0.0658259
0.0688999
0.0719802
0.0750499
0.0780912
0.0810947
0.0840637
0.0870044
0.0899188
0.0928052
0.0956565
0.098461
0.101208
0.10389
0.106499
0.109028
0.11147
0.113821
0.116074
0.118224
0.120268
0.122203
0.124021
0.125707
0.127247
0.12863
0.129855
0.130926
0.131845
0.132613
0.133225
0.133671
0.133949
0.134058
0.133999
0.133778
0.133396
0.132854
0.132153
0.131292
0.130265
0.129069
0.127707
0.126184
0.124505
0.122669
0.12068
0.118558
0.116326
0.113783
0.110773
0.0243021
0.0208914
0.0180346
0.015551
0.0132386
0.0111198
0.00920999
0.00750534
0.00599487
0.00467016
0.0035279
0.00256471
0.00177291
0.00114686
0.00068323
0.000379269
0.00023212
0.000242887
0.000416226
0.000752215
0.00124401
0.00188476
0.00267361
0.00361304
0.00470154
0.00593088
0.00729132
0.00877735
0.0103887
0.0121278
0.013994
0.0159791
0.0180709
0.0202604
0.0225467
0.0249321
0.0274134
0.0299827
0.0326338
0.0353652
0.0381771
0.0410647
0.0440165
0.0470166
0.0500466
0.0530935
0.0561548
0.0592361
0.0623453
0.065484
0.0686429
0.0718085
0.0749659
0.0780996
0.0812005
0.0842685
0.087306