/*--------------------------------*- C++ -*----------------------------------*\
  =========                 |
  \\      /  F ield         | OpenFOAM: The Open Source CFD Toolbox
   \\    /   O peration     | Website:  https://openfoam.org
    \\  /    A nd           | Version:  11
     \\/     M anipulation  |
\*---------------------------------------------------------------------------*/
FoamFile
{
    format      ascii;
    class       volVectorField;
    location    "1.7";
    object      U;
}
// * * * * * * * * * * * * * * * * * * * * * * * * * * * * * * * * * * * * * //

dimensions      [0 1 -1 0 0 0 0];

internalField   nonuniform List<vector> 
10100
(
(5.65257e-06 1.15539e-06 0)
(4.70804e-06 1.32006e-05 0)
(-1.66499e-05 2.72123e-05 0)
(-5.80382e-05 3.28879e-05 0)
(-0.000107133 3.29882e-05 0)
(-0.000157063 3.00845e-05 0)
(-0.000205639 2.64698e-05 0)
(-0.000252491 2.26125e-05 0)
(-0.000298285 1.93032e-05 0)
(-0.000343731 1.65364e-05 0)
(-0.000389734 1.4614e-05 0)
(-0.000437026 1.30805e-05 0)
(-0.000486009 1.21024e-05 0)
(-0.000536891 1.14843e-05 0)
(-0.000590282 1.11077e-05 0)
(-0.000645817 1.12479e-05 0)
(-0.000703952 1.17619e-05 0)
(-0.000764718 1.22461e-05 0)
(-0.000827731 1.29971e-05 0)
(-0.000893102 1.36115e-05 0)
(-0.000960644 1.4131e-05 0)
(-0.00102991 1.48804e-05 0)
(-0.00110072 1.57297e-05 0)
(-0.00117301 1.65405e-05 0)
(-0.00124604 1.72945e-05 0)
(-0.00131948 1.79476e-05 0)
(-0.00139302 1.83106e-05 0)
(-0.00146608 1.84088e-05 0)
(-0.00153818 1.83758e-05 0)
(-0.00160907 1.82377e-05 0)
(-0.00167847 1.79874e-05 0)
(-0.00174603 1.76859e-05 0)
(-0.00181155 1.73753e-05 0)
(-0.00187484 1.6933e-05 0)
(-0.00193563 1.63194e-05 0)
(-0.0019937 1.56118e-05 0)
(-0.00204882 1.48408e-05 0)
(-0.00210082 1.40368e-05 0)
(-0.00214952 1.31831e-05 0)
(-0.00219465 1.22495e-05 0)
(-0.00223609 1.1223e-05 0)
(-0.0022737 1.00537e-05 0)
(-0.00230734 8.80044e-06 0)
(-0.00233697 7.58192e-06 0)
(-0.00236246 6.38962e-06 0)
(-0.00238377 5.18976e-06 0)
(-0.00240086 3.96227e-06 0)
(-0.0024136 2.6521e-06 0)
(-0.00242191 1.28302e-06 0)
(-0.00242577 -8.14341e-08 0)
(-0.00242514 -1.4657e-06 0)
(-0.00241999 -2.86025e-06 0)
(-0.00241043 -4.16448e-06 0)
(-0.00239654 -5.35647e-06 0)
(-0.0023784 -6.50984e-06 0)
(-0.00235614 -7.66232e-06 0)
(-0.00232982 -8.81595e-06 0)
(-0.0022994 -9.97079e-06 0)
(-0.00226493 -1.10876e-05 0)
(-0.00222657 -1.21194e-05 0)
(-0.00218448 -1.30764e-05 0)
(-0.00213876 -1.39842e-05 0)
(-0.00208959 -1.48337e-05 0)
(-0.00203716 -1.56308e-05 0)
(-0.00198155 -1.64222e-05 0)
(-0.00192284 -1.72328e-05 0)
(-0.0018611 -1.80418e-05 0)
(-0.00179646 -1.88374e-05 0)
(-0.00172899 -1.96407e-05 0)
(-0.00165876 -2.04686e-05 0)
(-0.0015859 -2.13162e-05 0)
(-0.00151055 -2.21711e-05 0)
(-0.00143286 -2.30045e-05 0)
(-0.00135301 -2.37636e-05 0)
(-0.00127126 -2.44127e-05 0)
(-0.00118795 -2.49697e-05 0)
(-0.00110342 -2.54573e-05 0)
(-0.00101806 -2.58343e-05 0)
(-0.000932347 -2.6019e-05 0)
(-0.000846828 -2.59707e-05 0)
(-0.000762047 -2.57089e-05 0)
(-0.000678524 -2.52622e-05 0)
(-0.000596772 -2.46243e-05 0)
(-0.000517344 -2.37714e-05 0)
(-0.000440838 -2.2714e-05 0)
(-0.000367874 -2.14842e-05 0)
(-0.000299091 -2.0068e-05 0)
(-0.000235139 -1.84239e-05 0)
(-0.000176648 -1.65438e-05 0)
(-0.000124211 -1.44524e-05 0)
(-7.83798e-05 -1.21989e-05 0)
(-3.96431e-05 -9.81131e-06 0)
(-8.47189e-06 -7.27799e-06 0)
(1.47502e-05 -4.64071e-06 0)
(2.98033e-05 -1.96293e-06 0)
(3.66199e-05 7.11589e-07 0)
(3.54075e-05 3.2587e-06 0)
(2.70736e-05 5.40364e-06 0)
(1.42247e-05 6.36623e-06 0)
(3.6555e-06 3.65226e-06 0)
(2.29711e-05 -1.47033e-05 0)
(4.27465e-05 9.13946e-06 0)
(3.45015e-05 5.24081e-05 0)
(-1.06162e-05 7.67302e-05 0)
(-8.06871e-05 8.64019e-05 0)
(-0.000166107 8.87211e-05 0)
(-0.000263554 8.89291e-05 0)
(-0.000371623 8.87861e-05 0)
(-0.000489863 8.94634e-05 0)
(-0.000618408 9.1464e-05 0)
(-0.000756977 9.42978e-05 0)
(-0.000905584 9.81801e-05 0)
(-0.001064 0.000102564 0)
(-0.00123211 0.000107158 0)
(-0.00140889 0.000112082 0)
(-0.00159402 0.000117113 0)
(-0.0017871 0.000121913 0)
(-0.00198683 0.000126967 0)
(-0.00219266 0.000131418 0)
(-0.00240382 0.000135575 0)
(-0.00261904 0.000139008 0)
(-0.00283773 0.00014206 0)
(-0.00305872 0.000144456 0)
(-0.00328087 0.000146216 0)
(-0.00350355 0.000147263 0)
(-0.00372558 0.000147472 0)
(-0.00394573 0.000146792 0)
(-0.00416319 0.000145275 0)
(-0.00437713 0.000143042 0)
(-0.00458657 0.000140126 0)
(-0.00479069 0.000136677 0)
(-0.00498882 0.000132752 0)
(-0.00518033 0.000128372 0)
(-0.00536461 0.000123568 0)
(-0.00554102 0.000118292 0)
(-0.00570897 0.000112597 0)
(-0.00586805 0.000106475 0)
(-0.00601781 9.99353e-05 0)
(-0.00615776 9.31009e-05 0)
(-0.00628744 8.5973e-05 0)
(-0.00640649 7.85419e-05 0)
(-0.00651467 7.08462e-05 0)
(-0.00661165 6.28889e-05 0)
(-0.00669714 5.47664e-05 0)
(-0.00677102 4.65627e-05 0)
(-0.0068331 3.82211e-05 0)
(-0.00688312 2.97333e-05 0)
(-0.00692095 2.11471e-05 0)
(-0.00694644 1.24295e-05 0)
(-0.00695949 3.57023e-06 0)
(-0.00696014 -5.32333e-06 0)
(-0.00694841 -1.41312e-05 0)
(-0.0069242 -2.2792e-05 0)
(-0.00688763 -3.12742e-05 0)
(-0.00683893 -3.9581e-05 0)
(-0.00677817 -4.77748e-05 0)
(-0.00670538 -5.59192e-05 0)
(-0.00662083 -6.39877e-05 0)
(-0.00652476 -7.18805e-05 0)
(-0.00641727 -7.9527e-05 0)
(-0.00629863 -8.69056e-05 0)
(-0.00616929 -9.39843e-05 0)
(-0.00602956 -0.000100743 0)
(-0.00587965 -0.000107244 0)
(-0.00571996 -0.000113578 0)
(-0.005551 -0.000119751 0)
(-0.00537312 -0.000125704 0)
(-0.00518658 -0.000131414 0)
(-0.00499181 -0.000136907 0)
(-0.00478939 -0.00014219 0)
(-0.00457985 -0.000147219 0)
(-0.00436368 -0.000151928 0)
(-0.00414148 -0.000156248 0)
(-0.00391406 -0.000160085 0)
(-0.00368224 -0.000163345 0)
(-0.00344686 -0.00016595 0)
(-0.00320889 -0.000167825 0)
(-0.00296947 -0.000168856 0)
(-0.00272975 -0.000168922 0)
(-0.00249091 -0.000167959 0)
(-0.00225424 -0.000165976 0)
(-0.00202118 -0.000162988 0)
(-0.00179322 -0.000158953 0)
(-0.00157176 -0.000153783 0)
(-0.00135823 -0.000147407 0)
(-0.00115416 -0.000139811 0)
(-0.00096119 -0.000131012 0)
(-0.000780994 -0.000121022 0)
(-0.000615141 -0.000109863 0)
(-0.000465119 -9.75706e-05 0)
(-0.00033236 -8.42057e-05 0)
(-0.000218191 -6.98886e-05 0)
(-0.00012378 -5.47762e-05 0)
(-5.00143e-05 -3.90842e-05 0)
(2.64485e-06 -2.31815e-05 0)
(3.43283e-05 -7.60793e-06 0)
(4.60931e-05 6.7331e-06 0)
(4.06727e-05 1.81964e-05 0)
(2.37579e-05 2.3321e-05 0)
(6.68936e-06 1.41756e-05 0)
(3.73923e-05 -5.54278e-05 0)
(8.04483e-05 -2.15734e-05 0)
(9.87344e-05 6.73366e-05 0)
(7.02944e-05 0.000128266 0)
(2.8812e-06 0.000164286 0)
(-9.56069e-05 0.000189952 0)
(-0.000222611 0.000209735 0)
(-0.000376543 0.000228636 0)
(-0.000555809 0.000247058 0)
(-0.000759263 0.000265921 0)
(-0.000985296 0.000285224 0)
(-0.00123255 0.000304357 0)
(-0.00149989 0.000323038 0)
(-0.00178494 0.000341196 0)
(-0.00208654 0.000358104 0)
(-0.002403 0.000373942 0)
(-0.00273192 0.000388517 0)
(-0.00307217 0.000401579 0)
(-0.00342164 0.000413045 0)
(-0.00377826 0.000422825 0)
(-0.00414084 0.000430771 0)
(-0.00450707 0.00043666 0)
(-0.00487536 0.000440747 0)
(-0.00524433 0.000442712 0)
(-0.00561222 0.000442593 0)
(-0.00597741 0.000440478 0)
(-0.00633859 0.000436259 0)
(-0.00669439 0.000430042 0)
(-0.00704341 0.000422093 0)
(-0.0073844 0.000412487 0)
(-0.00771623 0.000401316 0)
(-0.00803779 0.000388804 0)
(-0.00834804 0.000375027 0)
(-0.00864608 0.000360055 0)
(-0.00893107 0.000343976 0)
(-0.00920207 0.000326818 0)
(-0.0094584 0.000308638 0)
(-0.00969941 0.000289457 0)
(-0.00992446 0.000269382 0)
(-0.010133 0.000248588 0)
(-0.0103245 0.000227104 0)
(-0.0104985 0.000204985 0)
(-0.0106546 0.000182362 0)
(-0.0107923 0.000159242 0)
(-0.0109114 0.000135677 0)
(-0.0110117 0.000111801 0)
(-0.0110927 8.76001e-05 0)
(-0.0111543 6.30638e-05 0)
(-0.0111964 3.83241e-05 0)
(-0.0112188 1.34375e-05 0)
(-0.0112216 -1.15851e-05 0)
(-0.0112046 -3.6559e-05 0)
(-0.0111679 -6.12829e-05 0)
(-0.0111115 -8.57413e-05 0)
(-0.0110354 -0.000109964 0)
(-0.01094 -0.000133916 0)
(-0.0108253 -0.000157585 0)
(-0.0106915 -0.000180955 0)
(-0.010539 -0.000203925 0)
(-0.0103682 -0.000226362 0)
(-0.0101794 -0.000248173 0)
(-0.00997295 -0.00026929 0)
(-0.00974934 -0.000289671 0)
(-0.00950914 -0.000309341 0)
(-0.00925295 -0.000328349 0)
(-0.00898141 -0.000346664 0)
(-0.00869524 -0.000364203 0)
(-0.00839515 -0.000380908 0)
(-0.00808195 -0.000396743 0)
(-0.00775656 -0.000411635 0)
(-0.00742 -0.000425478 0)
(-0.00707332 -0.000438149 0)
(-0.00671761 -0.000449497 0)
(-0.0063541 -0.000459333 0)
(-0.00598417 -0.00046747 0)
(-0.00560932 -0.000473739 0)
(-0.00523109 -0.000477956 0)
(-0.00485111 -0.000479891 0)
(-0.00447104 -0.000479322 0)
(-0.00409268 -0.000476124 0)
(-0.00371799 -0.000470253 0)
(-0.00334909 -0.000461667 0)
(-0.00298813 -0.000450254 0)
(-0.00263724 -0.000435847 0)
(-0.00229863 -0.000418292 0)
(-0.00197458 -0.000397515 0)
(-0.00166745 -0.000373513 0)
(-0.00137965 -0.000346328 0)
(-0.00111349 -0.000316037 0)
(-0.000871226 -0.000282745 0)
(-0.000654975 -0.000246628 0)
(-0.000466683 -0.00020799 0)
(-0.000308039 -0.000167283 0)
(-0.000180274 -0.000125199 0)
(-8.39443e-05 -8.27949e-05 0)
(-1.86584e-05 -4.1659e-05 0)
(1.73571e-05 -4.27426e-06 0)
(2.79301e-05 2.55011e-05 0)
(2.01245e-05 4.08739e-05 0)
(6.291e-06 2.78048e-05 0)
(4.00086e-05 -0.000110333 0)
(8.56166e-05 -6.93269e-05 0)
(0.000106035 7.10801e-05 0)
(7.24323e-05 0.000177668 0)
(-8.90043e-06 0.000254649 0)
(-0.000131862 0.000316139 0)
(-0.000295604 0.000371576 0)
(-0.000497462 0.000422943 0)
(-0.000736994 0.000472933 0)
(-0.00101124 0.000521259 0)
(-0.00131852 0.000568 0)
(-0.00165663 0.000612515 0)
(-0.00202255 0.000654704 0)
(-0.00241453 0.000693812 0)
(-0.00282923 0.000729742 0)
(-0.00326395 0.000762055 0)
(-0.00371657 0.000790909 0)
(-0.0041838 0.000815545 0)
(-0.0046631 0.000836787 0)
(-0.00515205 0.000853772 0)
(-0.00564808 0.000866914 0)
(-0.00614876 0.000876147 0)
(-0.00665155 0.000881308 0)
(-0.0071543 0.000882513 0)
(-0.00765495 0.000879888 0)
(-0.00815149 0.00087338 0)
(-0.00864193 0.000863144 0)
(-0.00912443 0.000849453 0)
(-0.00959745 0.000832492 0)
(-0.0100594 0.000812467 0)
(-0.0105085 0.000789611 0)
(-0.0109435 0.000764168 0)
(-0.0113629 0.00073627 0)
(-0.0117657 0.000706077 0)
(-0.0121506 0.000673844 0)
(-0.0125165 0.000639677 0)
(-0.0128625 0.000603655 0)
(-0.0131878 0.000565914 0)
(-0.0134913 0.000526559 0)
(-0.0137725 0.000485798 0)
(-0.0140308 0.000443825 0)
(-0.0142654 0.000400695 0)
(-0.0144759 0.000356575 0)
(-0.0146617 0.000311646 0)
(-0.0148224 0.000265896 0)
(-0.0149576 0.000219393 0)
(-0.0150671 0.000172364 0)
(-0.0151504 0.00012489 0)
(-0.0152074 7.69668e-05 0)
(-0.015238 2.87505e-05 0)
(-0.0152424 -1.95556e-05 0)
(-0.0152201 -6.78137e-05 0)
(-0.0151712 -0.000115881 0)
(-0.0150959 -0.000163629 0)
(-0.0149942 -0.000210997 0)
(-0.0148662 -0.000257925 0)
(-0.0147122 -0.000304303 0)
(-0.0145325 -0.00035003 0)
(-0.0143277 -0.000395012 0)
(-0.0140981 -0.000439094 0)
(-0.013844 -0.000482091 0)
(-0.0135662 -0.000523862 0)
(-0.0132651 -0.000564328 0)
(-0.0129416 -0.000603433 0)
(-0.0125963 -0.000641108 0)
(-0.0122303 -0.00067726 0)
(-0.0118446 -0.000711765 0)
(-0.0114401 -0.000744476 0)
(-0.0110179 -0.000775246 0)
(-0.0105796 -0.000803932 0)
(-0.0101264 -0.000830344 0)
(-0.0096598 -0.000854227 0)
(-0.0091813 -0.000875297 0)
(-0.00869265 -0.00089329 0)
(-0.00819576 -0.000907965 0)
(-0.00769253 -0.000919047 0)
(-0.007185 -0.000926203 0)
(-0.00667531 -0.000929082 0)
(-0.00616572 -0.000927384 0)
(-0.00565859 -0.000920887 0)
(-0.00515642 -0.000909421 0)
(-0.00466191 -0.000892812 0)
(-0.00417781 -0.000870871 0)
(-0.00370687 -0.000843385 0)
(-0.00325192 -0.000810146 0)
(-0.00281592 -0.000771015 0)
(-0.00240189 -0.000725953 0)
(-0.00201285 -0.000675006 0)
(-0.00165169 -0.000618317 0)
(-0.00132117 -0.0005561 0)
(-0.00102396 -0.000488708 0)
(-0.000762482 -0.000416749 0)
(-0.000538746 -0.00034113 0)
(-0.000354182 -0.000263186 0)
(-0.000209363 -0.000184897 0)
(-0.000103751 -0.000109154 0)
(-3.52913e-05 -4.02821e-05 0)
(1.5636e-07 1.54394e-05 0)
(9.61328e-06 4.79134e-05 0)
(4.40003e-06 3.74894e-05 0)
(3.5391e-05 -0.000160187 0)
(6.85804e-05 -0.000109843 0)
(7.13504e-05 8.50652e-05 0)
(1.7453e-05 0.000244179 0)
(-9.23294e-05 0.000368928 0)
(-0.000251222 0.000477117 0)
(-0.000458652 0.000576327 0)
(-0.000713987 0.000671021 0)
(-0.00101426 0.000761628 0)
(-0.00135839 0.000848777 0)
(-0.00174314 0.000931642 0)
(-0.00216568 0.00100973 0)
(-0.00262346 0.00108234 0)
(-0.00311265 0.00114892 0)
(-0.0036303 0.00120933 0)
(-0.00417301 0.00126299 0)
(-0.00473719 0.00130999 0)
(-0.00531954 0.00135015 0)
(-0.0059166 0.0013832 0)
(-0.00652533 0.00140955 0)
(-0.00714243 0.00142903 0)
(-0.00776496 0.00144187 0)
(-0.00838996 0.00144814 0)
(-0.00901467 0.00144801 0)
(-0.0096365 0.00144167 0)
(-0.0102529 0.00142928 0)
(-0.0108616 0.00141112 0)
(-0.0114603 0.00138751 0)
(-0.012047 0.00135869 0)
(-0.0126197 0.00132511 0)
(-0.0131765 0.00128709 0)
(-0.0137156 0.0012449 0)
(-0.0142355 0.00119882 0)
(-0.0147346 0.00114912 0)
(-0.0152114 0.00109611 0)
(-0.0156647 0.00104001 0)
(-0.0160933 0.000981 0)
(-0.0164961 0.000919405 0)
(-0.0168721 0.000855439 0)
(-0.0172204 0.000789169 0)
(-0.0175401 0.000720886 0)
(-0.0178306 0.00065091 0)
(-0.0180911 0.000579344 0)
(-0.0183211 0.000506344 0)
(-0.01852 0.000432158 0)
(-0.0186874 0.000356923 0)
(-0.0188227 0.000280754 0)
(-0.0189257 0.000203852 0)
(-0.0189963 0.000126375 0)
(-0.0190343 4.84569e-05 0)
(-0.0190394 -2.96632e-05 0)
(-0.0190117 -0.000107721 0)
(-0.0189513 -0.000185555 0)
(-0.018858 -0.00026304 0)
(-0.0187319 -0.00033999 0)
(-0.0185735 -0.000416227 0)
(-0.0183828 -0.000491614 0)
(-0.0181604 -0.000565993 0)
(-0.0179067 -0.000639152 0)
(-0.0176224 -0.000710879 0)
(-0.0173078 -0.000780962 0)
(-0.0169638 -0.000849166 0)
(-0.0165909 -0.000915292 0)
(-0.0161903 -0.000979207 0)
(-0.0157629 -0.00104076 0)
(-0.0153099 -0.00109973 0)
(-0.0148324 -0.00115583 0)
(-0.0143317 -0.00120886 0)
(-0.0138094 -0.0012586 0)
(-0.0132671 -0.00130478 0)
(-0.0127065 -0.00134704 0)
(-0.0121295 -0.00138501 0)
(-0.0115378 -0.00141831 0)
(-0.0109339 -0.00144656 0)
(-0.0103198 -0.00146936 0)
(-0.00969798 -0.00148633 0)
(-0.00907093 -0.00149705 0)
(-0.00844121 -0.00150105 0)
(-0.00781159 -0.0014979 0)
(-0.00718496 -0.00148724 0)
(-0.00656439 -0.00146878 0)
(-0.00595306 -0.0014422 0)
(-0.00535424 -0.00140719 0)
(-0.00477123 -0.00136346 0)
(-0.0042074 -0.00131077 0)
(-0.00366626 -0.001249 0)
(-0.00315139 -0.00117808 0)
(-0.0026663 -0.00109804 0)
(-0.00221438 -0.00100909 0)
(-0.00179882 -0.000911617 0)
(-0.00142269 -0.000806248 0)
(-0.00108874 -0.000693959 0)
(-0.000799209 -0.0005762 0)
(-0.000555702 -0.000455057 0)
(-0.00035888 -0.000333548 0)
(-0.000208293 -0.000215926 0)
(-0.000101961 -0.000108289 0)
(-3.59436e-05 -1.91572e-05 0)
(-4.252e-06 3.85635e-05 0)
(1.91074e-06 4.04524e-05 0)
(2.71997e-05 -0.000195689 0)
(4.0893e-05 -0.000127888 0)
(1.77003e-05 0.000124447 0)
(-6.77641e-05 0.000341601 0)
(-0.000213048 0.000521167 0)
(-0.000414685 0.000682395 0)
(-0.000672058 0.000833439 0)
(-0.000982729 0.00097797 0)
(-0.00134635 0.00111671 0)
(-0.00175909 0.00124932 0)
(-0.00221904 0.00137496 0)
(-0.00272286 0.00149254 0)
(-0.00326672 0.00160131 0)
(-0.00384741 0.00170065 0)
(-0.00446074 0.00178965 0)
(-0.00510279 0.00186879 0)
(-0.00576997 0.00193712 0)
(-0.00645827 0.00199521 0)
(-0.00716348 0.00204265 0)
(-0.00788198 0.00207985 0)
(-0.00861033 0.00210681 0)
(-0.00934481 0.00212385 0)
(-0.010082 0.00213124 0)
(-0.0108186 0.00212928 0)
(-0.0115518 0.0021183 0)
(-0.0122785 0.00209868 0)
(-0.012996 0.00207082 0)
(-0.0137016 0.00203514 0)
(-0.014393 0.00199207 0)
(-0.0150679 0.0019421 0)
(-0.0157239 0.0018857 0)
(-0.016359 0.00182328 0)
(-0.0169715 0.00175532 0)
(-0.0175595 0.00168217 0)
(-0.0181212 0.00160414 0)
(-0.0186552 0.00152167 0)
(-0.0191601 0.0014351 0)
(-0.0196345 0.00134471 0)
(-0.0200774 0.00125089 0)
(-0.0204877 0.00115399 0)
(-0.0208642 0.00105417 0)
(-0.0212063 0.000951773 0)
(-0.0215131 0.000847152 0)
(-0.0217838 0.00074049 0)
(-0.0220178 0.000632017 0)
(-0.0222147 0.000522073 0)
(-0.022374 0.000410888 0)
(-0.0224951 0.000298615 0)
(-0.022578 0.000185504 0)
(-0.0226224 7.1854e-05 0)
(-0.0226282 -4.20825e-05 0)
(-0.0225953 -0.000156042 0)
(-0.0225236 -0.000269746 0)
(-0.0224133 -0.000382967 0)
(-0.0222646 -0.000495474 0)
(-0.0220776 -0.000606987 0)
(-0.0218527 -0.000717247 0)
(-0.0215905 -0.000826046 0)
(-0.0212915 -0.000933127 0)
(-0.0209562 -0.00103814 0)
(-0.0205854 -0.00114075 0)
(-0.0201799 -0.00124067 0)
(-0.0197407 -0.00133764 0)
(-0.0192688 -0.00143138 0)
(-0.0187653 -0.00152157 0)
(-0.0182317 -0.00160786 0)
(-0.0176694 -0.00168989 0)
(-0.0170799 -0.00176732 0)
(-0.0164651 -0.00183978 0)
(-0.0158267 -0.00190684 0)
(-0.0151669 -0.00196803 0)
(-0.0144877 -0.00202285 0)
(-0.0137915 -0.00207078 0)
(-0.0130807 -0.00211129 0)
(-0.0123581 -0.00214386 0)
(-0.0116264 -0.00216794 0)
(-0.0108885 -0.00218294 0)
(-0.0101473 -0.0021883 0)
(-0.00940605 -0.00218347 0)
(-0.00866822 -0.00216795 0)
(-0.00793727 -0.00214132 0)
(-0.00721682 -0.00210311 0)
(-0.0065106 -0.00205287 0)
(-0.00582242 -0.00199024 0)
(-0.00515616 -0.00191494 0)
(-0.00451577 -0.00182682 0)
(-0.00390527 -0.00172584 0)
(-0.00332858 -0.00161209 0)
(-0.00278951 -0.00148588 0)
(-0.0022916 -0.00134779 0)
(-0.00183825 -0.00119876 0)
(-0.00143249 -0.00104018 0)
(-0.0010768 -0.000874123 0)
(-0.000773009 -0.000703479 0)
(-0.000521961 -0.000532275 0)
(-0.000323464 -0.00036609 0)
(-0.000175971 -0.000212569 0)
(-7.61237e-05 -8.2154e-05 0)
(-1.95352e-05 9.96979e-06 0)
(-7.49359e-07 3.5601e-05 0)
(1.82577e-05 -0.000213857 0)
(1.01149e-05 -0.000117501 0)
(-4.49245e-05 0.000195519 0)
(-0.000164929 0.000474899 0)
(-0.000351519 0.000715827 0)
(-0.000599543 0.000935806 0)
(-0.000908913 0.00114506 0)
(-0.0012784 0.0013454 0)
(-0.00170486 0.001538 0)
(-0.0021867 0.00172172 0)
(-0.00272034 0.00189515 0)
(-0.00330224 0.00205734 0)
(-0.00392892 0.00220681 0)
(-0.00459627 0.00234284 0)
(-0.00529976 0.00246484 0)
(-0.00603541 0.00257225 0)
(-0.00679885 0.00266507 0)
(-0.00758552 0.00274323 0)
(-0.00839129 0.00280698 0)
(-0.00921186 0.00285628 0)
(-0.0100432 0.00289166 0)
(-0.0108813 0.00291341 0)
(-0.0117223 0.00292198 0)
(-0.0125627 0.00291782 0)
(-0.0133989 0.00290139 0)
(-0.0142276 0.00287333 0)
(-0.0150457 0.00283417 0)
(-0.0158504 0.00278445 0)
(-0.0166387 0.00272483 0)
(-0.0174081 0.00265589 0)
(-0.018156 0.00257825 0)
(-0.0188801 0.00249244 0)
(-0.0195783 0.00239903 0)
(-0.0202486 0.00229869 0)
(-0.0208889 0.00219183 0)
(-0.0214977 0.00207883 0)
(-0.0220732 0.00196033 0)
(-0.0226142 0.00183675 0)
(-0.0231189 0.00170843 0)
(-0.0235865 0.00157586 0)
(-0.0240158 0.00143953 0)
(-0.0244057 0.00129971 0)
(-0.0247552 0.00115676 0)
(-0.0250636 0.00101108 0)
(-0.0253303 0.000863038 0)
(-0.0255545 0.000712936 0)
(-0.0257357 0.000561124 0)
(-0.0258735 0.000407909 0)
(-0.0259678 0.000253588 0)
(-0.0260181 9.8535e-05 0)
(-0.0260242 -5.68755e-05 0)
(-0.0259862 -0.00021234 0)
(-0.0259041 -0.000367557 0)
(-0.025778 -0.000522157 0)
(-0.025608 -0.000675752 0)
(-0.0253943 -0.000828013 0)
(-0.0251376 -0.000978641 0)
(-0.0248383 -0.00112729 0)
(-0.024497 -0.00127355 0)
(-0.0241145 -0.00141698 0)
(-0.0236914 -0.0015572 0)
(-0.0232289 -0.0016938 0)
(-0.022728 -0.00182637 0)
(-0.0221899 -0.00195448 0)
(-0.0216159 -0.0020777 0)
(-0.0210076 -0.00219554 0)
(-0.0203666 -0.00230748 0)
(-0.0196948 -0.00241305 0)
(-0.0189941 -0.00251172 0)
(-0.0182667 -0.0026029 0)
(-0.0175148 -0.00268593 0)
(-0.0167408 -0.00276017 0)
(-0.0159475 -0.00282497 0)
(-0.0151375 -0.00287967 0)
(-0.014314 -0.00292358 0)
(-0.01348 -0.00295596 0)
(-0.0126387 -0.00297606 0)
(-0.0117935 -0.00298319 0)
(-0.0109481 -0.00297665 0)
(-0.0101064 -0.00295578 0)
(-0.00927205 -0.00292001 0)
(-0.00844923 -0.00286876 0)
(-0.00764203 -0.00280149 0)
(-0.0068547 -0.00271773 0)
(-0.00609155 -0.00261717 0)
(-0.00535696 -0.00249962 0)
(-0.00465529 -0.00236508 0)
(-0.00399083 -0.00221373 0)
(-0.00336771 -0.00204602 0)
(-0.00278983 -0.00186274 0)
(-0.00226085 -0.00166519 0)
(-0.0017841 -0.00145524 0)
(-0.00136235 -0.00123556 0)
(-0.000997658 -0.00100983 0)
(-0.000691213 -0.000783028 0)
(-0.000443281 -0.000561886 0)
(-0.000252953 -0.000355408 0)
(-0.000117719 -0.0001755 0)
(-3.51236e-05 -3.91321e-05 0)
(-3.35051e-06 2.26655e-05 0)
(9.25643e-06 -0.000214326 0)
(-2.05726e-05 -7.65461e-05 0)
(-0.000108204 0.000301153 0)
(-0.000266324 0.000648222 0)
(-0.000495086 0.000954808 0)
(-0.000791654 0.00124052 0)
(-0.00115503 0.00151231 0)
(-0.00158303 0.00177429 0)
(-0.00207369 0.00202542 0)
(-0.00262352 0.00226474 0)
(-0.00322941 0.0024907 0)
(-0.00388769 0.00270122 0)
(-0.0045941 0.00289513 0)
(-0.00534441 0.00307132 0)
(-0.00613407 0.00322912 0)
(-0.00695826 0.00336766 0)
(-0.00781251 0.00348735 0)
(-0.00869208 0.0035876 0)
(-0.00959217 0.00366903 0)
(-0.0105083 0.00373171 0)
(-0.0114359 0.00377622 0)
(-0.0123709 0.00380299 0)
(-0.0133088 0.00381266 0)
(-0.0142457 0.00380586 0)
(-0.0151779 0.00378326 0)
(-0.0161016 0.00374561 0)
(-0.0170135 0.00369361 0)
(-0.0179101 0.00362803 0)
(-0.0187886 0.00354974 0)
(-0.0196459 0.0034594 0)
(-0.0204792 0.00335776 0)
(-0.0212861 0.00324567 0)
(-0.022064 0.00312377 0)
(-0.0228106 0.00299269 0)
(-0.0235242 0.00285324 0)
(-0.0242025 0.00270603 0)
(-0.0248437 0.00255157 0)
(-0.0254463 0.0023905 0)
(-0.0260088 0.00222342 0)
(-0.0265297 0.00205081 0)
(-0.0270077 0.00187322 0)
(-0.027442 0.00169119 0)
(-0.0278314 0.00150513 0)
(-0.0281749 0.00131551 0)
(-0.0284717 0.00112284 0)
(-0.0287213 0.000927546 0)
(-0.028923 0.000729995 0)
(-0.0290763 0.000530612 0)
(-0.0291809 0.000329881 0)
(-0.0292366 0.000128236 0)
(-0.0292431 -7.39377e-05 0)
(-0.0292004 -0.000276216 0)
(-0.0291085 -0.000478132 0)
(-0.0289675 -0.00067924 0)
(-0.0287776 -0.000879111 0)
(-0.0285392 -0.00107729 0)
(-0.0282528 -0.00127333 0)
(-0.0279189 -0.00146677 0)
(-0.0275383 -0.00165711 0)
(-0.0271117 -0.00184379 0)
(-0.0266401 -0.0020263 0)
(-0.0261244 -0.00220412 0)
(-0.0255661 -0.0023767 0)
(-0.0249665 -0.00254346 0)
(-0.0243269 -0.0027038 0)
(-0.0236491 -0.00285706 0)
(-0.0229349 -0.00300261 0)
(-0.0221865 -0.0031398 0)
(-0.0214059 -0.00326793 0)
(-0.0205955 -0.00338622 0)
(-0.0197578 -0.00349385 0)
(-0.0188956 -0.00359001 0)
(-0.0180116 -0.00367388 0)
(-0.0171091 -0.00374463 0)
(-0.0161914 -0.00380139 0)
(-0.0152618 -0.00384324 0)
(-0.0143238 -0.00386929 0)
(-0.0133813 -0.00387867 0)
(-0.0124382 -0.00387052 0)
(-0.0114988 -0.00384403 0)
(-0.0105672 -0.00379846 0)
(-0.00964785 -0.0037331 0)
(-0.00874524 -0.00364732 0)
(-0.00786398 -0.00354059 0)
(-0.00700875 -0.00341254 0)
(-0.00618431 -0.00326299 0)
(-0.00539534 -0.00309197 0)
(-0.00464643 -0.00289976 0)
(-0.00394201 -0.00268695 0)
(-0.00328631 -0.0024546 0)
(-0.0026833 -0.00220436 0)
(-0.00213659 -0.00193859 0)
(-0.00164927 -0.00166057 0)
(-0.00122374 -0.00137464 0)
(-0.000861617 -0.00108667 0)
(-0.000563782 -0.000804338 0)
(-0.000330122 -0.000537763 0)
(-0.000159149 -0.000299914 0)
(-5.0453e-05 -0.000109069 0)
(-5.84711e-06 1.72459e-06 0)
(1.10092e-06 -0.00019824 0)
(-4.93777e-05 -5.22108e-06 0)
(-0.000169651 0.000442309 0)
(-0.000365494 0.000861473 0)
(-0.000637743 0.00124048 0)
(-0.000983019 0.00159589 0)
(-0.0014004 0.00193674 0)
(-0.00188747 0.00226421 0)
(-0.00244135 0.00257852 0)
(-0.00305853 0.00287775 0)
(-0.00373555 0.00315951 0)
(-0.00446819 0.00342203 0)
(-0.00525198 0.00366354 0)
(-0.00608233 0.00388271 0)
(-0.00695453 0.00407857 0)
(-0.00786344 0.00425076 0)
(-0.00880422 0.00439876 0)
(-0.00977186 0.00452287 0)
(-0.0107612 0.00462313 0)
(-0.0117675 0.00470007 0)
(-0.012786 0.00475419 0)
(-0.0138119 0.00478621 0)
(-0.0148408 0.00479685 0)
(-0.0158683 0.00478692 0)
(-0.0168905 0.00475731 0)
(-0.0179032 0.00470894 0)
(-0.0189027 0.00464274 0)
(-0.0198854 0.00455958 0)
(-0.0208481 0.00446049 0)
(-0.0217876 0.00434651 0)
(-0.0227007 0.00421842 0)
(-0.0235847 0.00407717 0)
(-0.0244372 0.00392376 0)
(-0.0252554 0.00375893 0)
(-0.026037 0.00358348 0)
(-0.02678 0.00339833 0)
(-0.0274826 0.00320422 0)
(-0.0281428 0.00300181 0)
(-0.0287589 0.00279183 0)
(-0.0293296 0.00257501 0)
(-0.0298534 0.00235194 0)
(-0.030329 0.00212323 0)
(-0.0307554 0.00188953 0)
(-0.0311316 0.00165143 0)
(-0.0314567 0.00140946 0)
(-0.0317299 0.00116418 0)
(-0.0319507 0.000916125 0)
(-0.0321184 0.000665829 0)
(-0.0322328 0.000413816 0)
(-0.0322934 0.000160642 0)
(-0.0323002 -9.31627e-05 0)
(-0.0322531 -0.000347087 0)
(-0.0321521 -0.000600585 0)
(-0.0319972 -0.000853085 0)
(-0.0317888 -0.00110402 0)
(-0.0315273 -0.00135285 0)
(-0.0312131 -0.00159901 0)
(-0.0308471 -0.00184191 0)
(-0.0304298 -0.00208089 0)
(-0.0299621 -0.00231527 0)
(-0.0294451 -0.00254443 0)
(-0.02888 -0.00276772 0)
(-0.0282682 -0.00298444 0)
(-0.027611 -0.00319381 0)
(-0.0269102 -0.00339507 0)
(-0.0261675 -0.00358742 0)
(-0.0253851 -0.00377006 0)
(-0.0245651 -0.00394214 0)
(-0.0237099 -0.00410277 0)
(-0.0228219 -0.004251 0)
(-0.021904 -0.00438584 0)
(-0.0209591 -0.00450628 0)
(-0.0199903 -0.00461132 0)
(-0.0190011 -0.00469995 0)
(-0.017995 -0.00477109 0)
(-0.0169756 -0.00482364 0)
(-0.0159468 -0.00485651 0)
(-0.0149126 -0.00486867 0)
(-0.0138775 -0.00485911 0)
(-0.0128458 -0.00482689 0)
(-0.0118223 -0.00477108 0)
(-0.0108115 -0.00469083 0)
(-0.00981826 -0.0045854 0)
(-0.00884756 -0.00445419 0)
(-0.00790444 -0.00429683 0)
(-0.00699393 -0.00411313 0)
(-0.00612103 -0.00390316 0)
(-0.0052906 -0.00366728 0)
(-0.00450736 -0.00340627 0)
(-0.00377589 -0.00312147 0)
(-0.00310046 -0.00281489 0)
(-0.00248504 -0.00248933 0)
(-0.00193303 -0.00214858 0)
(-0.00144723 -0.00179764 0)
(-0.00102983 -0.00144309 0)
(-0.000682421 -0.00109343 0)
(-0.000405766 -0.000759563 0)
(-0.000199516 -0.000455223 0)
(-6.52412e-05 -0.00019949 0)
(-8.24844e-06 -2.69614e-05 0)
(-6.18188e-06 -0.000167085 0)
(-7.53205e-05 9.4753e-05 0)
(-0.000227136 0.000618226 0)
(-0.000460283 0.00111553 0)
(-0.000775196 0.00157165 0)
(-0.00116897 0.00200328 0)
(-0.0016399 0.00241713 0)
(-0.00218539 0.00281525 0)
(-0.00280158 0.0031967 0)
(-0.00348514 0.00355915 0)
(-0.00423178 0.00390027 0)
(-0.00503692 0.00421776 0)
(-0.00589595 0.00450946 0)
(-0.00680401 0.00477399 0)
(-0.00775578 0.00501011 0)
(-0.0087461 0.00521757 0)
(-0.00976979 0.00539555 0)
(-0.0108215 0.00554459 0)
(-0.011896 0.00566464 0)
(-0.012988 0.00575642 0)
(-0.0140925 0.00582054 0)
(-0.0152046 0.0058578 0)
(-0.0163195 0.00586909 0)
(-0.0174326 0.00585549 0)
(-0.0185395 0.00581807 0)
(-0.0196359 0.00575778 0)
(-0.020718 0.00567588 0)
(-0.0217817 0.00557358 0)
(-0.0228235 0.00545185 0)
(-0.0238401 0.00531189 0)
(-0.0248282 0.00515496 0)
(-0.0257847 0.00498205 0)
(-0.0267067 0.0047942 0)
(-0.0275919 0.00459255 0)
(-0.0284376 0.00437805 0)
(-0.0292414 0.00415163 0)
(-0.0300012 0.00391426 0)
(-0.0307154 0.00366686 0)
(-0.0313819 0.00341025 0)
(-0.0319991 0.00314524 0)
(-0.0325655 0.00287265 0)
(-0.03308 0.00259321 0)
(-0.0335412 0.00230766 0)
(-0.0339479 0.00201673 0)
(-0.0342994 0.00172113 0)
(-0.0345948 0.00142149 0)
(-0.0348334 0.00111844 0)
(-0.0350147 0.00081268 0)
(-0.0351381 0.000504881 0)
(-0.0352035 0.000195673 0)
(-0.0352106 -0.000114342 0)
(-0.0351595 -0.000424511 0)
(-0.0350499 -0.000734123 0)
(-0.0348821 -0.0010425 0)
(-0.0346565 -0.00134899 0)
(-0.0343734 -0.00165294 0)
(-0.0340334 -0.00195363 0)
(-0.0336372 -0.0022503 0)
(-0.0331855 -0.00254216 0)
(-0.0326794 -0.00282844 0)
(-0.0321201 -0.00310836 0)
(-0.0315087 -0.00338111 0)
(-0.0308468 -0.0036458 0)
(-0.0301359 -0.00390149 0)
(-0.0293777 -0.00414725 0)
(-0.0285742 -0.00438213 0)
(-0.0277278 -0.00460513 0)
(-0.0268407 -0.0048152 0)
(-0.0259154 -0.00501125 0)
(-0.0249546 -0.00519211 0)
(-0.0239613 -0.00535662 0)
(-0.0229387 -0.0055036 0)
(-0.0218902 -0.00563186 0)
(-0.0208193 -0.00574014 0)
(-0.0197299 -0.00582717 0)
(-0.0186257 -0.00589163 0)
(-0.0175111 -0.00593227 0)
(-0.0163903 -0.00594787 0)
(-0.015268 -0.00593727 0)
(-0.0141489 -0.00589935 0)
(-0.0130379 -0.00583301 0)
(-0.01194 -0.00573727 0)
(-0.0108603 -0.0056113 0)
(-0.00980403 -0.00545444 0)
(-0.00877661 -0.00526628 0)
(-0.00778333 -0.00504664 0)
(-0.00682943 -0.00479559 0)
(-0.00592007 -0.00451362 0)
(-0.0050603 -0.00420171 0)
(-0.00425503 -0.00386147 0)
(-0.00350887 -0.00349523 0)
(-0.00282612 -0.00310619 0)
(-0.00221057 -0.00269857 0)
(-0.00166552 -0.00227795 0)
(-0.00119377 -0.00185151 0)
(-0.000797681 -0.00142839 0)
(-0.000478944 -0.00102002 0)
(-0.000238355 -0.000640631 0)
(-7.93671e-05 -0.000309641 0)
(-1.05308e-05 -6.30251e-05 0)
(-1.23005e-05 -0.00012263 0)
(-9.87169e-05 0.000221661 0)
(-0.000279838 0.000827859 0)
(-0.000549169 0.00140898 0)
(-0.000905856 0.00194822 0)
(-0.00134699 0.00246099 0)
(-0.00187071 0.00295307 0)
(-0.0024732 0.00342617 0)
(-0.00315095 0.00387856 0)
(-0.0038994 0.00430783 0)
(-0.004714 0.00471136 0)
(-0.00559009 0.00508633 0)
(-0.00652242 0.00543063 0)
(-0.00750578 0.00574249 0)
(-0.00853461 0.0060209 0)
(-0.00960357 0.0062648 0)
(-0.0107072 0.00647423 0)
(-0.0118397 0.00664901 0)
(-0.0129956 0.00678963 0)
(-0.0141695 0.00689665 0)
(-0.0153563 0.00697084 0)
(-0.0165505 0.00701323 0)
(-0.0177472 0.00702488 0)
(-0.0189414 0.0070069 0)
(-0.0201287 0.00696065 0)
(-0.0213046 0.00688741 0)
(-0.0224645 0.00678842 0)
(-0.0236047 0.00666515 0)
(-0.0247214 0.00651896 0)
(-0.0258108 0.00635109 0)
(-0.0268693 0.00616291 0)
(-0.0278941 0.0059558 0)
(-0.0288821 0.00573094 0)
(-0.0298302 0.00548956 0)
(-0.030736 0.00523293 0)
(-0.031597 0.00496214 0)
(-0.0324109 0.00467825 0)
(-0.0331758 0.00438236 0)
(-0.0338895 0.00407555 0)
(-0.0345505 0.00375873 0)
(-0.0351572 0.00343281 0)
(-0.0357081 0.00309872 0)
(-0.0362019 0.00275741 0)
(-0.0366374 0.00240969 0)
(-0.0370138 0.00205634 0)
(-0.0373301 0.00169815 0)
(-0.0375855 0.00133596 0)
(-0.0377795 0.00097057 0)
(-0.0379116 0.000602724 0)
(-0.0379815 0.000233165 0)
(-0.0379891 -0.000137335 0)
(-0.0379341 -0.000507973 0)
(-0.0378166 -0.000877934 0)
(-0.0376368 -0.00124644 0)
(-0.037395 -0.00161273 0)
(-0.0370917 -0.00197598 0)
(-0.0367275 -0.00233529 0)
(-0.0363031 -0.00268979 0)
(-0.0358193 -0.00303855 0)
(-0.0352772 -0.00338066 0)
(-0.0346781 -0.00371519 0)
(-0.0340233 -0.00404113 0)
(-0.0333143 -0.00435742 0)
(-0.0325528 -0.00466294 0)
(-0.0317407 -0.00495658 0)
(-0.0308801 -0.00523723 0)