/*--------------------------------*- C++ -*----------------------------------*\
  =========                 |
  \\      /  F ield         | OpenFOAM: The Open Source CFD Toolbox
   \\    /   O peration     | Website:  https://openfoam.org
    \\  /    A nd           | Version:  11
     \\/     M anipulation  |
\*---------------------------------------------------------------------------*/
FoamFile
{
    format      ascii;
    class       volVectorField;
    location    "1.5";
    object      U;
}
// * * * * * * * * * * * * * * * * * * * * * * * * * * * * * * * * * * * * * //

dimensions      [0 1 -1 0 0 0 0];

internalField   nonuniform List<vector> 
10100
(
(3.71849e-05 2.75196e-05 0)
(5.24014e-06 4.35415e-05 0)
(-3.55052e-06 2.63028e-05 0)
(-4.99443e-05 2.69271e-05 0)
(-8.1518e-05 2.58376e-05 0)
(-0.000118315 2.45515e-05 0)
(-0.000158077 2.28032e-05 0)
(-0.000199901 2.07827e-05 0)
(-0.000241996 1.85021e-05 0)
(-0.000285746 1.60386e-05 0)
(-0.000330635 1.37443e-05 0)
(-0.000376215 1.1959e-05 0)
(-0.000423807 1.08603e-05 0)
(-0.000472848 1.02614e-05 0)
(-0.000523613 1.00555e-05 0)
(-0.000576395 9.93507e-06 0)
(-0.000631182 9.72548e-06 0)
(-0.000687903 9.80619e-06 0)
(-0.000746894 1.03892e-05 0)
(-0.000808241 1.12067e-05 0)
(-0.000871934 1.22114e-05 0)
(-0.00093776 1.33076e-05 0)
(-0.00100538 1.43277e-05 0)
(-0.00107471 1.52949e-05 0)
(-0.00114528 1.61545e-05 0)
(-0.00121642 1.68248e-05 0)
(-0.00128787 1.74249e-05 0)
(-0.00135943 1.79793e-05 0)
(-0.00143056 1.83444e-05 0)
(-0.00150082 1.84883e-05 0)
(-0.00156992 1.84553e-05 0)
(-0.00163752 1.8232e-05 0)
(-0.0017032 1.78617e-05 0)
(-0.00176671 1.74674e-05 0)
(-0.00182791 1.70612e-05 0)
(-0.00188666 1.65364e-05 0)
(-0.00194276 1.5892e-05 0)
(-0.00199599 1.52445e-05 0)
(-0.00204614 1.45892e-05 0)
(-0.00209302 1.3751e-05 0)
(-0.00213637 1.26242e-05 0)
(-0.00217593 1.13369e-05 0)
(-0.00221147 1.01039e-05 0)
(-0.00224287 8.9759e-06 0)
(-0.00227012 7.81454e-06 0)
(-0.00229321 6.50023e-06 0)
(-0.00231204 5.0839e-06 0)
(-0.00232654 3.71157e-06 0)
(-0.00233664 2.45053e-06 0)
(-0.00234235 1.22825e-06 0)
(-0.00234367 -6.76889e-08 0)
(-0.0023406 -1.4615e-06 0)
(-0.00233315 -2.86972e-06 0)
(-0.00232138 -4.19051e-06 0)
(-0.0023054 -5.39557e-06 0)
(-0.00228532 -6.5355e-06 0)
(-0.0022612 -7.67614e-06 0)
(-0.00223312 -8.84083e-06 0)
(-0.00220114 -9.99646e-06 0)
(-0.00216538 -1.10789e-05 0)
(-0.00212605 -1.20382e-05 0)
(-0.00208337 -1.2874e-05 0)
(-0.00203754 -1.36365e-05 0)
(-0.00198869 -1.43972e-05 0)
(-0.00193686 -1.52161e-05 0)
(-0.00188204 -1.61233e-05 0)
(-0.00182415 -1.71103e-05 0)
(-0.00176318 -1.81328e-05 0)
(-0.00169921 -1.91377e-05 0)
(-0.00163237 -2.00946e-05 0)
(-0.00156283 -2.10034e-05 0)
(-0.00149076 -2.18767e-05 0)
(-0.00141631 -2.27189e-05 0)
(-0.00133965 -2.3517e-05 0)
(-0.00126099 -2.42464e-05 0)
(-0.00118061 -2.48777e-05 0)
(-0.00109882 -2.53778e-05 0)
(-0.00101604 -2.57125e-05 0)
(-0.000932726 -2.58547e-05 0)
(-0.000849384 -2.57908e-05 0)
(-0.00076654 -2.55232e-05 0)
(-0.000684719 -2.50682e-05 0)
(-0.000604435 -2.44479e-05 0)
(-0.000526198 -2.36723e-05 0)
(-0.000450545 -2.27257e-05 0)
(-0.000378071 -2.1572e-05 0)
(-0.000309434 -2.01796e-05 0)
(-0.00024532 -1.85401e-05 0)
(-0.000186401 -1.66627e-05 0)
(-0.000133305 -1.45626e-05 0)
(-8.66098e-05 -1.22645e-05 0)
(-4.68517e-05 -9.79357e-06 0)
(-1.45503e-05 -7.13818e-06 0)
(9.76626e-06 -4.27487e-06 0)
(2.56634e-05 -1.25986e-06 0)
(3.29905e-05 1.74381e-06 0)
(3.20787e-05 4.44203e-06 0)
(2.40878e-05 6.30695e-06 0)
(1.22627e-05 6.34418e-06 0)
(3.17333e-06 3.10075e-06 0)
(5.95174e-05 -2.91531e-05 0)
(9.05514e-05 3.68446e-05 0)
(7.128e-05 4.18124e-05 0)
(2.77442e-05 5.81272e-05 0)
(-3.19803e-05 6.79691e-05 0)
(-0.0001092 7.42934e-05 0)
(-0.000201334 7.92128e-05 0)
(-0.000305534 8.27933e-05 0)
(-0.000422395 8.66031e-05 0)
(-0.000549958 8.93825e-05 0)
(-0.00068781 9.28385e-05 0)
(-0.000835953 9.59575e-05 0)
(-0.000992917 9.95501e-05 0)
(-0.00115879 0.0001035 0)
(-0.00133285 0.000107739 0)
(-0.00151404 0.000111971 0)
(-0.00170189 0.000116078 0)
(-0.00189592 0.000120049 0)
(-0.00209549 0.000124273 0)
(-0.00229976 0.000128558 0)
(-0.002508 0.000132415 0)
(-0.00271969 0.000135912 0)
(-0.00293378 0.000138973 0)
(-0.00314894 0.000141227 0)
(-0.00336447 0.000142541 0)
(-0.00357984 0.000143112 0)
(-0.00379367 0.000143105 0)
(-0.00400463 0.000142433 0)
(-0.00421241 0.000140923 0)
(-0.00441654 0.000138626 0)
(-0.00461568 0.000135702 0)
(-0.00480874 0.000132187 0)
(-0.00499546 0.000128084 0)
(-0.00517552 0.000123496 0)
(-0.00534814 0.000118535 0)
(-0.0055126 0.000113251 0)
(-0.00566858 0.000107675 0)
(-0.00581575 0.000101801 0)
(-0.00595359 9.55155e-05 0)
(-0.00608163 8.86646e-05 0)
(-0.0061996 8.1262e-05 0)
(-0.00630715 7.35276e-05 0)
(-0.00640375 6.56725e-05 0)
(-0.00648895 5.77059e-05 0)
(-0.00656268 4.95099e-05 0)
(-0.00662504 4.1059e-05 0)
(-0.00667595 3.24915e-05 0)
(-0.00671505 2.39625e-05 0)
(-0.006742 1.54851e-05 0)
(-0.00675676 6.94534e-06 0)
(-0.00675951 -1.73419e-06 0)
(-0.00675046 -1.04752e-05 0)
(-0.00672961 -1.90966e-05 0)
(-0.00669686 -2.747e-05 0)
(-0.00665216 -3.5609e-05 0)
(-0.00659563 -4.36185e-05 0)
(-0.00652759 -5.15707e-05 0)
(-0.00644834 -5.94337e-05 0)
(-0.00635816 -6.70934e-05 0)
(-0.0062572 -7.44246e-05 0)
(-0.00614567 -8.1356e-05 0)
(-0.00602383 -8.79026e-05 0)
(-0.00589202 -9.41599e-05 0)
(-0.00575063 -0.000100266 0)
(-0.0056 -0.00010634 0)
(-0.00544042 -0.000112433 0)
(-0.0052721 -0.00011851 0)
(-0.00509527 -0.000124476 0)
(-0.00491023 -0.000130218 0)
(-0.00471741 -0.000135653 0)
(-0.00451733 -0.000140751 0)
(-0.00431057 -0.000145514 0)
(-0.00409773 -0.000149929 0)
(-0.00387947 -0.000153938 0)
(-0.00365652 -0.000157452 0)
(-0.00342967 -0.000160364 0)
(-0.00319982 -0.000162566 0)
(-0.00296798 -0.000163947 0)
(-0.00273525 -0.000164412 0)
(-0.00250281 -0.000163894 0)
(-0.00227192 -0.00016236 0)
(-0.00204388 -0.000159814 0)
(-0.00182005 -0.000156268 0)
(-0.00160185 -0.000151697 0)
(-0.00139077 -0.000146024 0)
(-0.00118833 -0.000139147 0)
(-0.00099612 -0.000130992 0)
(-0.00081576 -0.000121544 0)
(-0.000648871 -0.000110846 0)
(-0.000497032 -9.89784e-05 0)
(-0.000361767 -8.60185e-05 0)
(-0.000244501 -7.20193e-05 0)
(-0.000146533 -5.70304e-05 0)
(-6.89488e-05 -4.11796e-05 0)
(-1.24287e-05 -2.48169e-05 0)
(2.3009e-05 -8.69024e-06 0)
(3.83875e-05 5.9406e-06 0)
(3.6197e-05 1.70386e-05 0)
(2.20164e-05 2.11242e-05 0)
(6.80914e-06 1.25032e-05 0)
(3.93695e-05 -6.74009e-05 0)
(8.24069e-05 -1.73558e-05 0)
(0.000102434 5.12667e-05 0)
(7.30404e-05 0.000103401 0)
(7.87829e-06 0.000142001 0)
(-8.82063e-05 0.000172117 0)
(-0.00021444 0.000198276 0)
(-0.000368489 0.000222034 0)
(-0.000547908 0.000243419 0)
(-0.000752036 0.000264436 0)
(-0.000978583 0.000283569 0)
(-0.00122568 0.000301902 0)
(-0.00149178 0.000319018 0)
(-0.00177518 0.00033502 0)
(-0.0020738 0.000350168 0)
(-0.00238611 0.00036405 0)
(-0.00271028 0.000376793 0)
(-0.00304421 0.000388541 0)
(-0.00338615 0.000398945 0)
(-0.0037349 0.000408054 0)
(-0.00408863 0.000415865 0)
(-0.00444502 0.000421995 0)
(-0.00480284 0.000426254 0)
(-0.00516108 0.000428541 0)
(-0.0055178 0.000428732 0)
(-0.00587129 0.000426998 0)
(-0.0062205 0.00042355 0)
(-0.00656422 0.000418269 0)
(-0.0069011 0.000411083 0)
(-0.00722999 0.000402225 0)
(-0.0075497 0.000391907 0)
(-0.00785918 0.000380135 0)
(-0.0081577 0.000366955 0)
(-0.00844448 0.000352571 0)
(-0.00871855 0.000337183 0)
(-0.00897907 0.000320888 0)
(-0.00922539 0.000303746 0)
(-0.00945695 0.00028576 0)
(-0.00967315 0.000266838 0)
(-0.00987353 0.000246899 0)
(-0.0100577 0.000226025 0)
(-0.0102251 0.000204453 0)
(-0.0103752 0.00018239 0)
(-0.0105077 0.000159881 0)
(-0.0106223 0.000136894 0)
(-0.010719 0.000113483 0)
(-0.0107975 8.98121e-05 0)
(-0.0108575 6.6028e-05 0)
(-0.0108985 4.21536e-05 0)
(-0.0109206 1.81344e-05 0)
(-0.0109241 -6.0285e-06 0)
(-0.010909 -3.02065e-05 0)
(-0.0108752 -5.42046e-05 0)
(-0.0108226 -7.78883e-05 0)
(-0.0107511 -0.000101244 0)
(-0.010661 -0.000124321 0)
(-0.0105526 -0.000147131 0)
(-0.0104263 -0.000169599 0)
(-0.0102823 -0.000191588 0)
(-0.0101209 -0.000212958 0)
(-0.00994234 -0.000233614 0)
(-0.0097469 -0.000253534 0)
(-0.00953504 -0.000272779 0)
(-0.00930729 -0.000291459 0)
(-0.00906423 -0.000309686 0)
(-0.00880648 -0.000327505 0)
(-0.00853463 -0.000344854 0)
(-0.0082493 -0.000361589 0)
(-0.00795114 -0.000377535 0)
(-0.00764094 -0.000392543 0)
(-0.00731956 -0.000406505 0)
(-0.00698796 -0.000419347 0)
(-0.00664718 -0.000430983 0)
(-0.00629838 -0.00044128 0)
(-0.00594277 -0.000450059 0)
(-0.00558167 -0.000457117 0)
(-0.00521646 -0.000462251 0)
(-0.00484867 -0.000465255 0)
(-0.00447993 -0.000465933 0)
(-0.00411197 -0.000464119 0)
(-0.00374659 -0.000459693 0)
(-0.00338573 -0.000452581 0)
(-0.00303147 -0.000442714 0)
(-0.00268597 -0.000429989 0)
(-0.00235147 -0.000414255 0)
(-0.00203023 -0.00039535 0)
(-0.00172457 -0.000373156 0)
(-0.00143682 -0.000347641 0)
(-0.00116933 -0.000318873 0)
(-0.000924426 -0.000286995 0)
(-0.000704382 -0.000252182 0)
(-0.000511301 -0.000214647 0)
(-0.000346997 -0.000174704 0)
(-0.000212852 -0.000132902 0)
(-0.000109611 -9.02676e-05 0)
(-3.71104e-05 -4.855e-05 0)
(6.04701e-06 -1.048e-05 0)
(2.28563e-05 1.98104e-05 0)
(1.91813e-05 3.5754e-05 0)
(7.04396e-06 2.52863e-05 0)
(3.43945e-05 -0.000131854 0)
(7.24866e-05 -6.90742e-05 0)
(8.94891e-05 5.21369e-05 0)
(5.3e-05 0.000151295 0)
(-3.02868e-05 0.000230785 0)
(-0.000156032 0.000299473 0)
(-0.000321741 0.000360698 0)
(-0.000526511 0.000417733 0)
(-0.000768377 0.000470608 0)
(-0.00104453 0.000520308 0)
(-0.00135354 0.000566592 0)
(-0.00169225 0.000609947 0)
(-0.00205788 0.00064953 0)
(-0.00244778 0.000685486 0)
(-0.00285945 0.000718145 0)
(-0.00328994 0.000747384 0)
(-0.00373628 0.00077305 0)
(-0.00419644 0.000795365 0)
(-0.00466761 0.00081429 0)
(-0.00514647 0.000829633 0)
(-0.00563095 0.000841525 0)
(-0.00611912 0.000849868 0)
(-0.00660843 0.000854353 0)
(-0.00709646 0.000855011 0)
(-0.00758142 0.000852086 0)
(-0.00806172 0.000845617 0)
(-0.0085354 0.000835646 0)
(-0.00900046 0.000822368 0)
(-0.00945554 0.000805991 0)
(-0.00989937 0.000786667 0)
(-0.0103302 0.000764592 0)
(-0.0107468 0.000739979 0)
(-0.0111481 0.000713002 0)
(-0.0115333 0.000683838 0)
(-0.011901 0.000652744 0)
(-0.01225 0.000619967 0)
(-0.0125796 0.000585616 0)
(-0.0128892 0.000549659 0)
(-0.0131781 0.000512074 0)
(-0.0134454 0.000472971 0)
(-0.0136907 0.000432561 0)
(-0.0139134 0.000391041 0)
(-0.0141131 0.000348526 0)
(-0.0142893 0.000305092 0)
(-0.0144416 0.000260858 0)
(-0.0145698 0.000216009 0)
(-0.0146736 0.000170724 0)
(-0.0147526 0.00012511 0)
(-0.0148065 7.92008e-05 0)
(-0.0148353 3.30282e-05 0)
(-0.0148392 -1.33001e-05 0)
(-0.0148181 -5.9603e-05 0)
(-0.0147719 -0.000105689 0)
(-0.0147006 -0.000151424 0)
(-0.0146042 -0.000196745 0)
(-0.0144828 -0.000241617 0)
(-0.0143369 -0.000285962 0)
(-0.0141668 -0.000329649 0)
(-0.0139729 -0.000372516 0)
(-0.0137555 -0.000414418 0)
(-0.0135148 -0.000455239 0)
(-0.0132514 -0.000494897 0)
(-0.0129657 -0.000533368 0)
(-0.0126585 -0.000570675 0)
(-0.0123305 -0.000606843 0)
(-0.0119826 -0.000641838 0)
(-0.0116156 -0.000675549 0)
(-0.0112306 -0.000707789 0)
(-0.0108285 -0.000738331 0)
(-0.0104104 -0.000766947 0)
(-0.00997749 -0.000793433 0)
(-0.00953112 -0.000817607 0)
(-0.00907273 -0.000839272 0)
(-0.00860387 -0.000858188 0)
(-0.00812621 -0.000874073 0)
(-0.0076415 -0.000886622 0)
(-0.00715162 -0.000895522 0)
(-0.00665856 -0.000900461 0)
(-0.00616446 -0.00090113 0)
(-0.00567153 -0.000897246 0)
(-0.00518214 -0.000888567 0)
(-0.00469878 -0.000874894 0)
(-0.00422412 -0.000856038 0)
(-0.00376096 -0.000831792 0)
(-0.00331215 -0.000801934 0)
(-0.00288059 -0.000766252 0)
(-0.0024692 -0.000724594 0)
(-0.00208093 -0.000676905 0)
(-0.00171875 -0.000623267 0)
(-0.00138556 -0.000563895 0)
(-0.00108417 -0.00049912 0)
(-0.000817127 -0.000429423 0)
(-0.000586603 -0.00035555 0)
(-0.000394191 -0.000278684 0)
(-0.000240717 -0.000200708 0)
(-0.000125999 -0.00012451 0)
(-4.85591e-05 -5.43595e-05 0)
(-5.33137e-06 3.58301e-06 0)
(9.00763e-06 3.9738e-05 0)
(5.35363e-06 3.49365e-05 0)
(2.76666e-05 -0.000166047 0)
(5.14222e-05 -0.000101162 0)
(4.97507e-05 6.97864e-05 0)
(-9.74849e-06 0.000220182 0)
(-0.000123167 0.000347888 0)
(-0.000286124 0.00046297 0)
(-0.000498306 0.000569881 0)
(-0.000757663 0.000669089 0)
(-0.00106193 0.00076279 0)
(-0.00140902 0.00085027 0)
(-0.00179566 0.000931769 0)
(-0.00221913 0.00100701 0)
(-0.00267672 0.001076 0)
(-0.00316403 0.00113846 0)
(-0.00367763 0.00119401 0)
(-0.00421494 0.00124299 0)
(-0.0047722 0.00128545 0)
(-0.00534554 0.00132126 0)
(-0.00593197 0.0013507 0)
(-0.0065285 0.00137387 0)
(-0.00713173 0.00139062 0)
(-0.00773849 0.0014011 0)
(-0.00834631 0.00140545 0)
(-0.00895268 0.0014037 0)
(-0.00955481 0.001396 0)
(-0.0101504 0.00138271 0)
(-0.0107375 0.00136408 0)
(-0.0113139 0.00134027 0)
(-0.0118776 0.00131157 0)
(-0.0124269 0.00127841 0)
(-0.0129599 0.00124109 0)
(-0.0134752 0.00119977 0)
(-0.0139714 0.00115471 0)
(-0.0144474 0.00110635 0)
(-0.0149014 0.00105506 0)
(-0.0153323 0.00100106 0)
(-0.0157392 0.000944434 0)
(-0.0161213 0.000885307 0)
(-0.0164775 0.000823868 0)
(-0.016807 0.000760334 0)
(-0.0171092 0.000694906 0)
(-0.0173835 0.00062776 0)
(-0.0176293 0.000559071 0)
(-0.017846 0.00048903 0)
(-0.0180333 0.00041784 0)
(-0.0181907 0.000345715 0)
(-0.018318 0.000272843 0)
(-0.0184147 0.000199377 0)
(-0.0184806 0.000125436 0)
(-0.0185156 5.11484e-05 0)
(-0.0185196 -2.33214e-05 0)
(-0.0184929 -9.77747e-05 0)
(-0.0184352 -0.000172008 0)
(-0.0183464 -0.000245839 0)
(-0.0182267 -0.000319122 0)
(-0.0180763 -0.000391722 0)
(-0.0178955 -0.000463489 0)
(-0.0176848 -0.00053425 0)
(-0.0174446 -0.000603812 0)
(-0.0171752 -0.000671983 0)
(-0.0168772 -0.000738583 0)
(-0.0165509 -0.000803455 0)
(-0.0161971 -0.000866474 0)
(-0.0158168 -0.000927557 0)
(-0.0154107 -0.000986624 0)
(-0.01498 -0.00104355 0)
(-0.0145259 -0.00109812 0)
(-0.0140493 -0.00115008 0)
(-0.0135517 -0.00119912 0)
(-0.0130344 -0.00124492 0)
(-0.0124989 -0.00128717 0)
(-0.011947 -0.00132556 0)
(-0.0113804 -0.00135976 0)
(-0.010801 -0.00138942 0)
(-0.0102109 -0.00141412 0)
(-0.00961216 -0.00143345 0)
(-0.0090072 -0.00144696 0)
(-0.00839842 -0.00145421 0)
(-0.00778839 -0.00145477 0)
(-0.00717983 -0.00144821 0)
(-0.00657559 -0.00143414 0)
(-0.00597868 -0.00141224 0)
(-0.0053923 -0.00138217 0)
(-0.00481975 -0.00134362 0)
(-0.00426442 -0.00129629 0)
(-0.00372973 -0.00123992 0)
(-0.00321913 -0.00117434 0)
(-0.00273611 -0.00109951 0)
(-0.00228413 -0.00101553 0)
(-0.00186655 -0.000922717 0)
(-0.00148656 -0.000821629 0)
(-0.00114707 -0.00071309 0)
(-0.000850513 -0.000598357 0)
(-0.000598683 -0.000479333 0)
(-0.000392585 -0.000358814 0)
(-0.000232179 -0.000240879 0)
(-0.000116181 -0.000131235 0)
(-4.18034e-05 -3.78046e-05 0)
(-4.90935e-06 2.7213e-05 0)
(2.81864e-06 3.79504e-05 0)
(2.1057e-05 -0.000188831 0)
(2.58624e-05 -0.000110239 0)
(-3.71886e-06 0.000115182 0)
(-9.41758e-05 0.000321338 0)
(-0.00024477 0.000504425 0)
(-0.000450975 0.000672998 0)
(-0.00071327 0.000830806 0)
(-0.00102946 0.000980603 0)
(-0.0013967 0.00112175 0)
(-0.00181281 0.00125369 0)
(-0.0022749 0.00137685 0)
(-0.0027791 0.00149001 0)
(-0.00332169 0.00159326 0)
(-0.00389939 0.00168657 0)
(-0.00450806 0.00176938 0)
(-0.00514317 0.00184164 0)
(-0.00580108 0.00190373 0)
(-0.00647835 0.00195566 0)
(-0.00717069 0.00199744 0)
(-0.00787403 0.00202947 0)
(-0.00858508 0.00205199 0)
(-0.00930059 0.00206503 0)
(-0.0100171 0.00206881 0)
(-0.0107315 0.00206381 0)
(-0.0114406 0.0020504 0)
(-0.0121422 0.00202882 0)
(-0.0128337 0.00199941 0)
(-0.0135123 0.0019627 0)
(-0.0141758 0.00191923 0)
(-0.0148222 0.00186938 0)
(-0.0154496 0.00181347 0)
(-0.016056 0.00175189 0)
(-0.0166398 0.00168515 0)
(-0.0171996 0.00161373 0)
(-0.0177335 0.00153802 0)
(-0.0182402 0.0014583 0)
(-0.0187187 0.00137484 0)
(-0.0191679 0.00128793 0)
(-0.0195867 0.00119786 0)
(-0.019974 0.00110489 0)
(-0.0203291 0.00100928 0)
(-0.0206513 0.000911284 0)
(-0.0209399 0.000811179 0)
(-0.0211944 0.000709214 0)
(-0.0214142 0.000605643 0)
(-0.0215988 0.000500721 0)
(-0.0217479 0.0003947 0)
(-0.0218611 0.00028781 0)
(-0.021938 0.000180256 0)
(-0.0219786 7.22355e-05 0)
(-0.0219829 -3.60343e-05 0)
(-0.0219508 -0.000144311 0)
(-0.0218823 -0.000252341 0)
(-0.0217774 -0.000359881 0)
(-0.021636 -0.000466698 0)
(-0.0214586 -0.000572574 0)
(-0.0212454 -0.000677289 0)
(-0.0209971 -0.000780605 0)
(-0.020714 -0.000882271 0)
(-0.0203966 -0.000982024 0)
(-0.0200455 -0.0010796 0)
(-0.0196612 -0.00117473 0)
(-0.0192446 -0.00126722 0)
(-0.0187968 -0.00135685 0)
(-0.0183188 -0.00144343 0)
(-0.0178119 -0.00152668 0)
(-0.0172773 -0.00160631 0)
(-0.0167165 -0.00168193 0)
(-0.0161309 -0.00175314 0)
(-0.0155222 -0.00181951 0)
(-0.0148922 -0.00188061 0)
(-0.0142429 -0.00193598 0)
(-0.0135765 -0.00198515 0)
(-0.012895 -0.0020276 0)
(-0.012201 -0.00206281 0)
(-0.0114969 -0.00209021 0)
(-0.0107855 -0.0021092 0)
(-0.0100696 -0.00211921 0)
(-0.00935208 -0.00211965 0)
(-0.00863621 -0.00210994 0)
(-0.00792527 -0.00208955 0)
(-0.00722273 -0.002058 0)
(-0.00653221 -0.00201481 0)
(-0.00585748 -0.00195957 0)
(-0.00520239 -0.00189189 0)
(-0.0045708 -0.00181145 0)
(-0.00396662 -0.00171809 0)
(-0.00339376 -0.00161179 0)
(-0.0028561 -0.00149273 0)
(-0.00235738 -0.00136139 0)
(-0.00190114 -0.00121856 0)
(-0.00149053 -0.00106548 0)
(-0.00112827 -0.000903957 0)
(-0.000816401 -0.000736624 0)
(-0.000556198 -0.000567208 0)
(-0.000347945 -0.000400868 0)
(-0.000190759 -0.000244629 0)
(-8.24609e-05 -0.000107798 0)
(-2.05301e-05 -4.69286e-06 0)
(-2.1152e-08 3.30358e-05 0)
(1.41183e-05 -0.000197676 0)
(-8.54637e-07 -9.19519e-05 0)
(-6.20083e-05 0.000192205 0)
(-0.000188667 0.000460342 0)
(-0.000379524 0.000703633 0)
(-0.000633202 0.000931399 0)
(-0.000947439 0.00114703 0)
(-0.00132054 0.0013521 0)
(-0.00175142 0.00154634 0)
(-0.00223576 0.00172852 0)
(-0.00277018 0.00189788 0)
(-0.00335172 0.00205405 0)
(-0.00397593 0.00219629 0)
(-0.00463841 0.00232404 0)
(-0.0053351 0.00243739 0)
(-0.00606174 0.00253622 0)
(-0.00681372 0.00262037 0)
(-0.00758664 0.00269021 0)
(-0.00837627 0.00274614 0)
(-0.00917845 0.00278834 0)
(-0.00998928 0.00281703 0)
(-0.0108048 0.00283273 0)
(-0.0116211 0.002836 0)
(-0.012435 0.00282726 0)
(-0.0132431 0.00280693 0)
(-0.0140424 0.00277555 0)
(-0.01483 0.00273378 0)
(-0.0156029 0.00268226 0)
(-0.0163585 0.00262156 0)
(-0.0170948 0.00255222 0)
(-0.0178094 0.00247479 0)
(-0.0185 0.00238987 0)
(-0.0191649 0.00229806 0)
(-0.0198022 0.0021999 0)
(-0.0204102 0.00209588 0)
(-0.0209873 0.00198645 0)
(-0.0215321 0.00187202 0)
(-0.0220436 0.00175302 0)
(-0.0225204 0.0016298 0)
(-0.0229614 0.00150274 0)
(-0.0233656 0.00137221 0)
(-0.0237323 0.00123856 0)
(-0.0240609 0.00110212 0)
(-0.0243504 0.00096322 0)
(-0.0246004 0.000822174 0)
(-0.0248103 0.000679322 0)
(-0.0249797 0.000534998 0)
(-0.0251082 0.000389504 0)
(-0.0251955 0.000243115 0)
(-0.0252413 9.6098e-05 0)
(-0.0252457 -5.12593e-05 0)
(-0.0252088 -0.000198644 0)
(-0.0251303 -0.000345731 0)
(-0.0250103 -0.000492198 0)
(-0.0248489 -0.000637735 0)
(-0.0246463 -0.000782041 0)
(-0.0244032 -0.00092482 0)
(-0.02412 -0.00106576 0)
(-0.0237972 -0.00120452 0)
(-0.0234354 -0.00134074 0)
(-0.0230351 -0.00147405 0)
(-0.0225971 -0.00160411 0)
(-0.0221224 -0.00173058 0)
(-0.0216123 -0.00185313 0)
(-0.0210678 -0.00197143 0)
(-0.0204905 -0.00208507 0)
(-0.0198817 -0.00219361 0)
(-0.019243 -0.00229654 0)
(-0.0185761 -0.00239333 0)
(-0.0178829 -0.00248342 0)
(-0.0171656 -0.00256623 0)
(-0.0164263 -0.00264117 0)
(-0.0156674 -0.00270759 0)
(-0.0148914 -0.00276483 0)
(-0.0141011 -0.00281218 0)
(-0.0132994 -0.00284893 0)
(-0.0124892 -0.00287432 0)
(-0.0116737 -0.00288761 0)
(-0.0108563 -0.00288804 0)
(-0.0100405 -0.00287488 0)
(-0.00923001 -0.00284746 0)
(-0.00842877 -0.00280512 0)
(-0.00764077 -0.00274727 0)
(-0.00687016 -0.00267336 0)
(-0.00612117 -0.00258293 0)
(-0.00539806 -0.00247562 0)
(-0.00470514 -0.00235125 0)
(-0.00404668 -0.00220986 0)
(-0.00342691 -0.00205175 0)
(-0.00284991 -0.00187756 0)
(-0.00231949 -0.00168839 0)
(-0.00183913 -0.00148588 0)
(-0.00141178 -0.00127243 0)
(-0.00103983 -0.00105135 0)
(-0.000724916 -0.000827244 0)
(-0.000467795 -0.000606233 0)
(-0.000268191 -0.00039642 0)
(-0.000124719 -0.000208162 0)
(-3.67074e-05 -5.73038e-05 0)
(-2.93573e-06 1.97279e-05 0)
(6.86155e-06 -0.000192241 0)
(-2.8069e-05 -4.38364e-05 0)
(-0.000121003 0.000303745 0)
(-0.000285108 0.000638701 0)
(-0.0005192 0.000947817 0)
(-0.000820238 0.00124005 0)
(-0.00118789 0.00151933 0)
(-0.00161921 0.00178458 0)
(-0.00211195 0.00203603 0)
(-0.00266327 0.00227286 0)
(-0.00326884 0.0024929 0)
(-0.00392444 0.00269562 0)
(-0.00462621 0.00288025 0)
(-0.00536974 0.003046 0)
(-0.00615005 0.0031926 0)
(-0.00696241 0.0033201 0)
(-0.00780217 0.00342861 0)
(-0.00866472 0.00351826 0)
(-0.00954534 0.0035894 0)
(-0.0104395 0.00364247 0)
(-0.0113428 0.00367805 0)
(-0.012251 0.00369675 0)
(-0.0131601 0.00369918 0)
(-0.0140663 0.00368596 0)
(-0.014966 0.0036578 0)
(-0.0158558 0.00361547 0)
(-0.0167325 0.00355978 0)
(-0.0175928 0.00349151 0)
(-0.018434 0.00341139 0)
(-0.0192536 0.00332016 0)
(-0.020049 0.00321857 0)
(-0.0208177 0.00310737 0)
(-0.0215577 0.00298729 0)
(-0.0222671 0.00285902 0)
(-0.0229438 0.0027232 0)
(-0.0235862 0.0025804 0)
(-0.0241927 0.00243116 0)
(-0.024762 0.00227602 0)
(-0.0252928 0.00211551 0)
(-0.0257836 0.00195011 0)
(-0.0262335 0.0017803 0)
(-0.0266417 0.00160652 0)
(-0.0270073 0.00142917 0)
(-0.0273295 0.00124866 0)
(-0.0276076 0.00106543 0)
(-0.0278411 0.000879895 0)
(-0.0280294 0.000692478 0)
(-0.0281722 0.000503553 0)
(-0.028269 0.000313467 0)
(-0.0283198 0.000122566 0)
(-0.0283245 -6.87751e-05 0)
(-0.028283 -0.000260156 0)
(-0.0281953 -0.000451166 0)
(-0.0280613 -0.000641399 0)
(-0.0278813 -0.000830464 0)
(-0.0276555 -0.00101798 0)
(-0.0273846 -0.00120356 0)
(-0.0270691 -0.0013868 0)
(-0.0267095 -0.00156725 0)
(-0.0263064 -0.00174444 0)
(-0.0258606 -0.00191789 0)
(-0.0253728 -0.00208716 0)
(-0.0248444 -0.00225178 0)
(-0.0242765 -0.00241129 0)
(-0.0236705 -0.00256521 0)
(-0.0230279 -0.00271297 0)
(-0.0223503 -0.00285397 0)
(-0.0216394 -0.00298758 0)
(-0.0208971 -0.00311312 0)
(-0.0201257 -0.00322987 0)
(-0.0193273 -0.00333711 0)
(-0.0185044 -0.00343405 0)
(-0.0176597 -0.0035199 0)
(-0.016796 -0.00359381 0)
(-0.0159162 -0.0036549 0)
(-0.0150235 -0.00370228 0)
(-0.0141213 -0.00373501 0)
(-0.0132129 -0.00375218 0)
(-0.0123022 -0.00375285 0)
(-0.011393 -0.00373613 0)
(-0.0104893 -0.00370118 0)
(-0.00959547 -0.0036472 0)
(-0.00871579 -0.00357345 0)
(-0.00785477 -0.00347927 0)
(-0.00701697 -0.00336412 0)
(-0.00620703 -0.0032276 0)
(-0.00542957 -0.00306954 0)
(-0.00468921 -0.00289003 0)
(-0.00399049 -0.0026895 0)
(-0.00333778 -0.00246881 0)
(-0.00273521 -0.00222934 0)
(-0.00218653 -0.00197318 0)
(-0.00169505 -0.00170322 0)
(-0.0012635 -0.00142347 0)
(-0.000894014 -0.00113925 0)
(-0.000587946 -0.00085753 0)
(-0.000345737 -0.00058722 0)
(-0.000166946 -0.000339422 0)
(-5.27728e-05 -0.000130967 0)
(-5.80138e-06 -2.01524e-06 0)
(-3.64776e-07 -0.000171637 0)
(-5.37846e-05 3.231e-05 0)
(-0.000179208 0.000450831 0)
(-0.000380385 0.000857274 0)
(-0.000656866 0.00123779 0)
(-0.00100602 0.00159985 0)
(-0.00142657 0.00194623 0)
(-0.00191586 0.00227707 0)
(-0.0024702 0.00259032 0)
(-0.0030866 0.00288489 0)
(-0.00376092 0.00315925 0)
(-0.00448858 0.00341196 0)
(-0.00526529 0.00364163 0)
(-0.00608602 0.00384777 0)
(-0.00694572 0.00403013 0)
(-0.00783951 0.00418848 0)
(-0.00876238 0.00432282 0)
(-0.00970935 0.00443346 0)
(-0.0106754 0.00452088 0)
(-0.0116557 0.00458567 0)
(-0.0126456 0.00462852 0)
(-0.0136405 0.00465019 0)
(-0.0146362 0.00465147 0)
(-0.0156286 0.00463323 0)
(-0.0166137 0.00459637 0)
(-0.0175878 0.00454188 0)
(-0.0185474 0.00447076 0)
(-0.0194891 0.00438397 0)
(-0.0204099 0.00428244 0)
(-0.021307 0.00416708 0)
(-0.0221776 0.00403884 0)
(-0.023019 0.00389864 0)
(-0.0238289 0.0037474 0)
(-0.0246053 0.00358596 0)
(-0.025346 0.00341507 0)
(-0.0260491 0.00323546 0)
(-0.0267131 0.00304782 0)
(-0.0273363 0.00285285 0)
(-0.0279172 0.00265123 0)
(-0.0284545 0.00244356 0)
(-0.0289469 0.00223042 0)
(-0.0293938 0.00201233 0)
(-0.029794 0.00178981 0)
(-0.0301466 0.0015634 0)
(-0.030451 0.00133362 0)
(-0.0307064 0.001101 0)
(-0.0309124 0.000866033 0)
(-0.0310685 0.000629172 0)
(-0.0311744 0.000390854 0)
(-0.0312299 0.000151524 0)
(-0.0312348 -8.83453e-05 0)
(-0.0311892 -0.000328256 0)
(-0.0310929 -0.000567708 0)
(-0.030946 -0.000806211 0)
(-0.0307487 -0.00104329 0)
(-0.0305015 -0.00127847 0)
(-0.0302048 -0.00151126 0)
(-0.0298592 -0.00174114 0)
(-0.0294655 -0.00196754 0)
(-0.0290241 -0.00218988 0)
(-0.028536 -0.00240757 0)
(-0.0280021 -0.00262003 0)
(-0.0274237 -0.00282668 0)
(-0.0268021 -0.00302691 0)
(-0.026139 -0.00322006 0)
(-0.0254357 -0.00340541 0)
(-0.0246942 -0.0035822 0)
(-0.0239162 -0.00374964 0)
(-0.0231038 -0.00390689 0)
(-0.0222595 -0.00405307 0)
(-0.0213857 -0.00418727 0)
(-0.020485 -0.00430855 0)
(-0.0195603 -0.0044159 0)
(-0.0186147 -0.0045083 0)
(-0.0176514 -0.00458467 0)
(-0.0166737 -0.00464394 0)
(-0.0156854 -0.00468499 0)
(-0.01469 -0.0047067 0)
(-0.0136918 -0.00470797 0)
(-0.0126948 -0.00468772 0)
(-0.0117034 -0.00464494 0)
(-0.0107223 -0.00457869 0)
(-0.00975595 -0.00448807 0)
(-0.00880927 -0.00437233 0)
(-0.00788712 -0.00423084 0)
(-0.00699442 -0.00406318 0)
(-0.00613612 -0.00386918 0)
(-0.00531713 -0.00364899 0)
(-0.0045423 -0.0034032 0)
(-0.0038163 -0.00313285 0)
(-0.00314354 -0.00283963 0)
(-0.00252814 -0.00252601 0)
(-0.00197375 -0.00219538 0)
(-0.00148357 -0.00185233 0)
(-0.00106026 -0.00150281 0)
(-0.000705867 -0.00115443 0)
(-0.000421646 -0.000816735 0)
(-0.000208126 -0.000501262 0)
(-6.8331e-05 -0.000225401 0)
(-8.53605e-06 -3.19754e-05 0)
(-7.1477e-06 -0.000138119 0)
(-7.85865e-05 0.000136152 0)
(-0.000233542 0.00063148 0)
(-0.000471658 0.00111619 0)
(-0.000790081 0.00157285 0)
(-0.00118669 0.00200993 0)
(-0.00165922 0.00242836 0)
(-0.00220473 0.00282818 0)
(-0.00281983 0.00320728 0)
(-0.00350009 0.00356338 0)
(-0.00424116 0.00389494 0)
(-0.00503855 0.00420003 0)
(-0.00588747 0.00447736 0)
(-0.00678242 0.00472627 0)
(-0.00771817 0.00494621 0)
(-0.00868967 0.00513689 0)
(-0.00969158 0.00529838 0)
(-0.0107186 0.0054311 0)
(-0.0117655 0.00553559 0)
(-0.0128271 0.00561259 0)
(-0.0138986 0.0056629 0)
(-0.0149752 0.00568745 0)
(-0.0160522 0.00568723 0)
(-0.0171255 0.00566331 0)
(-0.0181905 0.00561686 0)
(-0.0192436 0.00554906 0)
(-0.0202808 0.00546111 0)
(-0.0212987 0.00535412 0)
(-0.0222938 0.00522923 0)
(-0.0232634 0.0050876 0)
(-0.0242042 0.00493039 0)
(-0.0251135 0.00475872 0)
(-0.0259887 0.00457363 0)
(-0.0268277 0.00437612 0)
(-0.0276282 0.00416709 0)
(-0.0283881 0.00394746 0)
(-0.0291056 0.00371811 0)
(-0.0297791 0.0034799 0)
(-0.0304068 0.00323363 0)
(-0.0309874 0.00298002 0)
(-0.0315197 0.00271974 0)
(-0.0320026 0.00245346 0)
(-0.0324352 0.00218183 0)
(-0.0328163 0.00190551 0)
(-0.0331452 0.00162513 0)
(-0.0334211 0.00134132 0)
(-0.0336437 0.00105464 0)
(-0.0338124 0.000765646 0)
(-0.0339268 0.000474875 0)
(-0.0339867 0.000182889 0)
(-0.0339919 -0.000109734 0)
(-0.0339425 -0.000402398 0)
(-0.0338384 -0.000694508 0)
(-0.0336795 -0.000985484 0)
(-0.0334663 -0.00127476 0)
(-0.033199 -0.00156175 0)
(-0.0328784 -0.00184586 0)
(-0.032505 -0.00212642 0)
(-0.0320794 -0.00240274 0)
(-0.0316024 -0.00267413 0)
(-0.0310749 -0.00293987 0)
(-0.0304981 -0.00319925 0)
(-0.0298731 -0.00345156 0)
(-0.0292016 -0.00369601 0)
(-0.0284851 -0.00393178 0)
(-0.0277254 -0.00415797 0)
(-0.0269241 -0.00437366 0)
(-0.0260835 -0.00457789 0)
(-0.0252058 -0.00476965 0)
(-0.0242934 -0.00494787 0)
(-0.023349 -0.00511146 0)
(-0.0223756 -0.00525927 0)
(-0.0213761 -0.00539012 0)
(-0.0203537 -0.00550277 0)
(-0.019312 -0.00559596 0)
(-0.0182546 -0.00566839 0)
(-0.0171853 -0.00571875 0)
(-0.0161082 -0.00574572 0)
(-0.0150274 -0.00574803 0)
(-0.0139476 -0.00572442 0)
(-0.0128733 -0.00567369 0)
(-0.0118094 -0.00559474 0)
(-0.0107608 -0.00548655 0)
(-0.00973262 -0.00534823 0)
(-0.00872998 -0.00517909 0)
(-0.00775809 -0.00497868 0)
(-0.00682222 -0.00474685 0)
(-0.00592755 -0.00448382 0)
(-0.00507921 -0.00419029 0)
(-0.00428218 -0.0038675 0)
(-0.00354122 -0.00351742 0)
(-0.00286079 -0.00314285 0)
(-0.00224499 -0.00274766 0)
(-0.00169748 -0.00233687 0)
(-0.00122153 -0.00191697 0)
(-0.000819939 -0.00149605 0)
(-0.00049482 -0.00108409 0)
(-0.000247651 -0.000692841 0)
(-8.31608e-05 -0.000339932 0)
(-1.1107e-05 -6.97873e-05 0)
(-1.32022e-05 -9.23231e-05 0)
(-0.000100528 0.00026579 0)
(-0.000284586 0.000844645 0)
(-0.000557748 0.00141308 0)
(-0.000916741 0.00195239 0)
(-0.00135915 0.00246893 0)
(-0.00188287 0.00296457 0)
(-0.00248352 0.00343723 0)
(-0.00315736 0.00388553 0)
(-0.00389979 0.00430653 0)
(-0.00470597 0.00469798 0)
(-0.00557107 0.00505789 0)
(-0.00648963 0.0053851 0)
(-0.00745606 0.00567863 0)
(-0.00846503 0.00593765 0)
(-0.00951113 0.0061619 0)
(-0.0105886 0.00635159 0)
(-0.011692 0.0065072 0)
(-0.0128158 0.00662935 0)
(-0.0139547 0.00671885 0)
(-0.0151036 0.00677663 0)
(-0.0162574 0.00680381 0)
(-0.0174114 0.0068016 0)
(-0.0185608 0.00677135 0)
(-0.0197013 0.00671441 0)
(-0.0208286 0.00663216 0)
(-0.021939 0.00652592 0)
(-0.0230284 0.00639708 0)
(-0.0240935 0.00624701 0)
(-0.025131 0.00607712 0)
(-0.0261377 0.00588877 0)
(-0.0271106 0.00568324 0)
(-0.0280471 0.00546173 0)
(-0.0289448 0.0052254 0)
(-0.0298014 0.00497538 0)
(-0.0306144 0.00471276 0)
(-0.0313821 0.00443863 0)
(-0.0321026 0.00415397 0)
(-0.0327743 0.0038597 0)
(-0.0333956 0.00355668 0)
(-0.0339652 0.00324572 0)
(-0.034482 0.00292764 0)
(-0.0349448 0.00260323 0)
(-0.0353526 0.00227327 0)
(-0.0357045 0.00193852 0)
(-0.0359998 0.00159966 0)
(-0.0362379 0.00125738 0)
(-0.0364185 0.000912332 0)
(-0.0365409 0.000565181 0)
(-0.0366051 0.000216602 0)
(-0.0366107 -0.000132714 0)
(-0.0365579 -0.00048207 0)
(-0.0364464 -0.000830777 0)
(-0.0362766 -0.00117816 0)
(-0.0360485 -0.00152353 0)
(-0.0357627 -0.00186621 0)
(-0.0354198 -0.00220545 0)
(-0.0350203 -0.00254045 0)
(-0.0345651 -0.00287041 0)
(-0.0340549 -0.00319448 0)
(-0.0334907 -0.00351185 0)
(-0.0328737 -0.00382166 0)
(-0.0322053 -0.00412302 0)
(-0.0314871 -0.00441499 0)
(-0.0307207 -0.00469655 0)
(-0.029908 -0.00496665 0)
(-0.0290509 -0.00522419 0)