/*--------------------------------*- C++ -*----------------------------------*\
  =========                 |
  \\      /  F ield         | OpenFOAM: The Open Source CFD Toolbox
   \\    /   O peration     | Website:  https://openfoam.org
    \\  /    A nd           | Version:  11
     \\/     M anipulation  |
\*---------------------------------------------------------------------------*/
FoamFile
{
    format      ascii;
    class       volScalarField;
    location    "5.5";
    object      p;
}
// * * * * * * * * * * * * * * * * * * * * * * * * * * * * * * * * * * * * * //

dimensions      [0 2 -2 0 0 0 0];

internalField   nonuniform List<scalar> 
10100
(
1.69526e-07
8.31982e-05
-0.000109629
-0.000587931
-0.0013209
-0.00227403
-0.00340401
-0.00466485
-0.00601436
-0.00741346
-0.0088275
-0.0102267
-0.0115842
-0.0128767
-0.0140847
-0.0151913
-0.0161803
-0.0170391
-0.0177564
-0.0183231
-0.0187322
-0.0189784
-0.0190568
-0.0189634
-0.0186955
-0.0182526
-0.017635
-0.0168439
-0.0158809
-0.0147484
-0.013449
-0.0119863
-0.0103648
-0.00859013
-0.0066682
-0.00460523
-0.00240759
-8.22379e-05
0.00236319
0.00492071
0.00758217
0.0103391
0.0131826
0.0161033
0.0190922
0.0221396
0.0252356
0.02837
0.0315327
0.0347139
0.0379036
0.0410913
0.044266
0.047417
0.0505339
0.0536068
0.0566256
0.0595802
0.0624602
0.0652556
0.0679567
0.0705543
0.0730394
0.0754033
0.0776379
0.0797353
0.0816879
0.0834881
0.0851293
0.0866054
0.0879114
0.0890433
0.089998
0.0907724
0.0913641
0.0917712
0.0919931
0.092031
0.0918878
0.0915673
0.0910747
0.0904163
0.0896004
0.0886369
0.0875374
0.0863156
0.0849875
0.0835717
0.0820895
0.0805655
0.0790278
0.0775087
0.0760443
0.0746747
0.0734444
0.0724021
0.0715979
0.0710808
0.0708922
0.0709866
-8.38882e-05
5.79167e-05
-9.1821e-05
-0.00050004
-0.00112556
-0.00194262
-0.00291546
-0.00400742
-0.00518146
-0.00640421
-0.00764559
-0.00887792
-0.0100763
-0.0112197
-0.0122891
-0.0132677
-0.0141416
-0.0148979
-0.0155254
-0.0160153
-0.0163598
-0.0165536
-0.0165923
-0.0164721
-0.0161903
-0.0157455
-0.0151371
-0.0143657
-0.0134329
-0.0123407
-0.0110919
-0.00968948
-0.00813762
-0.00644128
-0.00460597
-0.00263738
-0.000541436
0.0016754
0.00400585
0.00644242
0.00897757
0.0116032
0.0143106
0.0170914
0.0199367
0.0228374
0.025784
0.0287668
0.0317764
0.0348036
0.0378389
0.0408718
0.0438918
0.046889
0.0498539
0.0527769
0.0556484
0.0584588
0.0611981
0.0638568
0.0664261
0.0688974
0.0712621
0.0735119
0.0756394
0.0776374
0.0794987
0.0812162
0.0827837
0.0841958
0.085448
0.0865368
0.0874595
0.0882135
0.0887967
0.0892076
0.0894461
0.0895138
0.0894136
0.0891497
0.0887272
0.0881528
0.0874345
0.0865823
0.0856075
0.0845233
0.0833449
0.0820902
0.0807794
0.0794356
0.0780846
0.0767556
0.0754803
0.0742932
0.0732311
0.0723325
0.071634
0.0711701
0.0709848
0.0710798
0.000142282
0.000312168
0.000183702
-0.000187149
-0.000752301
-0.00148706
-0.00236026
-0.0033397
-0.00439351
-0.00549272
-0.00661014
-0.00772048
-0.00880179
-0.00983368
-0.0107982
-0.0116798
-0.012465
-0.0131418
-0.0136999
-0.01413
-0.0144244
-0.0145774
-0.0145847
-0.0144429
-0.0141498
-0.0137033
-0.0131025
-0.0123474
-0.0114393
-0.0103802
-0.00917228
-0.0078187
-0.00632334
-0.00469085
-0.00292611
-0.0010343
0.000978829
0.00310709
0.00534377
0.00768175
0.0101138
0.0126321
0.0152284
0.0178949
0.0206231
0.023404
0.0262284
0.0290874
0.0319722
0.0348738
0.0377829
0.0406895
0.0435834
0.0464553
0.0492964
0.0520975
0.0548492
0.0575422
0.0601671
0.062715
0.0651775
0.0675463
0.0698133
0.0719708
0.0740118
0.0759296
0.0777173
0.0793681
0.0808761
0.0822365
0.0834454
0.0844998
0.0853969
0.0861345
0.0867106
0.0871242
0.0873756
0.0874666
0.0874003
0.0871807
0.086813
0.0863038
0.0856613
0.0848949
0.0840157
0.0830362
0.0819709
0.0808368
0.0796528
0.0784405
0.0772239
0.076029
0.074884
0.0738187
0.0728645
0.0720536
0.071416
0.0709805
0.0707961
0.0708897
0.000745606
0.000867578
0.000716094
0.000343244
-0.00020314
-0.000899228
-0.00171771
-0.00262838
-0.00360441
-0.00461964
-0.0056493
-0.00667189
-0.00766644
-0.0086145
-0.00949968
-0.010307
-0.0110234
-0.0116377
-0.0121403
-0.0125228
-0.0127777
-0.0128986
-0.0128812
-0.0127224
-0.0124199
-0.0119718
-0.0113772
-0.0106363
-0.00974957
-0.00871849
-0.00754536
-0.00623328
-0.00478594
-0.00320748
-0.00150249
0.000324114
0.0022669
0.00431998
0.00647702
0.00873124
0.0110755
0.0135024
0.0160043
0.0185737
0.0212022
0.0238812
0.0266018
0.0293556
0.0321343
0.0349293
0.0377314
0.0405306
0.0433174
0.0460833
0.0488197
0.0515176
0.054168
0.0567618
0.0592902
0.0617447
0.0641172
0.0663997
0.0685846
0.0706646
0.0726331
0.0744838
0.0762098
0.0778046
0.0792627
0.0805799
0.0817527
0.0827782
0.0836539
0.0843775
0.0849472
0.0853625
0.0856238
0.0857333
0.0856939
0.0855097
0.0851856
0.0847281
0.0841451
0.0834459
0.0826408
0.0817419
0.0807628
0.0797194
0.0786295
0.0775132
0.0763923
0.0752904
0.0742321
0.0732438
0.0723529
0.0715874
0.0709739
0.0705385
0.0703273
0.0703707
0.00166396
0.00167123
0.00145289
0.00104774
0.000492405
-0.000192855
-0.00098191
-0.00184957
-0.00277145
-0.00372442
-0.00468741
-0.00564024
-0.00656448
-0.00744358
-0.00826234
-0.00900724
-0.00966562
-0.0102268
-0.0106817
-0.0110225
-0.0112424
-0.0113355
-0.0112973
-0.0111246
-0.0108145
-0.0103656
-0.00977728
-0.00904954
-0.00818271
-0.00717794
-0.00603742
-0.00476411
-0.00336147
-0.00183326
-0.000183714
0.00158231
0.00345966
0.00544293
0.00752602
0.0097023
0.0119649
0.0143069
0.0167212
0.0192003
0.0217361
0.0243202
0.0269443
0.0296006
0.032281
0.034977
0.0376796
0.0403791
0.0430668
0.0457346
0.0483742
0.0509767
0.0535333
0.0560355
0.0584749
0.0608433
0.0631329
0.0653359
0.0674452
0.069454
0.0713561
0.0731452
0.0748144
0.0763577
0.07777
0.0790476
0.0801873
0.0811862
0.0820419
0.0827522
0.0833157
0.0837318
0.0840014
0.0841266
0.0841104
0.0839566
0.0836701
0.0832572
0.0827254
0.0820834
0.0813412
0.0805098
0.0796023
0.0786334
0.0776199
0.07658
0.0755333
0.074501
0.0735048
0.0725678
0.071714
0.0709678
0.0703528
0.0698923
0.0696217
0.0695635
0.0028303
0.00267763
0.00235952
0.00189644
0.00130691
0.000610118
-0.000172664
-0.00101901
-0.00190756
-0.00281847
-0.00373302
-0.00463323
-0.00550303
-0.00632708
-0.00709192
-0.00778521
-0.00839551
-0.00891264
-0.00932776
-0.00963359
-0.00982369
-0.00989276
-0.00983689
-0.00965257
-0.00933688
-0.00888842
-0.00830671
-0.00759156
-0.00674321
-0.00576282
-0.00465261
-0.00341532
-0.00205396
-0.000572031
0.00102633
0.0027365
0.00455362
0.00647255
0.00848744
0.0105918
0.0127792
0.015043
0.0173766
0.0197725
0.0222228
0.0247194
0.0272548
0.0298215
0.0324116
0.0350165
0.0376273
0.0402353
0.042832
0.0454099
0.0479608
0.0504757
0.0529464
0.0553648
0.0577229
0.0600127
0.0622264
0.064357
0.0663976
0.0683416
0.0701832
0.071916
0.0735335
0.0750298
0.0764005
0.0776422
0.0787518
0.0797263
0.0805635
0.0812612
0.0818184
0.0822346
0.0825108
0.0826491
0.0826522
0.0825239
0.0822689
0.0818933
0.0814043
0.0808101
0.0801197
0.0793434
0.0784934
0.0775837
0.0766295
0.0756476
0.0746554
0.0736714
0.072715
0.0718064
0.0709666
0.0702166
0.0695772
0.0690687
0.0687111
0.0685141
0.00418628
0.00384849
0.00340743
0.00286466
0.00222096
0.0014911
0.000694532
-0.000150058
-0.0010245
-0.00191171
-0.00279508
-0.00365907
-0.00448935
-0.00527239
-0.00599583
-0.00664837
-0.00722007
-0.00770161
-0.00808472
-0.00836227
-0.0085283
-0.00857804
-0.00850768
-0.00831386
-0.00799414
-0.00754725
-0.00697239
-0.00626916
-0.00543801
-0.00448022
-0.00339785
-0.00219347
-0.000869773
0.000569952
0.00212169
0.00378097
0.00554325
0.00740367
0.00935645
0.0113953
0.0135141
0.015707
0.0179672
0.0202873
0.0226596
0.0250767
0.0275316
0.0300171
0.0325251
0.035047
0.0375746
0.0400996
0.042614
0.0451105
0.0475809
0.0500166
0.0524097
0.0547526
0.0570373
0.0592561
0.0614016
0.063467
0.0654458
0.0673318
0.069119
0.0708011
0.072372
0.0738261
0.0751595
0.076369
0.0774515
0.0784041
0.0792242
0.0799103
0.0804611
0.0808767
0.0811578
0.0813063
0.0813248
0.081217
0.0809875
0.0806421
0.0801876
0.0796316
0.0789822
0.0782488
0.0774428
0.0765772
0.0756663
0.0747249
0.0737685
0.0728132
0.0718763
0.0709755
0.070129
0.0693547
0.0686707
0.0680947
0.0676291
0.0672689
0.0056814
0.0051441
0.00456564
0.00392829
0.00321316
0.00243332
0.00160585
0.000746041
-0.00013096
-0.00101053
-0.00187802
-0.00272018
-0.00352451
-0.004279
-0.00497245
-0.00559492
-0.00613719
-0.00659085
-0.00694859
-0.00720384
-0.00735112
-0.00738587
-0.00730425
-0.00710338
-0.00678128
-0.00633665
-0.00576864
-0.0050768
-0.0042617
-0.00332483
-0.00226807
-0.00109355
0.000196069
0.00159738
0.00310665
0.0047199
0.00643267
0.00824001
0.0101363
0.0121158
0.0141729
0.0163015
0.018495
0.0207463
0.0230482
0.0253935
0.0277759
0.0301879
0.0326216
0.0350685
0.037521
0.0399712
0.0424116
0.0448347
0.0472326
0.0495971
0.0519205
0.0541956
0.0564146
0.0585698
0.0606541
0.0626613
0.064585
0.0664192
0.0681577
0.0697945
0.0713237
0.0727402
0.0740404
0.0752211
0.0762794
0.0772122
0.0780169
0.078692
0.0792367
0.0796509
0.0799351
0.0800911
0.0801213
0.0800294
0.0798199
0.0794983
0.0790708
0.078544
0.0779254
0.0772237
0.0764494
0.0756146
0.0747324
0.073816
0.0728789
0.0719353
0.0710005
0.0700899
0.0692191
0.0684032
0.0676581
0.0669988
0.0664101
0.0658716
0.00727201
0.00652981
0.00580466
0.0050613
0.00426231
0.00341917
0.0025467
0.00165729
0.000763544
-0.000121869
-0.000987118
-0.00182037
-0.00261063
-0.00334761
-0.00402138
-0.00462321
-0.00514466
-0.00557802
-0.00591674
-0.00615513
-0.00628826
-0.00631173
-0.0062219
-0.00601646
-0.00569368
-0.00525198
-0.0046906
-0.00400965
-0.00320979
-0.00229215
-0.0012585
-0.000111072
0.00114755
0.00251424
0.00398537
0.00555712
0.00722515
0.00898464
0.0108302
0.0127564
0.0147578
0.0168286
0.0189621
0.0211514
0.0233899
0.025671
0.0279882
0.0303343
0.0327011
0.0350807
0.0374659
0.0398493
0.0422234
0.0445808
0.0469139
0.0492147
0.0514761
0.0536908
0.0558512
0.0579498
0.0599798
0.0619354
0.0638104
0.0655986
0.067294
0.0688905
0.0703828
0.0717661
0.073037
0.0741925
0.0752292
0.0761441
0.0769348
0.0775998
0.0781386
0.0785506
0.0788364
0.0789973
0.0790359
0.0789558
0.0787613
0.0784576
0.07805
0.0775443
0.0769473
0.076267
0.0755134
0.0746976
0.0738312
0.072926
0.0719938
0.0710473
0.0700996
0.0691644
0.0682547
0.0673829
0.0665632
0.0658087
0.0650864
0.0643616
0.00892262
0.00797436
0.00709685
0.00623984
0.00534807
0.00443079
0.00350178
0.00257087
0.00164864
0.000745383
-0.000129068
-0.000964616
-0.00175156
-0.00248091
-0.0031442
-0.00373368
-0.00424193
-0.00466191
-0.0049878
-0.00521466
-0.00533774
-0.00535317
-0.00525819
-0.00505046
-0.00472808
-0.00428991
-0.0037355
-0.00306497
-0.00227909
-0.00137906
-0.000366441
0.00075666
0.00198753
0.00332311
0.00476011
0.00629485
0.00792295
0.00963961
0.0114398
0.0133185
0.0152705
0.0172896
0.0193693
0.0215033
0.0236855
0.0259096
0.0281689
0.030456
0.0327631
0.0350829
0.0374086
0.0397327
0.042048
0.0443472
0.0466228
0.0488675
0.0510741
0.0532356
0.0553443
0.0573929
0.0593753
0.0612858
0.0631181
0.0648661
0.0665235
0.0680847
0.0695447
0.0708992
0.0721448
0.0732782
0.074296
0.0751949
0.075973
0.0766289
0.0771619
0.0775713
0.0778571
0.0780207
0.0780647
0.0779928
0.077809
0.0775177
0.0771234
0.0766313
0.0760474
0.0753796
0.0746368
0.0738293
0.0729673
0.0720612
0.0711215
0.0701592
0.0691861
0.0682137
0.0672529
0.0663137
0.0654089
0.0645503
0.0636879
0.0627734
0.010603
0.00944991
0.00841788
0.00744256
0.00645069
0.00545129
0.00445675
0.0034747
0.00251355
0.00158198
0.000688491
-0.000158847
-0.000951854
-0.00168255
-0.0023436
-0.00292809
-0.0034298
-0.00384262
-0.00416121
-0.00438117
-0.00449828
-0.00450905
-0.00441133
-0.00420314
-0.00388248
-0.00344835
-0.00290087
-0.00224046
-0.00146758
-0.000583287
0.000410605
0.00151181
0.00271784
0.00402592
0.00543288
0.00693488
0.00852752
0.0102063
0.0119667
0.0138036
0.0157118
0.017685
0.0197173
0.0218027
0.0239355
0.0261094
0.0283176
0.0305526
0.0328073
0.0350746
0.0373481
0.0396204
0.041884
0.0441321
0.0463576
0.0485534
0.0507123
0.0528273
0.0548909
0.0568962
0.0588375
0.0607091
0.0625047
0.0642177
0.0658423
0.0673731
0.0688056
0.0701357
0.0713597
0.072474
0.0734751
0.0743602
0.0751273
0.0757751
0.0763026
0.0767086
0.0769932
0.0771577
0.0772049
0.0771381
0.0769609
0.0766768
0.0762897
0.0758044
0.0752264
0.0745628
0.0738222
0.0730136
0.072146
0.0712285
0.0702704
0.0692817
0.0682723
0.0672522
0.0662303
0.0652143
0.0642166
0.0632475
0.0622414
0.0611367
0.012287
0.0109326
0.0097461
0.00864871
0.0075522
0.00646469
0.00539753
0.0043564
0.00334789
0.00237939
0.00145799
0.000590385
-0.000216678
-0.000956457
-0.00162258
-0.00220895
-0.00271006
-0.00312113
-0.00343744
-0.00365451
-0.003769
-0.00377846
-0.00368055
-0.00347316
-0.00315501
-0.00272575
-0.00218549
-0.00153447
-0.000773215
9.69666e-05
0.00107406
0.00215587
0.0033402
0.00462436
0.00600505
0.00747835
0.00904004
0.010686
0.0124119
0.0142125
0.0160822
0.0180154
0.0200064
0.0220499
0.02414
0.0262702
0.0284337
0.0306235
0.0328328
0.035055
0.0372834
0.0395108
0.0417297
0.0439338
0.0461164
0.0482703
0.0503884
0.0524634
0.0544884
0.056457
0.0583635
0.0602022
0.0619665
0.0636499
0.0652466
0.0667521
0.0681619
0.0694717
0.0706775
0.0717757
0.0727628
0.0736362
0.074394
0.0750347
0.0755569
0.0759593
0.0762417
0.0764058
0.0764541
0.0763896
0.0762151
0.0759336
0.0755484
0.0750638
0.0744852
0.0738191
0.073073
0.0722549
0.0713728
0.0704348
0.0694491
0.0684246
0.0673698
0.0662933
0.0652021
0.0641023
0.0630056
0.061922
0.0607706
0.0594771
0.0139526
0.0124017
0.0110612
0.00984051
0.00863603
0.00745535
0.00630998
0.00520362
0.00414102
0.00312834
0.00217167
0.00127652
0.000448207
-0.000307434
-0.000984616
-0.00157881
-0.00208535
-0.00249947
-0.00281721
-0.00303528
-0.00315081
-0.00316141
-0.00306493
-0.00285979
-0.00254534
-0.00212145
-0.00158817
-0.000945712
-0.000194927
0.000662631
0.00162494
0.00268999
0.00385572
0.00511933
0.00647737
0.00792601
0.00946133
0.0110794
0.0127758
0.0145451
0.016382
0.0182809
0.020237
0.0222448
0.0242985
0.0263913
0.0285166
0.0306679
0.0328389
0.0350229
0.0372132
0.0394024
0.0415836
0.0437509
0.0458975
0.0480162
0.0500998
0.0521413
0.0541343
0.0560727
0.0579506
0.0597622
0.0615005
0.0631594
0.0647336
0.0662188
0.0676104
0.0689038
0.0700949
0.0711799
0.0721558
0.0730198
0.0737699
0.0744045
0.0749218
0.0753204
0.0756003
0.0757629
0.0758106
0.0757457
0.0755705
0.0752874
0.0748995
0.0744106
0.0738258
0.073151
0.0723927
0.0715579
0.0706537
0.0696872
0.068666
0.0675976
0.0664899
0.0653497
0.0641827
0.0629935
0.0617936
0.0605928
0.0592955
0.0578159
0.0155811
0.0138384
0.0123457
0.0110012
0.00968661
0.00840944
0.00718092
0.00600401
0.00488207
0.00381952
0.00282118
0.00189204
0.0010368
0.00025972
-0.000434533
-0.00104167
-0.001558
-0.00197952
-0.00230273
-0.00252515
-0.00264445
-0.00265826
-0.00256483
-0.00236335
-0.00205353
-0.0016352
-0.00110842
-0.000473711
0.000267713
0.00111418
0.00206383
0.00311481
0.00426494
0.00551123
0.00685019
0.00827828
0.00979181
0.0113868
0.0130585
0.0148015
0.0166108
0.0184815
0.0204088
0.0223871
0.0244103
0.0264718
0.0285654
0.0306852
0.0328248
0.0349773
0.0371359
0.0392938
0.0414443
0.0435817
0.0456991
0.0477891
0.0498446
0.0518592
0.0538268
0.0557412
0.0575965
0.0593863
0.0611041
0.0627438
0.0643007
0.0657704
0.0671482
0.0684292
0.069609
0.070684
0.0716514
0.0725083
0.0732526
0.0738821
0.0743951
0.0747901
0.0750672
0.0752276
0.0752731
0.0752055
0.0750267
0.0747385
0.0743439
0.0738464
0.0732507
0.0725618
0.0717854
0.0709276
0.0699945
0.0689928
0.0679291
0.0668104
0.0656432
0.0644334
0.0631852
0.0619024
0.0605962
0.0592764
0.0578338
0.0561714
0.017156
0.0152263
0.013584
0.0121157
0.0106898
0.00931363
0.00799867
0.00674692
0.0055606
0.00444324
0.00339857
0.00243025
0.00154249
0.000739111
2.3224e-05
-0.000601525
-0.00113165
-0.00156406
-0.00189626
-0.00212607
-0.00225128
-0.00226995
-0.00218117
-0.00198463
-0.00168
-0.00126709
-0.000746242
-0.000118525
0.000614626
0.00145168
0.00239098
0.00343057
0.00456797
0.00580005
0.0071236
0.00853535
0.0100315
0.0116079
0.0132594
0.0149812
0.0167685
0.0186169
0.0205213
0.0224759
0.0244744
0.0265108
0.0285795
0.0306745
0.0327891
0.0349166
0.0370503
0.0391837
0.0413105
0.0434246
0.0455192
0.0475869
0.0496209
0.0516152
0.0535638
0.0554604
0.0572987
0.0590724
0.060775
0.0624011
0.0639459
0.0654048
0.066773
0.0680454
0.0692175
0.0702859
0.0712477
0.0720999
0.0728401
0.0734659
0.0739754
0.0743674
0.0746416
0.0747991
0.0748412
0.0747691
0.074584
0.0742879
0.0738833
0.0733736
0.0727627
0.0720551
0.0712554
0.070369
0.0694014
0.0683586
0.0672468
0.0660721
0.0648401
0.0635558
0.0622222
0.0608422
0.0594274
0.0579878
0.0564009
0.0545591
0.0186632
0.0165519
0.0147621
0.0131703
0.0116324
0.0101559
0.00875184
0.00742175
0.00616729
0.00499083
0.00389539
0.00288397
0.00195946
0.00112501
0.000383478
-0.000262371
-0.0008098
-0.00125654
-0.00160065
-0.00184007
-0.0019729
-0.00199812
-0.0019155
-0.00172473
-0.00142536
-0.00101753
-0.000502182
0.000119264
0.000845454
0.00167506
0.00260635
0.00363703
0.00476445
0.00598562
0.0072976
0.00869713
0.0101801
0.011742
0.0133781
0.0150838
0.0168549
0.0186866
0.0205736
0.02251
0.0244899
0.0265077
0.028558
0.0306345
0.0327306
0.0348395
0.036955
0.0390707
0.0411804
0.0432779
0.0453561
0.0474079
0.049427
0.0514077
0.0533437
0.0552284
0.0570553
0.0588184
0.0605115
0.0621292
0.063667
0.0651199
0.0664828
0.0677504
0.0689186
0.0699839
0.0709431
0.071793
0.072531
0.0731547
0.0736619
0.0740515
0.0743231
0.0744773
0.0745149
0.0744367
0.0742436
0.0739371
0.0735199
0.0729948
0.0723651
0.0716345
0.0708071
0.0698873
0.0688804
0.0677918
0.0666272
0.0653918
0.0640906
0.0627275
0.061305
0.0598252
0.0583002
0.0567403
0.0550105
0.0529927
0.0200909
0.017802
0.0158673
0.0141529
0.0125023
0.0109243
0.00942963
0.0080186
0.00669267
0.00545388
0.00430419
0.00324578
0.00228091
0.00141192
0.000641381
-2.8695e-05
-0.000596601
-0.00106056
-0.0014187
-0.0016694
-0.00181162
-0.00184509
-0.00176965
-0.00158483
-0.00129053
-0.000887576
-0.000377354
0.000238816
0.000959757
0.00178402
0.00270948
0.00373363
0.00485395
0.00606774
0.00737201
0.00876317
0.0102369
0.0117886
0.0134141
0.0151091
0.0168693
0.0186897
0.0205646
0.0224885
0.024456
0.0264615
0.0284996
0.030564
0.0326478
0.0347447
0.0368486
0.0389534
0.0410525
0.0431396
0.0452079
0.0472505
0.0492614
0.0512348
0.0531642
0.0550429
0.0568643
0.0586225
0.0603117
0.0619265
0.0634622
0.0649136
0.0662755
0.0675427
0.0687108
0.0697765
0.0707361
0.0715865
0.0723244
0.0729475
0.0734538
0.073842
0.0741114
0.0742622
0.0742947
0.0742093
0.0740065
0.073688
0.0732558
0.0727125
0.0720609
0.0713039
0.0704448
0.0694879
0.0684377
0.0672994
0.0660779
0.0647779
0.0634036
0.0619583
0.060444
0.0588623
0.0572259
0.0555456
0.0536741
0.0514836
0.0214282
0.0189653
0.0168879
0.015052
0.0132888
0.0116079
0.0100211
0.00852767
0.00712799
0.00582401
0.00461718
0.00350864
0.00250028
0.00159411
0.000791761
9.44634e-05
-0.000496557
-0.000979709
-0.00135347
-0.00161711
-0.00177048
-0.00181336
-0.00174537
-0.00156639
-0.0012771
-0.000878876
-0.000373046
0.000239303
0.000956871
0.00177775
0.00269949
0.00371971
0.00483615
0.00604611
0.00734628
0.0087327
0.010201
0.0117471
0.013367
0.0150565
0.016811
0.0186251
0.0204933
0.0224106
0.0243716
0.0263711
0.0284031
0.0304614
0.0325393
0.0346307
0.0367297
0.0388299
0.0409248
0.043008
0.0450728
0.0471128
0.0491221
0.0510946
0.0530236
0.0549021
0.0567238
0.0584829
0.0601738
0.061791
0.0633296
0.0647843
0.0661496
0.0674205
0.0685926
0.0696622
0.0706255
0.0714789
0.0722191
0.0728436
0.0733505
0.0737383
0.0740063
0.0741539
0.0741811
0.0740877
0.0738744
0.0735422
0.0730932
0.0725295
0.0718532
0.0710667
0.070173
0.0691757
0.0680791
0.0668877
0.065606
0.064238
0.0627872
0.0612568
0.0596483
0.0579631
0.0562144
0.0544137
0.0524018
0.0500412
0.0226654
0.0200321
0.0178138
0.0158572
0.0139817
0.0121973
0.0105169
0.00893952
0.00746453
0.00609314
0.00482651
0.00366559
0.00261147
0.00166565
0.000828921
0.000102035
-0.000513901
-0.00101766
-0.00140865
-0.00168697
-0.00185264
-0.00190523
-0.00184462
-0.00167155
-0.00138729
-0.000993222
-0.000490466
0.000119761
0.0008357
0.00165507
0.00257545
0.00359468
0.00471055
0.00592006
0.00721949
0.00860479
0.0100719
0.0116171
0.0132364
0.0149253
0.0166789
0.0184917
0.0203588
0.0222752
0.0242359
0.0262352
0.0282671
0.0303254
0.0324036
0.034496
0.0365965
0.0386986
0.0407956
0.0428812
0.0449491
0.0469932
0.0490073
0.0509851
0.0529197
0.054804
0.0566319
0.0583978
0.0600961
0.0617212
0.0632677
0.0647304
0.0661037
0.0673826
0.0685628
0.06964
0.0706102
0.0714695
0.0722144
0.0728424
0.0733518
0.0737408
0.0740082
0.0741532
0.0741751
0.0740735
0.0738488
0.0735019
0.0730346
0.0724485
0.0717454
0.0709271
0.0699963
0.0689561
0.0678103
0.066563
0.0652181
0.0637791
0.0622492
0.0606312
0.0589265
0.0571364
0.0552746
0.0533536
0.0512023
0.0486738
0.0237942
0.0209926
0.0186351
0.0165587
0.0145712
0.0126833
0.0109084
0.00924559
0.0076937
0.00625319
0.00492492
0.0037097
0.00260798
0.00162025
0.000747095
-1.087e-05
-0.00065295
-0.0011788
-0.00158865
-0.00188276
-0.00206097
-0.00212317
-0.00207008
-0.00190306
-0.00162343
-0.00123234
-0.000731055
-0.000121311
0.000594678
0.00141462
0.00233635
0.00335776
0.00447629
0.00568848
0.0069905
0.00837856
0.00984895
0.0113979
0.0130214
0.0147143
0.0164717
0.0182885
0.0201601
0.0220815
0.0240476
0.0260524
0.02809
0.0301544
0.0322394
0.0343392
0.0364475
0.0385576
0.040663
0.0427575
0.0448353
0.0468899
0.0489152
0.0509045
0.0528507
0.0547469
0.0565872
0.0583658
0.0600772
0.0617154
0.0632749
0.0647504
0.0661365
0.067428
0.0686204
0.0697091
0.0706896
0.0715576
0.07231
0.0729442
0.0734582
0.0738501
0.0741184
0.0742615
0.0742785
0.0741688
0.0739323
0.0735701
0.0730834
0.0724735
0.0717419
0.0708899
0.0699198
0.0688345
0.0676373
0.0663316
0.064921
0.0634085
0.0617971
0.0600894
0.0582869
0.0563905
0.0544152
0.0523736
0.0500835
0.0473887
0.0248059
0.0218385
0.0193429
0.0171471
0.015048
0.0130565
0.0111866
0.00943728
0.00780709
0.00629622
0.00490516
0.00363397
0.00248272
0.0014515
0.000540739
-0.00024933
-0.000918845
-0.00146825
-0.00189796
-0.00220809
-0.00239871
-0.0024706
-0.0024252
-0.00226393
-0.00198787
-0.00159824
-0.00109688
-0.00048609
0.000231847
0.0010549
0.00198099
0.00300765
0.00413183
0.00534982
0.00665804
0.00805309
0.00953132
0.0110887
0.0127207
0.0144222
0.0161884
0.0180146
0.0198963
0.0218284
0.0238054
0.0258214
0.0278706
0.0299472
0.0320454
0.0341587
0.036281
0.0384054
0.0405255
0.0426356
0.0447297
0.0468015
0.0488442
0.050851
0.052815
0.0547292
0.056588
0.0583854
0.0601156
0.0617724
0.0633501
0.0648435
0.0662472
0.067556
0.0687649
0.0698689
0.0708632
0.0717434
0.0725063
0.0731494
0.0736707
0.0740677
0.0743383
0.0744807
0.0744935
0.074376
0.074128
0.0737501
0.0732434
0.0726088
0.0718474
0.0709602
0.0699492
0.0688169
0.0675661
0.0662
0.0647214
0.0631334
0.0614385
0.0596394
0.0577375
0.0557337
0.0536439
0.0514816
0.0490531
0.0461929
0.0256926
0.0225614
0.0199288
0.017614
0.0154033
0.0133082
0.0113428
0.00950607
0.00779675
0.00621459
0.00475945
0.00343092
0.00222882
0.00115322
0.000204065
-0.000619195
-0.00131739
-0.00189118
-0.00234088
-0.00266682
-0.00286994
-0.00295175
-0.00291379
-0.00275723
-0.00248324
-0.00209363
-0.00159082
-0.000977223
-0.000254913
0.000574161
0.00150757
0.0025423
0.00367503
0.00490227
0.00622075
0.00762722
0.00911772
0.0106878
0.0123326
0.0140474
0.0158277
0.0176688
0.0195661
0.0215143
0.0235077
0.0255405
0.0276074
0.0297026
0.03182
0.033953
0.0360953
0.0382402
0.0403816
0.0425138
0.0446309
0.046726
0.0487922
0.0508227
0.0528107
0.0547494
0.0566328
0.0584551
0.0602098
0.0618906
0.0634919
0.0650084
0.0664349
0.0677658
0.0689956
0.0701189
0.0711308
0.0720268
0.0728038
0.0734591
0.0739903
0.0743947
0.0746695
0.0748126
0.0748225
0.0746981
0.0744391
0.0740458
0.0735188
0.0728589
0.0720668
0.0711432
0.0700899
0.0689089
0.0676029
0.0661745
0.0646264
0.0629609
0.0611808
0.0592886
0.0572858
0.0551736
0.0529684
0.0506848
0.0481178
0.0450928
0.0264471
0.0231532
0.0203848
0.0179515
0.0156289
0.0134296
0.0113684
0.00944394
0.00765477
0.00600037
0.00448
0.00309325
0.00183972
0.000719116
-0.000269356
-0.00112686
-0.00185441
-0.00245256
-0.00292195
-0.00326374
-0.00347959
-0.0035711
-0.00353956
-0.00338623
-0.00311291
-0.00272205
-0.00221617
-0.00159746
-0.000867928
-2.99331e-05
0.000913484
0.00195903
0.00310358
0.00434397
0.00567706
0.00709926
0.00860615
0.010193
0.0118553
0.0135885
0.0153882
0.0172497
0.0191679
0.0211375
0.0231528
0.0252084
0.027299
0.0294188
0.0315614
0.0337201
0.0358886
0.0380603
0.0402296
0.0423905
0.0445368
0.0466613
0.0487572
0.0508177
0.052836
0.0548055
0.05672
0.058573
0.0603579
0.0620683
0.0636988
0.0652441
0.0666986
0.0680564
0.0693116
0.0704586
0.0714921
0.072408
0.0732029
0.0738739
0.0744182
0.0748324
0.0751135
0.0752592
0.0752676
0.0751376
0.0748686
0.0744606
0.0739137
0.0732283
0.0724048
0.071444
0.0703472
0.0691163
0.0677538
0.0662617
0.0646424
0.0628979
0.0610309
0.0590441
0.0569391
0.0547171
0.0523957
0.0499899
0.0472838
0.0440937
0.0270626
0.0236063
0.0207026
0.018151
0.0157162
0.0134125
0.0112554
0.00924281
0.007373
0.00564544
0.00405931
0.00261393
0.00130856
0.000142202
-0.000886429
-0.00177863
-0.0025354
-0.00315762
-0.00364668
-0.00400448
-0.00423279
-0.00433297
-0.00430639
-0.00415494
-0.00388109
-0.00348741
-0.00297622
-0.00234962
-0.00161006
-0.000760547
0.000195524
0.00125503
0.00241519
0.00367297
0.00502486
0.00646679
0.00799409
0.0096022
0.0112868
0.0130437
0.0148682
0.0167552
0.0186995
0.0206958
0.0227388
0.0248232
0.0269436
0.029094
0.0312677
0.0334581
0.0356589
0.0378641
0.0400678
0.0422637
0.0444453
0.0466054
0.0487371
0.050834
0.0528892
0.0548959
0.0568475
0.0587371
0.0605581
0.0623041
0.0639696
0.0655493
0.0670371
0.0684268
0.0697122
0.0708874
0.0719472
0.0728873
0.0737043
0.0743947
0.0749551
0.0753819
0.0756718
0.0758223
0.0758314
0.0756977
0.0754201
0.0749983
0.074432
0.0737212
0.0728662
0.0718676
0.0707267
0.0694452
0.0680251
0.0664681
0.0647762
0.0629512
0.0609958
0.058913
0.0567044
0.0543714
0.0519324
0.0494033
0.0465571
0.0432009
0.0275326
0.0239133
0.0208739
0.0182043
0.0156575
0.0132491
0.0109955
0.00889422
0.00694328
0.00514211
0.00349
0.00198564
0.000627821
-0.00058491
-0.00165394
-0.00258061
-0.00336624
-0.00401246
-0.00452127
-0.00489472
-0.00513441
-0.0052418
-0.00521885
-0.0050681
-0.00479219
-0.0043935
-0.00387424
-0.00323701
-0.00248492
-0.00162137
-0.000649608
0.000427589
0.00160752
0.00288679
0.00426138
0.00572695
0.00727894
0.00891309
0.0106253
0.012411
0.0142654
0.0161831
0.0181588
0.0201875
0.022264
0.0243832
0.0265393
0.028726
0.0309367
0.0331649
0.0354047
0.0376499
0.0398943
0.0421315
0.0443545
0.0465563
0.0487303
0.0508701
0.0529687
0.0550189
0.0570136
0.0589459
0.060809
0.0625966
0.0643032
0.065923
0.0674496
0.0688764
0.0701969
0.0714052
0.0724963
0.0734654
0.0743088
0.0750225
0.0756026
0.0760451
0.0763467
0.0765046
0.0765169
0.0763817
0.0760974
0.0756631
0.0750782
0.0743425
0.0734561
0.0724198
0.0712345
0.0699019
0.0684235
0.0668006
0.0650347
0.0631278
0.0610827
0.0589025
0.0565889
0.0541435
0.0515854
0.0489315
0.0459436
0.0424199
0.0278502
0.0240671
0.0208912
0.0181035
0.0154449
0.0129312
0.0105804
0.00839
0.00635774
0.00448288
0.00276439
0.00120059
-0.000210141
-0.00146933
-0.00257844
-0.00353918
-0.00435354
-0.00502369
-0.00555181
-0.00593979
-0.00618936
-0.0063026
-0.00628211
-0.00613057
-0.00585042
-0.00544399
-0.00491396
-0.00426365
-0.0034966
-0.00261609
-0.00162499
-0.000526028
0.000677713
0.00198228
0.00338337
0.00487675
0.00645814
0.00812343
0.00986833
0.011688
0.0135773
0.0155308
0.0175434
0.0196104
0.0217265
0.0238863
0.0260838
0.0283127
0.0305665
0.0328391
0.0351243
0.037416
0.0397073
0.0419918
0.0442624
0.0465124
0.0487353
0.0509245
0.0530729
0.0551728
0.0572168
0.0591979
0.0611094
0.062945
0.0646988
0.0663645
0.0679355
0.0694048
0.0707657
0.0720126
0.0731401
0.0741432
0.0750175
0.0757586
0.0763621
0.0768239
0.0771406
0.0773093
0.0773277
0.0771934
0.0769044
0.0764592
0.0758569
0.0750972
0.0741801
0.0731064
0.071877
0.0704931
0.0689556
0.0672657
0.0654248
0.0634348
0.0612988
0.05902
0.0566
0.0540405
0.0513615
0.048581
0.0454495
0.0417562
0.0280083
0.0240607
0.0207476
0.017841
0.0150699
0.0124506
0.0100022
0.00772235
0.00560854
0.00365976
0.00187446
0.000250918
-0.00121269
-0.00251798
-0.00366679
-0.00466139
-0.00550429
-0.00619782
-0.00674407
-0.00714507
-0.00740315
-0.00752102
-0.00750146
-0.00734695
-0.00705989
-0.00664307
-0.0060999
-0.00543413
-0.00464924
-0.00374816
-0.00273372
-0.00160903
-0.000377751
0.000955829
0.0023875
0.00391332
0.00552914
0.00723066
0.00901324
0.0108718
0.0128011
0.0147959
0.0168513
0.0189625
0.021124
0.0233301
0.0255748
0.027852
0.0301554
0.0324787
0.034816
0.0371603
0.0395048
0.0418428
0.0441675
0.0464723
0.0487508
0.050996
0.0532004
0.0553562
0.0574558
0.0594922
0.0614586
0.0633486
0.0651556
0.0668733
0.0684943
0.0700117
0.071419
0.0727101
0.0738795
0.0749217
0.0758317
0.0766045
0.0772356
0.0777208
0.0780564
0.0782395
0.0782671
0.0781365
0.077845
0.0773907
0.0767726
0.0759902
0.0750437
0.0739336
0.0726604
0.0712248
0.0696277
0.06787
0.0659531
0.0638792
0.0616512
0.0592725
0.0567446
0.0540691
0.0512672
0.0483579
0.0450807
0.0412152
0.0279994
0.0238866
0.0204354
0.0174087
0.0145244
0.0117992
0.00925284
0.00688325
0.00468755
0.00266439
0.000812139
-0.000871093
-0.00238722
-0.00373821
-0.00492646
-0.00595463
-0.00682538
-0.00754105
-0.00810391
-0.00851654
-0.00878189
-0.00890285
-0.00888203
-0.00872189
-0.00842528
-0.00799572
-0.00743707
-0.00675303
-0.00594675
-0.00502113
-0.00397943
-0.00282534
-0.00156287
-0.000196265
0.00127055
0.00283374
0.00448901
0.00623166
0.00805679
0.00995927
0.011934
0.0139758
0.0160799
0.0182411
0.0204537
0.0227119
0.0250099
0.0273417
0.0297011
0.0320818
0.0344773
0.0368805
0.0392845
0.0416825
0.044068
0.0464345
0.0487752
0.0510829
0.0533498
0.0555678
0.0577295
0.0598278
0.0618558
0.0638066
0.0656733
0.0674488
0.0691259
0.0706975
0.072157
0.0734983
0.0747153
0.0758019
0.0767526
0.0775619
0.0782252
0.0787382
0.0790969
0.0792982
0.0793385
0.0792144
0.078923
0.0784619
0.0778301
0.077027
0.0760527
0.0749071
0.0735906
0.0721035
0.0704463
0.0686202
0.0666267
0.064468
0.062147
0.0596669
0.0570294
0.054236
0.0513091
0.0482689
0.0448434
0.0408026
0.027816
0.0235369
0.0199466
0.0167988