/*--------------------------------*- C++ -*----------------------------------*\
  =========                 |
  \\      /  F ield         | OpenFOAM: The Open Source CFD Toolbox
   \\    /   O peration     | Website:  https://openfoam.org
    \\  /    A nd           | Version:  11
     \\/     M anipulation  |
\*---------------------------------------------------------------------------*/
FoamFile
{
    format      ascii;
    class       volVectorField;
    location    "5.5";
    object      U;
}
// * * * * * * * * * * * * * * * * * * * * * * * * * * * * * * * * * * * * * //

dimensions      [0 1 -1 0 0 0 0];

internalField   nonuniform List<vector> 
10100
(
(3.17282e-06 -2.64224e-06 0)
(1.36485e-05 -5.63864e-06 0)
(2.84749e-05 -5.6877e-06 0)
(4.09528e-05 -4.5535e-06 0)
(4.77984e-05 -2.61705e-06 0)
(4.73173e-05 -1.6765e-07 0)
(3.83458e-05 2.58207e-06 0)
(2.02697e-05 5.44379e-06 0)
(-7.12871e-06 8.30518e-06 0)
(-4.3727e-05 1.10797e-05 0)
(-8.92901e-05 1.37557e-05 0)
(-0.000143426 1.62657e-05 0)
(-0.000205635 1.86173e-05 0)
(-0.000275374 2.07982e-05 0)
(-0.000352103 2.27902e-05 0)
(-0.000435177 2.46085e-05 0)
(-0.000523996 2.62404e-05 0)
(-0.000617964 2.76705e-05 0)
(-0.000716409 2.89138e-05 0)
(-0.000818734 2.99857e-05 0)
(-0.000924335 3.08776e-05 0)
(-0.00103259 3.15923e-05 0)
(-0.0011429 3.21345e-05 0)
(-0.0012547 3.24947e-05 0)
(-0.00136742 3.26797e-05 0)
(-0.00148051 3.27094e-05 0)
(-0.00159344 3.25985e-05 0)
(-0.00170571 3.23483e-05 0)
(-0.00181681 3.19563e-05 0)
(-0.00192628 3.14261e-05 0)
(-0.00203365 3.07622e-05 0)
(-0.00213848 2.99708e-05 0)
(-0.00224037 2.90582e-05 0)
(-0.00233891 2.803e-05 0)
(-0.00243372 2.68954e-05 0)
(-0.00252444 2.56626e-05 0)
(-0.00261074 2.43353e-05 0)
(-0.00269231 2.29149e-05 0)
(-0.00276883 2.14095e-05 0)
(-0.00284006 1.98316e-05 0)
(-0.00290571 1.81852e-05 0)
(-0.00296558 1.64728e-05 0)
(-0.00301944 1.4702e-05 0)
(-0.00306711 1.28784e-05 0)
(-0.00310841 1.10077e-05 0)
(-0.00314319 9.09788e-06 0)
(-0.00317133 7.15446e-06 0)
(-0.00319272 5.18383e-06 0)
(-0.00320728 3.19487e-06 0)
(-0.00321494 1.19194e-06 0)
(-0.00321566 -8.23923e-07 0)
(-0.00320943 -2.84599e-06 0)
(-0.00319624 -4.86319e-06 0)
(-0.00317612 -6.86649e-06 0)
(-0.00314913 -8.84792e-06 0)
(-0.00311535 -1.08006e-05 0)
(-0.00307487 -1.27223e-05 0)
(-0.00302783 -1.46105e-05 0)
(-0.00297435 -1.64563e-05 0)
(-0.00291462 -1.82472e-05 0)
(-0.00284883 -1.99743e-05 0)
(-0.00277721 -2.16316e-05 0)
(-0.00270001 -2.32131e-05 0)
(-0.00261751 -2.47131e-05 0)
(-0.00253 -2.61257e-05 0)
(-0.0024378 -2.74433e-05 0)
(-0.00234126 -2.86563e-05 0)
(-0.00224075 -2.97556e-05 0)
(-0.00213668 -3.07341e-05 0)
(-0.00202948 -3.15854e-05 0)
(-0.00191959 -3.23031e-05 0)
(-0.00180749 -3.28811e-05 0)
(-0.00169366 -3.33148e-05 0)
(-0.00157861 -3.35989e-05 0)
(-0.00146288 -3.37254e-05 0)
(-0.00134702 -3.36842e-05 0)
(-0.00123161 -3.34672e-05 0)
(-0.00111724 -3.30692e-05 0)
(-0.00100453 -3.24865e-05 0)
(-0.000894101 -3.17151e-05 0)
(-0.000786595 -3.07513e-05 0)
(-0.000682649 -2.95924e-05 0)
(-0.000582908 -2.82361e-05 0)
(-0.000488022 -2.66792e-05 0)
(-0.000398641 -2.49189e-05 0)
(-0.000315416 -2.29535e-05 0)
(-0.000238988 -2.07834e-05 0)
(-0.00016998 -1.84111e-05 0)
(-0.000108987 -1.58419e-05 0)
(-5.65567e-05 -1.30873e-05 0)
(-1.31732e-05 -1.01671e-05 0)
(2.07726e-05 -7.11015e-06 0)
(4.50187e-05 -3.95921e-06 0)
(5.94881e-05 -7.79968e-07 0)
(6.43802e-05 2.31764e-06 0)
(6.03209e-05 5.13987e-06 0)
(4.85671e-05 7.35189e-06 0)
(3.14418e-05 8.35465e-06 0)
(1.36352e-05 7.11727e-06 0)
(2.68292e-06 2.68109e-06 0)
(8.8858e-06 -1.4547e-05 0)
(3.14591e-05 -2.67694e-05 0)
(5.86751e-05 -2.5088e-05 0)
(7.73285e-05 -1.67525e-05 0)
(8.0259e-05 -4.13151e-06 0)
(6.35283e-05 1.13331e-05 0)
(2.43176e-05 2.85339e-05 0)
(-3.89735e-05 4.6486e-05 0)
(-0.000126985 6.46124e-05 0)
(-0.000239715 8.24222e-05 0)
(-0.000376615 9.95993e-05 0)
(-0.000536741 0.000115972 0)
(-0.000718918 0.000131336 0)
(-0.000921815 0.000145625 0)
(-0.00114386 0.00015876 0)
(-0.00138347 0.000170719 0)
(-0.00163902 0.000181447 0)
(-0.00190876 0.000190953 0)
(-0.002191 0.000199226 0)
(-0.00248404 0.000206275 0)
(-0.00278615 0.000212126 0)
(-0.00309566 0.000216796 0)
(-0.00341091 0.000220313 0)
(-0.00373026 0.000222691 0)
(-0.00405214 0.00022396 0)
(-0.00437502 0.00022416 0)
(-0.00469738 0.000223331 0)
(-0.00501778 0.000221513 0)
(-0.00533482 0.000218736 0)
(-0.00564717 0.000215035 0)
(-0.00595351 0.000210449 0)
(-0.00625262 0.000205013 0)
(-0.0065433 0.000198764 0)
(-0.00682443 0.000191743 0)
(-0.00709494 0.000183998 0)
(-0.0073538 0.000175569 0)
(-0.00760006 0.00016649 0)
(-0.00783281 0.000156801 0)
(-0.00805123 0.000146546 0)
(-0.00825452 0.000135768 0)
(-0.00844195 0.000124512 0)
(-0.00861286 0.000112814 0)
(-0.00876666 0.000100716 0)
(-0.00890277 8.82584e-05 0)
(-0.00902073 7.5483e-05 0)
(-0.0091201 6.24304e-05 0)
(-0.00920052 4.91452e-05 0)
(-0.00926168 3.5674e-05 0)
(-0.00930335 2.20602e-05 0)
(-0.00932533 8.34283e-06 0)
(-0.00932751 -5.4385e-06 0)
(-0.00930986 -1.92389e-05 0)
(-0.00927238 -3.30072e-05 0)
(-0.00921515 -4.66911e-05 0)
(-0.00913832 -6.02419e-05 0)
(-0.00904211 -7.36155e-05 0)
(-0.00892681 -8.67706e-05 0)
(-0.00879277 -9.96633e-05 0)
(-0.00864043 -0.000112242 0)
(-0.00847027 -0.00012445 0)
(-0.00828286 -0.000136235 0)
(-0.00807885 -0.000147547 0)
(-0.00785895 -0.000158338 0)
(-0.00762396 -0.000168561 0)
(-0.00737471 -0.000178169 0)
(-0.00711215 -0.000187114 0)
(-0.00683727 -0.00019534 0)
(-0.00655115 -0.000202796 0)
(-0.00625493 -0.000209429 0)
(-0.00594982 -0.000215193 0)
(-0.00563709 -0.000220043 0)
(-0.00531808 -0.000223941 0)
(-0.00499419 -0.000226846 0)
(-0.00466689 -0.000228721 0)
(-0.00433768 -0.000229519 0)
(-0.00400814 -0.000229195 0)
(-0.00367989 -0.000227707 0)
(-0.00335459 -0.000225022 0)
(-0.00303394 -0.000221115 0)
(-0.0027197 -0.000215966 0)
(-0.0024136 -0.00020956 0)
(-0.00211744 -0.000201885 0)
(-0.00183298 -0.000192934 0)
(-0.00156201 -0.000182703 0)
(-0.00130629 -0.000171197 0)
(-0.00106755 -0.00015843 0)
(-0.000847465 -0.000144434 0)
(-0.000647639 -0.000129261 0)
(-0.00046956 -0.000112988 0)
(-0.00031456 -9.57313e-05 0)
(-0.000183754 -7.76519e-05 0)
(-7.79672e-05 -5.89785e-05 0)
(2.37056e-06 -4.00326e-05 0)
(5.73723e-05 -2.12764e-05 0)
(8.79097e-05 -3.3911e-06 0)
(9.59108e-05 1.25945e-05 0)
(8.46913e-05 2.51194e-05 0)
(5.94915e-05 3.18126e-05 0)
(2.92107e-05 2.9201e-05 0)
(7.11559e-06 1.36303e-05 0)
(1.08679e-05 -3.48829e-05 0)
(3.63586e-05 -5.73614e-05 0)
(6.30556e-05 -4.85774e-05 0)
(7.38158e-05 -2.38841e-05 0)
(5.92879e-05 1.13823e-05 0)
(1.41477e-05 5.39274e-05 0)
(-6.54779e-05 0.000100796 0)
(-0.000181873 0.000149951 0)
(-0.000336012 0.000199641 0)
(-0.000527976 0.000248704 0)
(-0.000757002 0.00029629 0)
(-0.00102183 0.000341729 0)
(-0.00132075 0.000384578 0)
(-0.00165171 0.000424522 0)
(-0.00201248 0.000461348 0)
(-0.00240061 0.000494879 0)
(-0.00281357 0.000525062 0)
(-0.00324874 0.000551821 0)
(-0.00370346 0.000575133 0)
(-0.00417505 0.000595024 0)
(-0.00466087 0.000611511 0)
(-0.00515826 0.000624654 0)
(-0.00566463 0.000634524 0)
(-0.0061774 0.000641181 0)
(-0.00669407 0.000644702 0)
(-0.0072122 0.000645185 0)
(-0.00772941 0.000642722 0)
(-0.00824339 0.000637409 0)
(-0.00875194 0.000629351 0)
(-0.00925289 0.000618653 0)
(-0.00974418 0.000605421 0)
(-0.0102238 0.000589761 0)
(-0.01069 0.000571783 0)
(-0.0111408 0.0005516 0)
(-0.0115745 0.000529329 0)
(-0.0119896 0.000505089 0)
(-0.0123845 0.000478988 0)
(-0.0127578 0.000451138 0)
(-0.013108 0.000421662 0)
(-0.0134341 0.000390682 0)
(-0.0137346 0.00035831 0)
(-0.0140088 0.000324668 0)
(-0.0142554 0.000289873 0)
(-0.0144737 0.000254044 0)
(-0.0146629 0.000217299 0)
(-0.0148223 0.00017976 0)
(-0.0149513 0.00014155 0)
(-0.0150494 0.000102795 0)
(-0.0151163 6.36264e-05 0)
(-0.0151516 2.41619e-05 0)
(-0.0151551 -1.54757e-05 0)
(-0.0151269 -5.51526e-05 0)
(-0.0150669 -9.47314e-05 0)
(-0.0149752 -0.000134075 0)
(-0.0148521 -0.000173046 0)
(-0.014698 -0.00021151 0)
(-0.0145132 -0.000249336 0)
(-0.0142985 -0.000286386 0)
(-0.0140544 -0.000322517 0)
(-0.0137818 -0.000357581 0)
(-0.0134816 -0.00039143 0)
(-0.0131548 -0.000423921 0)
(-0.0128026 -0.000454911 0)
(-0.0124262 -0.000484259 0)
(-0.012027 -0.000511826 0)
(-0.0116065 -0.000537468 0)
(-0.0111664 -0.00056104 0)
(-0.0107082 -0.000582399 0)
(-0.0102339 -0.000601403 0)
(-0.00974543 -0.000617917 0)
(-0.00924475 -0.000631813 0)
(-0.00873403 -0.000642971 0)
(-0.00821549 -0.000651274 0)
(-0.00769149 -0.000656611 0)
(-0.00716442 -0.000658865 0)
(-0.00663678 -0.000657926 0)
(-0.00611113 -0.000653692 0)
(-0.0055901 -0.000646079 0)
(-0.00507636 -0.000635017 0)
(-0.00457264 -0.000620453 0)
(-0.0040817 -0.000602352 0)
(-0.0036063 -0.00058069 0)
(-0.00314922 -0.000555464 0)
(-0.00271321 -0.000526689 0)
(-0.00230097 -0.000494408 0)
(-0.00191513 -0.0004587 0)
(-0.00155822 -0.000419689 0)
(-0.00123261 -0.000377563 0)
(-0.000940471 -0.000332587 0)
(-0.000683711 -0.000285126 0)
(-0.000463868 -0.00023568 0)
(-0.000282012 -0.000184929 0)
(-0.000138592 -0.000133805 0)
(-3.3235e-05 -8.35928e-05 0)
(3.55103e-05 -3.60832e-05 0)
(7.05156e-05 6.20755e-06 0)
(7.6391e-05 3.97497e-05 0)
(5.99344e-05 5.96729e-05 0)
(3.19331e-05 5.95028e-05 0)
(8.3705e-06 3.1443e-05 0)
(9.62318e-06 -5.5118e-05 0)
(2.95318e-05 -8.40833e-05 0)
(4.3704e-05 -6.18237e-05 0)
(3.40568e-05 -1.22452e-05 0)
(-9.72215e-06 5.57969e-05 0)
(-9.39814e-05 0.000136354 0)
(-0.00022312 0.00022474 0)
(-0.000399781 0.000317164 0)
(-0.000625272 0.000410785 0)
(-0.000899576 0.000503417 0)
(-0.00122193 0.000593442 0)
(-0.00159075 0.000679625 0)
(-0.00200389 0.000761105 0)
(-0.00245887 0.0008372 0)
(-0.00295279 0.000907459 0)
(-0.00348255 0.000971558 0)
(-0.00404488 0.00102929 0)
(-0.0046364 0.00108054 0)
(-0.00525365 0.00112523 0)
(-0.00589312 0.00116338 0)
(-0.00655131 0.001195 0)
(-0.00722472 0.0012202 0)
(-0.00790992 0.00123906 0)
(-0.00860351 0.00125174 0)
(-0.00930214 0.00125837 0)
(-0.0100026 0.00125912 0)
(-0.0107016 0.00125416 0)
(-0.0113962 0.00124367 0)
(-0.0120833 0.00122786 0)
(-0.0127601 0.00120691 0)
(-0.0134238 0.00118105 0)
(-0.0140717 0.00115046 0)
(-0.0147014 0.00111537 0)
(-0.0153103 0.00107599 0)
(-0.0158962 0.00103255 0)
(-0.0164568 0.000985263 0)
(-0.0169901 0.00093435 0)
(-0.0174942 0.000880041 0)
(-0.0179673 0.00082256 0)
(-0.0184075 0.000762135 0)
(-0.0188135 0.000698995 0)
(-0.0191836 0.000633372 0)
(-0.0195167 0.000565499 0)
(-0.0198115 0.000495608 0)
(-0.0200669 0.00042393 0)
(-0.0202821 0.000350703 0)
(-0.0204562 0.000276172 0)
(-0.0205886 0.000200579 0)
(-0.0206788 0.000124168 0)
(-0.0207263 4.71866e-05 0)
(-0.0207311 -3.0118e-05 0)
(-0.0206928 -0.000107491 0)
(-0.0206117 -0.000184668 0)
(-0.0204878 -0.000261382 0)
(-0.0203215 -0.000337371 0)
(-0.0201133 -0.000412371 0)
(-0.0198638 -0.000486116 0)
(-0.0195738 -0.00055833 0)
(-0.0192443 -0.000628737 0)
(-0.0188762 -0.000697056 0)
(-0.018471 -0.000763006 0)
(-0.0180299 -0.000826306 0)
(-0.0175545 -0.000886675 0)
(-0.0170465 -0.000943837 0)
(-0.0165078 -0.000997512 0)
(-0.0159403 -0.00104743 0)
(-0.0153464 -0.0010933 0)
(-0.0147282 -0.00113487 0)
(-0.0140883 -0.00117186 0)
(-0.0134291 -0.001204 0)
(-0.0127535 -0.00123106 0)
(-0.0120644 -0.0012528 0)
(-0.0113647 -0.00126898 0)
(-0.0106575 -0.0012794 0)
(-0.00994609 -0.00128384 0)
(-0.00923377 -0.0012821 0)
(-0.00852396 -0.00127401 0)
(-0.00782015 -0.00125942 0)
(-0.00712589 -0.00123821 0)
(-0.00644479 -0.00121028 0)
(-0.00578047 -0.00117556 0)
(-0.00513659 -0.00113404 0)
(-0.00451677 -0.00108573 0)
(-0.0039246 -0.00103069 0)
(-0.0033636 -0.000969046 0)
(-0.00283714 -0.000900983 0)
(-0.00234846 -0.000826791 0)
(-0.00190056 -0.000746876 0)
(-0.00149616 -0.00066179 0)
(-0.00113759 -0.000572279 0)
(-0.000826706 -0.000479335 0)
(-0.000564747 -0.000384279 0)
(-0.000352155 -0.000288871 0)
(-0.00018837 -0.000195468 0)
(-7.15686e-05 -0.000107232 0)
(1.65769e-06 -2.84208e-05 0)
(3.65864e-05 3.52561e-05 0)
(4.07533e-05 7.6279e-05 0)
(2.55479e-05 8.49697e-05 0)
(7.42762e-06 4.86795e-05 0)
(6.87703e-06 -6.93985e-05 0)
(1.58195e-05 -9.67549e-05 0)
(8.74257e-06 -5.3273e-05 0)
(-3.0769e-05 2.96683e-05 0)
(-0.000113224 0.000139348 0)
(-0.000245183 0.000267398 0)
(-0.000431294 0.000406955 0)
(-0.000674434 0.00055261 0)
(-0.000975819 0.000700144 0)
(-0.00133556 0.000846297 0)
(-0.00175265 0.00098852 0)
(-0.0022253 0.00112497 0)
(-0.00275108 0.00125414 0)
(-0.00332703 0.001375 0)
(-0.00394979 0.00148675 0)
(-0.0046157 0.00158883 0)
(-0.00532086 0.00168087 0)
(-0.00606124 0.00176263 0)
(-0.00683268 0.00183398 0)
(-0.00763097 0.00189489 0)
(-0.00845187 0.0019454 0)
(-0.00929115 0.00198562 0)
(-0.0101446 0.00201567 0)
(-0.0110081 0.00203577 0)
(-0.0118775 0.00204614 0)
(-0.0127489 0.00204703 0)
(-0.0136183 0.0020387 0)
(-0.014482 0.00202145 0)
(-0.0153363 0.00199559 0)
(-0.0161777 0.00196143 0)
(-0.0170027 0.00191929 0)
(-0.017808 0.00186951 0)
(-0.0185905 0.00181244 0)
(-0.0193472 0.00174841 0)
(-0.0200752 0.00167779 0)
(-0.0207718 0.00160093 0)
(-0.0214345 0.00151819 0)
(-0.0220608 0.00142993 0)
(-0.0226485 0.00133652 0)
(-0.0231954 0.00123832 0)
(-0.0236997 0.00113572 0)
(-0.0241595 0.00102908 0)
(-0.0245732 0.000918773 0)
(-0.0249392 0.000805191 0)
(-0.0252564 0.00068871 0)
(-0.0255236 0.000569715 0)
(-0.0257398 0.000448601 0)
(-0.0259041 0.000325768 0)
(-0.0260159 0.000201611 0)
(-0.0260748 7.65299e-05 0)
(-0.0260805 -4.90659e-05 0)
(-0.0260328 -0.000174758 0)
(-0.0259318 -0.000300123 0)
(-0.0257777 -0.000424733 0)
(-0.025571 -0.000548158 0)
(-0.0253122 -0.000669967 0)
(-0.0250022 -0.000789721 0)
(-0.0246419 -0.000906977 0)
(-0.0242325 -0.00102128 0)
(-0.0237754 -0.00113219 0)
(-0.023272 -0.00123924 0)
(-0.0227242 -0.00134198 0)
(-0.0221338 -0.00143996 0)
(-0.021503 -0.00153272 0)
(-0.020834 -0.00161982 0)
(-0.0201294 -0.00170081 0)
(-0.0193919 -0.00177524 0)
(-0.0186243 -0.00184268 0)
(-0.0178296 -0.00190271 0)
(-0.0170111 -0.0019549 0)
(-0.0161722 -0.00199886 0)
(-0.0153163 -0.0020342 0)
(-0.0144471 -0.00206057 0)
(-0.0135686 -0.00207762 0)
(-0.0126846 -0.00208502 0)
(-0.0117993 -0.00208247 0)
(-0.0109167 -0.00206972 0)
(-0.0100413 -0.00204653 0)
(-0.00917721 -0.00201273 0)
(-0.00832898 -0.00196817 0)
(-0.00750097 -0.00191278 0)
(-0.00669758 -0.00184654 0)
(-0.0059232 -0.0017695 0)
(-0.00518215 -0.00168181 0)
(-0.00447861 -0.0015837 0)
(-0.00381664 -0.00147554 0)
(-0.00320004 -0.00135782 0)
(-0.00263235 -0.00123126 0)
(-0.00211674 -0.00109678 0)
(-0.0016559 -0.000955604 0)
(-0.00125195 -0.000809353 0)
(-0.000906275 -0.000660112 0)
(-0.000619363 -0.000510608 0)
(-0.000390593 -0.000364393 0)
(-0.000217995 -0.000226105 0)
(-9.79786e-05 -0.000101796 0)
(-2.507e-05 6.62155e-07 0)
(8.43299e-06 7.11758e-05 0)
(1.35429e-05 9.69452e-05 0)
(5.32206e-06 6.07641e-05 0)
(3.54164e-06 -7.50631e-05 0)
(-1.4601e-06 -8.93612e-05 0)
(-3.53219e-05 -1.52871e-05 0)
(-0.000111547 0.000109859 0)
(-0.000239498 0.000270046 0)
(-0.000425726 0.000454388 0)
(-0.000674796 0.000653953 0)
(-0.00098934 0.000861677 0)
(-0.00137061 0.00107192 0)
(-0.00181846 0.00128024 0)
(-0.00233178 0.00148321 0)
(-0.00290852 0.00167809 0)
(-0.00354592 0.00186286 0)
(-0.00424068 0.00203594 0)
(-0.00498901 0.00219616 0)
(-0.00578676 0.00234269 0)
(-0.00662951 0.00247489 0)
(-0.00751264 0.00259241 0)
(-0.00843142 0.00269501 0)
(-0.00938099 0.0027826 0)
(-0.0103565 0.00285522 0)
(-0.011353 0.00291297 0)
(-0.0123656 0.00295605 0)
(-0.0133896 0.0029847 0)
(-0.0144202 0.00299923 0)
(-0.0154527 0.00299999 0)
(-0.0164827 0.00298735 0)
(-0.0175055 0.00296173 0)
(-0.018517 0.00292355 0)
(-0.019513 0.00287328 0)
(-0.0204894 0.00281138 0)
(-0.0214425 0.00273832 0)
(-0.0223685 0.00265461 0)
(-0.0232638 0.00256074 0)
(-0.0241251 0.00245723 0)
(-0.0249492 0.0023446 0)
(-0.0257331 0.00222336 0)
(-0.026474 0.00209406 0)
(-0.027169 0.00195721 0)
(-0.0278159 0.00181336 0)
(-0.0284122 0.00166306 0)
(-0.0289559 0.00150685 0)
(-0.0294451 0.00134528 0)
(-0.0298779 0.00117891 0)
(-0.0302528 0.0010083 0)
(-0.0305686 0.000834015 0)
(-0.030824 0.000656635 0)
(-0.0310182 0.000476739 0)
(-0.0311502 0.000294913 0)
(-0.0312196 0.000111746 0)
(-0.0312261 -7.216e-05 0)
(-0.0311695 -0.000256193 0)
(-0.0310499 -0.000439736 0)
(-0.0308675 -0.000622164 0)
(-0.0306229 -0.000802848 0)
(-0.0303168 -0.000981152 0)
(-0.0299501 -0.00115643 0)
(-0.0295239 -0.00132804 0)
(-0.0290398 -0.00149531 0)
(-0.0284992 -0.0016576 0)
(-0.0279039 -0.00181424 0)
(-0.0272562 -0.00196457 0)
(-0.0265581 -0.00210792 0)
(-0.0258122 -0.00224364 0)
(-0.0250213 -0.00237107 0)
(-0.0241882 -0.00248956 0)
(-0.0233162 -0.00259848 0)
(-0.0224086 -0.00269718 0)
(-0.0214689 -0.00278506 0)
(-0.0205009 -0.00286152 0)
(-0.0195086 -0.00292597 0)
(-0.0184962 -0.00297787 0)
(-0.0174679 -0.00301671 0)
(-0.0164283 -0.00304198 0)
(-0.0153819 -0.00305323 0)
(-0.0143336 -0.00305004 0)
(-0.0132881 -0.00303206 0)
(-0.0122506 -0.00299897 0)
(-0.0112259 -0.00295053 0)
(-0.0102192 -0.00288658 0)
(-0.00923557 -0.00280702 0)
(-0.00828015 -0.00271186 0)
(-0.00735795 -0.00260122 0)
(-0.00647392 -0.00247534 0)
(-0.00563286 -0.00233461 0)
(-0.00483938 -0.00217961 0)
(-0.00409779 -0.00201113 0)
(-0.0034121 -0.00183023 0)
(-0.00278586 -0.00163829 0)
(-0.0022221 -0.00143711 0)
(-0.0017232 -0.00122899 0)
(-0.00129072 -0.00101689 0)
(-0.000925266 -0.000804572 0)
(-0.000626307 -0.000596842 0)
(-0.000391944 -0.000399826 0)
(-0.000218703 -0.000221334 0)
(-0.000101282 -7.12922e-05 0)
(-3.2261e-05 3.78237e-05 0)
(-1.74543e-06 9.04034e-05 0)
(2.64848e-06 6.5484e-05 0)
(6.82091e-08 -7.1055e-05 0)
(-2.03536e-05 -5.86264e-05 0)
(-8.45334e-05 5.68645e-05 0)
(-0.000201817 0.000233833 0)
(-0.000380159 0.000453524 0)
(-0.000625509 0.000702668 0)
(-0.000941968 0.00097056 0)
(-0.0013319 0.00124841 0)
(-0.00179617 0.00152924 0)
(-0.00233449 0.00180743 0)
(-0.00294539 0.00207854 0)
(-0.0036266 0.00233905 0)
(-0.00437505 0.00258625 0)
(-0.00518706 0.002818 0)
(-0.00605846 0.00303273 0)
(-0.00698466 0.00322923 0)
(-0.0079608 0.00340666 0)
(-0.00898175 0.00356444 0)
(-0.0100422 0.00370221 0)
(-0.0111368 0.00381982 0)
(-0.0122601 0.00391726 0)
(-0.0134066 0.00399464 0)
(-0.0145708 0.00405218 0)
(-0.0157473 0.00409021 0)
(-0.0169308 0.00410911 0)
(-0.018116 0.0041093 0)
(-0.0192977 0.00409131 0)
(-0.020471 0.00405566 0)
(-0.021631 0.00400293 0)
(-0.022773 0.00393372 0)
(-0.0238923 0.00384866 0)
(-0.0249846 0.0037484 0)
(-0.0260458 0.0036336 0)
(-0.0270717 0.00350494 0)
(-0.0280585 0.00336312 0)
(-0.0290026 0.00320883 0)
(-0.0299005 0.0030428 0)
(-0.030749 0.00286573 0)
(-0.0315451 0.00267836 0)
(-0.0322859 0.00248142 0)
(-0.0329687 0.00227566 0)
(-0.0335913 0.00206182 0)
(-0.0341513 0.00184065 0)
(-0.0346467 0.00161292 0)
(-0.035076 0.0013794 0)
(-0.0354374 0.00114087 0)
(-0.0357297 0.000898107 0)
(-0.0359517 0.000651913 0)
(-0.0361028 0.000403087 0)
(-0.0361821 0.000152443 0)
(-0.0361893 -9.91942e-05 0)
(-0.0361243 -0.00035099 0)
(-0.0359872 -0.0006021 0)
(-0.0357782 -0.000851673 0)
(-0.035498 -0.00109885 0)
(-0.0351474 -0.00134275 0)
(-0.0347275 -0.0015825 0)
(-0.0342395 -0.00181721 0)
(-0.0336851 -0.00204598 0)
(-0.0330662 -0.00226793 0)
(-0.0323847 -0.00248215 0)
(-0.031643 -0.00268773 0)
(-0.0308438 -0.00288378 0)
(-0.0299898 -0.00306939 0)
(-0.0290842 -0.00324368 0)
(-0.0281304 -0.00340577 0)
(-0.0271318 -0.00355479 0)
(-0.0260924 -0.00368988 0)
(-0.0250162 -0.00381021 0)
(-0.0239075 -0.00391498 0)
(-0.0227707 -0.00400341 0)
(-0.0216107 -0.00407476 0)
(-0.0204322 -0.00412833 0)
(-0.0192403 -0.00416347 0)
(-0.0180403 -0.00417958 0)
(-0.0168376 -0.00417612 0)
(-0.0156376 -0.00415261 0)
(-0.014446 -0.00410865 0)
(-0.0132684 -0.00404396 0)
(-0.0121105 -0.00395833 0)
(-0.0109781 -0.00385167 0)
(-0.00987677 -0.00372404 0)
(-0.00881226 -0.00357562 0)
(-0.00779003 -0.0034068 0)
(-0.00681544 -0.00321816 0)
(-0.00589356 -0.00301053 0)
(-0.00502921 -0.00278503 0)
(-0.00422678 -0.00254312 0)
(-0.0034902 -0.00228671 0)
(-0.00282284 -0.00201822 0)
(-0.00222733 -0.00174071 0)
(-0.0017055 -0.00145802 0)
(-0.00125816 -0.001175 0)
(-0.000885002 -0.000897705 0)
(-0.000584401 -0.000633703 0)
(-0.000353245 -0.000392462 0)
(-0.000186705 -0.000185784 0)
(-7.79873e-05 -2.82495e-05 0)
(-1.88264e-05 6.21708e-05 0)
(-2.71263e-07 6.16658e-05 0)
(-3.36956e-06 -5.69623e-05 0)
(-3.98829e-05 -2.71997e-06 0)
(-0.000136158 0.000166167 0)
(-0.000297355 0.000405327 0)
(-0.000529284 0.000693683 0)
(-0.000837111 0.00101622 0)
(-0.00122425 0.00136035 0)
(-0.00169247 0.00171591 0)
(-0.00224225 0.00207453 0)
(-0.00287284 0.00242949 0)
(-0.0035825 0.00277535 0)
(-0.0043686 0.00310778 0)
(-0.00522773 0.00342335 0)
(-0.00615585 0.00371938 0)
(-0.00714841 0.0039938 0)
(-0.00820044 0.00424505 0)
(-0.0093066 0.00447199 0)
(-0.0104613 0.00467384 0)
(-0.0116589 0.0048501 0)
(-0.0128933 0.0050005 0)
(-0.0141587 0.00512498 0)
(-0.015449 0.00522366 0)
(-0.0167583 0.00529678 0)
(-0.0180805 0.00534472 0)
(-0.0194099 0.00536792 0)
(-0.0207405 0.00536696 0)
(-0.0220667 0.00534245 0)
(-0.0233829 0.00529505 0)
(-0.0246839 0.00522551 0)
(-0.0259642 0.00513458 0)
(-0.027219 0.00502307 0)
(-0.0284432 0.0048918 0)
(-0.0296322 0.00474165 0)
(-0.0307816 0.00457347 0)
(-0.0318871 0.00438816 0)
(-0.0329445 0.00418664 0)
(-0.0339502 0.00396983 0)
(-0.0349004 0.00373865 0)
(-0.0357918 0.00349406 0)
(-0.0366211 0.003237 0)
(-0.0373856 0.00296846 0)
(-0.0380825 0.00268939 0)
(-0.0387094 0.00240078 0)
(-0.0392639 0.00210363 0)
(-0.0397443 0.00179894 0)
(-0.0401488 0.00148772 0)
(-0.0404758 0.00117101 0)
(-0.0407243 0.000849834 0)
(-0.0408932 0.000525244 0)
(-0.0409818 0.000198299 0)
(-0.0409898 -0.000129922 0)
(-0.0409169 -0.000458332 0)
(-0.0407633 -0.000785832 0)
(-0.0405294 -0.00111131 0)
(-0.0402157 -0.00143364 0)
(-0.0398232 -0.0017517 0)
(-0.0393532 -0.00206433 0)
(-0.038807 -0.00237037 0)
(-0.0381865 -0.00266868 0)
(-0.0374937 -0.00295808 0)
(-0.0367309 -0.0032374 0)
(-0.0359008 -0.00350547 0)
(-0.0350062 -0.00376112 0)
(-0.0340503 -0.00400318 0)
(-0.0330365 -0.00423052 0)
(-0.0319686 -0.00444198 0)
(-0.0308506 -0.00463644 0)
(-0.0296867 -0.00481281 0)
(-0.0284814 -0.00497001 0)
(-0.0272394 -0.00510701 0)
(-0.0259658 -0.00522281 0)
(-0.0246658 -0.00531647 0)
(-0.0233448 -0.00538709 0)
(-0.0220083 -0.00543383 0)
(-0.0206623 -0.00545595 0)
(-0.0193125 -0.00545276 0)
(-0.0179651 -0.00542368 0)
(-0.0166262 -0.00536824 0)
(-0.0153022 -0.00528606 0)
(-0.0139991 -0.00517693 0)
(-0.0127235 -0.00504077 0)
(-0.0114814 -0.00487768 0)
(-0.010279 -0.00468798 0)
(-0.00912246 -0.00447219 0)
(-0.00801748 -0.00423112 0)
(-0.00696966 -0.00396588 0)
(-0.0059842 -0.00367795 0)
(-0.00506593 -0.00336925 0)
(-0.00421914 -0.00304224 0)
(-0.00344753 -0.0027 0)
(-0.00275406 -0.00234635 0)
(-0.00214085 -0.00198608 0)
(-0.00160906 -0.00162508 0)
(-0.00115872 -0.0012706 0)
(-0.000788648 -0.000931584 0)
(-0.000496297 -0.000619016 0)
(-0.000277543 -0.000346351 0)
(-0.000126472 -0.000129946 0)
(-3.67617e-05 1.0354e-05 0)
(-3.26039e-06 4.87237e-05 0)
(-6.68921e-06 -3.27615e-05 0)
(-5.94074e-05 7.92155e-05 0)
(-0.000188697 0.000314318 0)
(-0.000395277 0.000626534 0)
(-0.000682768 0.00099322 0)
(-0.00105526 0.00139766 0)
(-0.0015153 0.00182593 0)
(-0.00206391 0.00226642 0)
(-0.00270096 0.00270963 0)
(-0.00342525 0.00314773 0)
(-0.00423458 0.00357433 0)
(-0.00512591 0.0039843 0)
(-0.00609548 0.00437353 0)
(-0.00713886 0.00473872 0)
(-0.00825111 0.00507735 0)
(-0.00942686 0.00538745 0)
(-0.0106604 0.00566759 0)
(-0.0119456 0.00591674 0)
(-0.0132765 0.00613423 0)
(-0.0146465 0.0063197 0)
(-0.0160493 0.00647301 0)
(-0.0174784 0.00659426 0)
(-0.0189273 0.00668372 0)
(-0.0203895 0.0067418 0)
(-0.0218587 0.00676906 0)
(-0.0233285 0.00676616 0)
(-0.0247928 0.00673383 0)
(-0.0262456 0.0066729 0)
(-0.0276809 0.00658425 0)
(-0.0290932 0.00646883 0)
(-0.0304768 0.00632764 0)
(-0.0318265 0.00616169 0)
(-0.0331371 0.00597204 0)
(-0.0344038 0.00575979 0)
(-0.0356219 0.00552605 0)
(-0.0367869 0.00527196 0)
(-0.0378947 0.00499866 0)
(-0.0389413 0.00470733 0)
(-0.0399231 0.00439915 0)
(-0.0408364 0.00407532 0)
(-0.0416782 0.00373705 0)
(-0.0424456 0.00338556 0)
(-0.0431357 0.00302209 0)
(-0.0437463 0.00264789 0)
(-0.0442751 0.00226423 0)
(-0.0447203 0.00187237 0)
(-0.0450803 0.00147362 0)
(-0.0453537 0.00106927 0)
(-0.0455396 0.000660643 0)
(-0.0456372 0.000249077 0)
(-0.0456459 -0.000164076 0)
(-0.0455657 -0.000577448 0)
(-0.0453966 -0.000989659 0)
(-0.0451391 -0.00139931 0)
(-0.0447939 -0.00180499 0)
(-0.0443619 -0.00220527 0)
(-0.0438446 -0.00259872 0)
(-0.0432434 -0.00298389 0)
(-0.0425605 -0.00335931 0)
(-0.0417979 -0.00372353 0)
(-0.0409582 -0.00407508 0)
(-0.0400444 -0.0044125 0)
(-0.0390595 -0.00473431 0)
(-0.0380071 -0.00503908 0)
(-0.0368909 -0.00532535 0)
(-0.0357149 -0.00559171 0)
(-0.0344835 -0.00583676 0)
(-0.0332014 -0.00605912 0)
(-0.0318735 -0.00625747 0)
(-0.0305049 -0.00643052 0)
(-0.0291011 -0.00657703 0)
(-0.0276678 -0.00669585 0)
(-0.0262108 -0.00678585 0)
(-0.0247363 -0.00684603 0)
(-0.0232505 -0.00687546 0)
(-0.0217599 -0.00687331 0)
(-0.0202711 -0.00683889 0)
(-0.0187907 -0.00677162 0)
(-0.0173256 -0.00667109 0)
(-0.0158824 -0.00653706 0)
(-0.0144681 -0.00636947 0)
(-0.0130893 -0.0061685 0)
(-0.0117527 -0.00593457 0)
(-0.0104649 -0.00566839 0)
(-0.00923199 -0.00537101 0)
(-0.00806008 -0.00504385 0)
(-0.00695478 -0.00468878 0)
(-0.00592131 -0.0043082 0)
(-0.00496434 -0.00390513 0)
(-0.00408793 -0.00348333 0)
(-0.00329542 -0.00304741 0)
(-0.00258931 -0.00260304 0)
(-0.00197118 -0.00215714 0)
(-0.00144153 -0.00171811 0)
(-0.000999765 -0.00129613 0)
(-0.000644057 -0.000903543 0)
(-0.000371158 -0.000555214 0)
(-0.000176202 -0.00026895 0)
(-5.49713e-05 -6.60157e-05 0)
(-6.22427e-06 2.6447e-05 0)
(-9.87621e-06 1.43967e-06 0)
(-7.86404e-05 0.000187329 0)
(-0.000241134 0.000502025 0)
(-0.000493738 0.000898754 0)
(-0.000837809 0.00135362 0)
(-0.00127626 0.00184876 0)
(-0.00181058 0.00236899 0)
(-0.00244093 0.00290157 0)
(-0.00316648 0.00343588 0)
(-0.00398543 0.00396311 0)
(-0.00489508 0.00447604 0)
(-0.00589191 0.0049687 0)
(-0.00697172 0.00543631 0)
(-0.00812968 0.00587503 0)
(-0.00936047 0.00628182 0)
(-0.0106583 0.00665433 0)
(-0.012017 0.00699081 0)
(-0.0134302 0.00728998 0)
(-0.0148913 0.007551 0)
(-0.0163934 0.00777336 0)
(-0.0179297 0.00795688 0)
(-0.0194934 0.00810163 0)
(-0.0210773 0.00820789 0)
(-0.0226746 0.0082761 0)
(-0.0242786 0.00830693 0)
(-0.0258824 0.00830113 0)
(-0.0274794 0.00825956 0)
(-0.0290632 0.00818321 0)
(-0.0306274 0.00807314 0)
(-0.0321659 0.00793046 0)
(-0.0336728 0.00775638 0)
(-0.0351424 0.00755212 0)
(-0.0365691 0.00731897 0)
(-0.0379478 0.00705824 0)
(-0.0392732 0.00677129 0)
(-0.0405408 0.0064595 0)
(-0.041746 0.00612426 0)
(-0.0428844 0.00576699 0)
(-0.0439521 0.00538915 0)
(-0.0449454 0.0049922 0)
(-0.0458608 0.0045776 0)
(-0.0466951 0.00414686 0)
(-0.0474455 0.00370148 0)
(-0.0481093 0.003243 0)
(-0.0486842 0.00277296 0)
(-0.0491682 0.00229293 0)
(-0.0495596 0.00180447 0)
(-0.0498569 0.00130918 0)
(-0.050059 0.000808689 0)
(-0.0501652 0.000304621 0)
(-0.0501748 -0.000201369 0)
(-0.0500877 -0.000707609 0)
(-0.0499041 -0.00121241 0)
(-0.0496244 -0.00171407 0)
(-0.0492493 -0.00221085 0)
(-0.04878 -0.00270102 0)
(-0.0482179 -0.00318282 0)
(-0.0475647 -0.00365449 0)
(-0.0468225 -0.00411424 0)
(-0.0459937 -0.0045603 0)
(-0.0450812 -0.00499087 0)
(-0.0440879 -0.00540418 0)
(-0.0430173 -0.00579843 0)
(-0.0418731 -0.00617187 0)
(-0.0406593 -0.00652275 0)
(-0.0393805 -0.00684933 0)
(-0.0380411 -0.00714992 0)
(-0.0366463 -0.00742286 0)
(-0.0352014 -0.00766653 0)
(-0.0337118 -0.0078794 0)
(-0.0321835 -0.00805996 0)
(-0.0306225 -0.0082068 0)
(-0.0290352 -0.00831861 0)
(-0.0274281 -0.00839416 0)
(-0.025808 -0.00843235 0)
(-0.0241818 -0.0084322 0)
(-0.0225566 -0.0083929 0)
(-0.0209394 -0.00831378 0)
(-0.0193376 -0.00819437 0)
(-0.0177585 -0.00803441 0)
(-0.0162092 -0.00783388 0)
(-0.0146971 -0.00759304 0)
(-0.0132291 -0.00731244 0)
(-0.0118124 -0.00699297 0)
(-0.0104535 -0.00663595 0)
(-0.00915897 -0.00624311 0)
(-0.00793477 -0.00581673 0)
(-0.00678654 -0.00535971 0)
(-0.00571937 -0.00487563 0)
(-0.00473773 -0.00436893 0)
(-0.00384538 -0.00384498 0)
(-0.00304527 -0.00331033 0)
(-0.00233948 -0.00277285 0)
(-0.0017291 -0.00224199 0)
(-0.00121422 -0.00172907 0)
(-0.000793854 -0.00124759 0)
(-0.000465751 -0.000813613 0)
(-0.000226189 -0.000446085 0)
(-7.3101e-05 -0.000167294 0)
(-9.11327e-06 -5.15236e-06 0)
(-1.28945e-05 4.53551e-05 0)
(-9.742e-05 0.000321417 0)
(-0.000292854 0.00072944 0)
(-0.000591554 0.00122239 0)
(-0.000992581 0.00177567 0)
(-0.00149755 0.00237046 0)
(-0.00210688 0.00299058 0)
(-0.00281976 0.00362233 0)
(-0.00363455 0.00425414 0)
(-0.00454877 0.00487632 0)
(-0.00555912 0.00548081 0)
(-0.00666158 0.00606096 0)
(-0.00785145 0.00661132 0)
(-0.00912346 0.00712749 0)
(-0.0104718 0.00760596 0)
(-0.0118904 0.008044 0)
(-0.0133726 0.00843954 0)
(-0.0149117 0.00879103 0)
(-0.0165005 0.00909745 0)
(-0.0181319 0.00935819 0)
(-0.0197986 0.00957296 0)
(-0.0214932 0.00974181 0)
(-0.0232084 0.00986502 0)
(-0.0249369 0.00994312 0)
(-0.0266714 0.00997682 0)
(-0.0284047 0.00996699 0)
(-0.0301299 0.00991464 0)
(-0.03184 0.0098209 0)
(-0.0335283 0.009687 0)
(-0.0351883 0.00951429 0)
(-0.0368137 0.00930413 0)
(-0.0383984 0.009058 0)
(-0.0399365 0.00877741 0)
(-0.0414224 0.00846392 0)
(-0.0428508 0.00811913 0)
(-0.0442166 0.00774468 0)
(-0.0455149 0.00734223 0)
(-0.0467411 0.00691349 0)
(-0.0478911 0.00646017 0)
(-0.0489608 0.00598401 0)
(-0.0499465 0.00548678 0)
(-0.0508449 0.00497026 0)
(-0.0516529 0.00443626 0)
(-0.0523676 0.00388661 0)
(-0.0529866 0.00332316 0)
(-0.0535077 0.00274776 0)
(-0.0539291 0.00216231 0)
(-0.0542493 0.00156871 0)
(-0.0544671 0.000968909 0)
(-0.0545816 0.000364849 0)
(-0.0545922 -0.000241491 0)
(-0.0544988 -0.000848114 0)
(-0.0543016 -0.001453 0)
(-0.0540008 -0.00205411 0)
(-0.0535975 -0.00264938 0)
(-0.0530928 -0.00323673 0)
(-0.0524882 -0.00381406 0)
(-0.0517855 -0.00437927 0)
(-0.050987 -0.00493024 0)
(-0.0500953 -0.00546484 0)
(-0.0491133 -0.00598094 0)
(-0.0480442 -0.00647641 0)
(-0.0468918 -0.00694914 0)
(-0.0456601 -0.00739702 0)
(-0.0443532 -0.00781796 0)
(-0.0429759 -0.00820993 0)
(-0.0415333 -0.00857089 0)
(-0.0400305 -0.00889889 0)
(-0.0384734 -0.00919201 0)
(-0.0368677 -0.00944841 0)
(-0.0352197 -0.00966635 0)
(-0.0335359 -0.00984414 0)