/*--------------------------------*- C++ -*----------------------------------*\
  =========                 |
  \\      /  F ield         | OpenFOAM: The Open Source CFD Toolbox
   \\    /   O peration     | Website:  https://openfoam.org
    \\  /    A nd           | Version:  11
     \\/     M anipulation  |
\*---------------------------------------------------------------------------*/
FoamFile
{
    format      ascii;
    class       surfaceScalarField;
    location    "3.3";
    object      phi;
}
// * * * * * * * * * * * * * * * * * * * * * * * * * * * * * * * * * * * * * //

dimensions      [0 3 -1 0 0 0 0];

internalField   nonuniform List<scalar> 
19980
(
6.59362e-07
-6.5909e-07
1.80243e-06
-1.14322e-06
2.59184e-06
-7.89354e-07
2.81702e-06
-2.25167e-07
2.42355e-06
3.93537e-07
1.36078e-06
1.0627e-06
-4.03581e-07
1.76451e-06
-2.89032e-06
2.48667e-06
-6.10735e-06
3.2171e-06
-1.00464e-05
3.9389e-06
-1.46865e-05
4.64028e-06
-1.9998e-05
5.31145e-06
-2.59458e-05
5.94778e-06
-3.24868e-05
6.54084e-06
-3.95764e-05
7.08965e-06
-4.71642e-05
7.58766e-06
-5.51977e-05
8.0337e-06
-6.36258e-05
8.42827e-06
-7.23955e-05
8.76965e-06
-8.14535e-05
9.05803e-06
-9.07484e-05
9.29485e-06
-0.000100227
9.47855e-06
-0.000109839
9.61193e-06
-0.000119536
9.69747e-06
-0.00012927
9.73373e-06
-0.000138993
9.72333e-06
-0.000148663
9.66929e-06
-0.000158234
9.57136e-06
-0.000167667
9.43286e-06
-0.000176925
9.25769e-06
-0.00018597
9.04542e-06
-0.000194767
8.79723e-06
-0.000203284
8.51637e-06
-0.000211489
8.20526e-06
-0.000219353
7.86411e-06
-0.000226848
7.49447e-06
-0.000233948
7.09999e-06
-0.000240629
6.68146e-06
-0.000246868
6.23934e-06
-0.000252644
5.77611e-06
-0.000257938
5.29403e-06
-0.000262733
4.79465e-06
-0.000267012
4.27888e-06
-0.00027076
3.74813e-06
-0.000273965
3.20513e-06
-0.000276617
2.65204e-06
-0.000278707
2.08991e-06
-0.000280227
1.51995e-06
-0.000281171
9.44276e-07
-0.000281536
3.64732e-07
-0.000281318
-2.17719e-07
-0.000280517
-8.01609e-07
-0.000279132
-1.38471e-06
-0.000277167
-1.96511e-06
-0.000274626
-2.5409e-06
-0.000271516
-3.10995e-06
-0.000267845
-3.67063e-06
-0.000263624
-4.2212e-06
-0.000258865
-4.75917e-06
-0.000253582
-5.28248e-06
-0.000247792
-5.79012e-06
-0.000241512
-6.28072e-06
-0.00023476
-6.75177e-06
-0.000227559
-7.20053e-06
-0.000219934
-7.62495e-06
-0.000211911
-8.02342e-06
-0.000203517
-8.39416e-06
-0.000194782
-8.73469e-06
-0.00018574
-9.04182e-06
-0.000176428
-9.31263e-06
-0.000166882
-9.54538e-06
-0.000157144
-9.73868e-06
-0.000147253
-9.8903e-06
-0.000137256
-9.99749e-06
-0.000127198
-1.00582e-05
-0.000117127
-1.00712e-05
-0.000107091
-1.00352e-05
-9.71428e-05
-9.94866e-06
-8.73332e-05
-9.8095e-06
-7.77175e-05
-9.61569e-06
-6.83522e-05
-9.36532e-06
-5.9295e-05
-9.05716e-06
-5.0604e-05
-8.69098e-06
-4.2337e-05
-8.26699e-06
-3.45519e-05
-7.78501e-06
-2.73074e-05
-7.24448e-06
-2.06617e-05
-6.64563e-06
-1.46714e-05
-5.99031e-06
-9.3894e-06
-5.28201e-06
-4.86403e-06
-4.52535e-06
-1.13848e-06
-3.72557e-06
1.75116e-06
-2.88968e-06
3.77983e-06
-2.02871e-06
4.93992e-06
-1.16007e-06
5.25161e-06
-3.11657e-07
4.77884e-06
4.72762e-07
3.65475e-06
1.12411e-06
2.12804e-06
1.52673e-06
6.57465e-07
1.47058e-06
6.57482e-07
1.74525e-06
-2.4044e-06
4.09937e-06
-3.49709e-06
5.55326e-06
-2.24338e-06
5.60822e-06
-2.80216e-07
3.95081e-06
2.051e-06
3.84304e-07
4.62925e-06
-5.21736e-06
7.36596e-06
-1.29063e-05
1.01757e-05
-2.26882e-05
1.29989e-05
-3.45226e-05
1.57734e-05
-4.83423e-05
1.84599e-05
-6.40546e-05
2.10238e-05
-8.1544e-05
2.34372e-05
-0.000100687
2.56844e-05
-0.000121348
2.77502e-05
-0.000143384
2.96239e-05
-0.000166652
3.1301e-05
-0.000191001
3.27767e-05
-0.000216281
3.40499e-05
-0.000242347
3.51245e-05
-0.000269051
3.59986e-05
-0.000296248
3.66759e-05
-0.0003238
3.7164e-05
-0.000351569
3.7466e-05
-0.000379421
3.75855e-05
-0.000407228
3.75305e-05
-0.000434866
3.73074e-05
-0.000462216
3.69214e-05
-0.000489164
3.63812e-05
-0.000515602
3.56952e-05
-0.000541425
3.48686e-05
-0.000566536
3.39083e-05
-0.000590842
3.28224e-05
-0.000614254
3.16173e-05
-0.000636689
3.02993e-05
-0.000658069
2.88747e-05
-0.00067832
2.7351e-05
-0.000697373
2.57343e-05
-0.000715164
2.40304e-05
-0.000731635
2.22468e-05
-0.000746731
2.03904e-05
-0.000760403
1.84668e-05
-0.000772606
1.64817e-05
-0.0007833
1.44418e-05
-0.000792449
1.23544e-05
-0.000800023
1.02259e-05
-0.000805996
8.0626e-06
-0.000810347
5.87087e-06
-0.000813059
3.65705e-06
-0.000814122
1.42748e-06
-0.000813528
-8.1186e-07
-0.000811274
-3.05513e-06
-0.000807364
-5.2953e-06
-0.000801804
-7.5244e-06
-0.00079461
-9.7352e-06
-0.000785799
-1.19211e-05
-0.000775394
-1.4075e-05
-0.000763427
-1.61886e-05
-0.000749932
-1.82543e-05
-0.000734949
-2.02653e-05
-0.000718524
-2.22151e-05
-0.000700708
-2.40963e-05
-0.00068156
-2.59004e-05
-0.000661141
-2.7619e-05
-0.000639522
-2.92442e-05
-0.000616777
-3.07682e-05
-0.000592989
-3.21829e-05
-0.000568244
-3.34797e-05
-0.000542636
-3.46492e-05
-0.000516266
-3.56826e-05
-0.00048924
-3.65717e-05
-0.00046167
-3.73092e-05
-0.000433673
-3.78872e-05
-0.000405372
-3.82979e-05
-0.000376897
-3.85338e-05
-0.000348379
-3.85886e-05
-0.000319958
-3.84567e-05
-0.000291774
-3.81323e-05
-0.000263975
-3.76087e-05
-0.000236711
-3.68796e-05
-0.000210136
-3.59399e-05
-0.000184407
-3.47865e-05
-0.00015968
-3.34178e-05
-0.000136114
-3.18333e-05
-0.000113866
-3.00331e-05
-9.3091e-05
-2.8019e-05
-7.39416e-05
-2.5795e-05
-5.65624e-05
-2.33695e-05
-4.10893e-05
-2.07551e-05
-2.76447e-05
-1.797e-05
-1.63321e-05
-1.50382e-05
-7.22862e-06
-1.19931e-05
-3.74729e-07
-8.88259e-06
4.24127e-06
-5.7761e-06
6.70521e-06
-2.77561e-06
7.20885e-06
-3.08447e-08
6.09395e-06
2.23901e-06
3.90747e-06
3.71316e-06
1.46636e-06
3.91163e-06
2.12383e-06
2.15365e-06
-4.55799e-06
4.7669e-06
-6.11037e-06
5.91068e-06
-3.38691e-06
4.85709e-06
7.73238e-07
1.13554e-06
5.77254e-06
-5.5919e-06
1.13566e-05
-1.55226e-05
1.72967e-05
-2.87475e-05
2.34007e-05
-4.5265e-05
2.95162e-05
-6.5016e-05
3.55244e-05
-8.78828e-05
4.13266e-05
-0.000113716
4.68565e-05
-0.000142336
5.20578e-05
-0.000173543
5.68913e-05
-0.000207122
6.13288e-05
-0.000242849
6.53513e-05
-0.000280491
6.89434e-05
-0.000319819
7.21042e-05
-0.000360597
7.4828e-05
-0.00040259
7.71171e-05
-0.000445569
7.89783e-05
-0.00048931
8.04169e-05
-0.000533589
8.14431e-05
-0.000578191
8.20676e-05
-0.000622907
8.23013e-05
-0.000667534
8.21576e-05
-0.000711876
8.16494e-05
-0.000755745
8.0791e-05
-0.000798963
7.95983e-05
-0.000841354
7.80868e-05
-0.000882756
7.62701e-05
-0.00092301
7.4163e-05
-0.00096197
7.17817e-05
-0.000999493
6.91404e-05
-0.00103545
6.62528e-05
-0.00106971
6.31343e-05
-0.00110215
5.97991e-05
-0.00113268
5.62609e-05
-0.00116118
5.25345e-05
-0.00118757
4.86341e-05
-0.00121176
4.45742e-05
-0.00123366
4.03685e-05
-0.00125321
3.60299e-05
-0.00127034
3.15729e-05
-0.00128499
2.70121e-05
-0.00129713
2.23615e-05
-0.0013067
1.76344e-05
-0.00131368
1.28452e-05
-0.00131803
8.00862e-06
-0.00131974
3.13789e-06
-0.0013188
-1.75383e-06
-0.0013152
-6.65188e-06
-0.00130895
-1.15406e-05
-0.00130007
-1.6405e-05
-0.00128858
-2.12301e-05
-0.0012745
-2.6e-05
-0.00125788
-3.06985e-05
-0.00123876
-3.53095e-05
-0.00121719
-3.9817e-05
-0.00119325
-4.42048e-05
-0.00116701
-4.84567e-05
-0.00113855
-5.25567e-05
-0.00110796
-5.64875e-05
-0.00107535
-6.02309e-05
-0.00104083
-6.37692e-05
-0.00100451
-6.70852e-05
-0.000966531
-7.01618e-05
-0.00092703
-7.29804e-05
-0.000886157
-7.5522e-05
-0.000844071
-7.77686e-05
-0.00080094
-7.97032e-05
-0.00075694
-8.13092e-05
-0.000712257
-8.25696e-05
-0.000667087
-8.34681e-05
-0.000621632
-8.39894e-05
-0.0005761
-8.41198e-05
-0.000530711
-8.38459e-05
-0.000485689
-8.31549e-05
-0.000441263
-8.20347e-05
-0.000397668
-8.04741e-05
-0.000355144
-7.84642e-05
-0.000313931
-7.5999e-05
-0.000274274
-7.3075e-05
-0.000236415
-6.96921e-05
-0.000200596
-6.58526e-05
-0.000167051
-6.1563e-05
-0.000136011
-5.68355e-05
-0.000107691
-5.16899e-05
-8.22902e-05
-4.61556e-05
-5.99865e-05
-4.02737e-05
-4.09245e-05
-3.41003e-05
-2.52055e-05
-2.77121e-05
-1.28729e-05
-2.12153e-05
-3.89096e-06
-1.4758e-05
1.88079e-06
-8.54728e-06
4.72239e-06
-2.87237e-06
5.0974e-06
1.86395e-06
3.70141e-06
5.10916e-06
1.51763e-06
6.09539e-06
3.64144e-06
1.86036e-06
-6.41843e-06
3.61029e-06
-7.8603e-06
3.23631e-06
-3.01299e-06
-1.03936e-07
4.11341e-06
-6.96396e-06
1.26328e-05
-1.77451e-05
2.21378e-05
-3.2688e-05
3.22395e-05
-5.19086e-05
4.26213e-05
-7.54167e-05
5.30244e-05
-0.000103131
6.32388e-05
-0.000134915
7.31104e-05
-0.000170575
8.25164e-05
-0.00020988
9.13633e-05
-0.000252574
9.9585e-05
-0.000298379
0.000107134
-0.000347001
0.000113974
-0.000398144
0.000120086
-0.000451497
0.000125458
-0.000506755
0.000130086
-0.000563611
0.000133973
-0.00062176
0.000137127
-0.000680903
0.000139559
-0.000740746
0.000141286
-0.000801003
0.000142325
-0.000861396
0.000142694
-0.000921655
0.000142416
-0.000981518
0.000141513
-0.00104074
0.000140008
-0.00109906
0.000137928
-0.00115627
0.000135296
-0.00121214
0.000132139
-0.00126646
0.000128482
-0.00131903
0.00012435
-0.00136966
0.000119768
-0.00141817
0.00011476
-0.00146438
0.000109354
-0.00150816
0.000103573
-0.00154934
9.74413e-05
-0.00158779
9.09844e-05
-0.00162338
8.42272e-05
-0.001656
7.71932e-05
-0.00168554
6.99066e-05
-0.0017119
6.23917e-05
-0.001735
5.46731e-05
-0.00175476
4.67746e-05
-0.00177112
3.87202e-05
-0.00178402
3.05344e-05
-0.00179342
2.22418e-05
-0.00179928
1.38661e-05
-0.00180157
5.432e-06
-0.00180029
-3.03564e-06
-0.00179543
-1.15124e-05
-0.001787
-1.9973e-05
-0.00177501
-2.83899e-05
-0.0017595
-3.67367e-05
-0.00174052
-4.49874e-05
-0.0017181
-5.31149e-05
-0.00169232
-6.10901e-05
-0.00166325
-6.8885e-05
-0.00163098
-7.64723e-05
-0.00159562
-8.3824e-05
-0.00155726
-9.09106e-05
-0.00151605
-9.77018e-05
-0.00147211
-0.000104168
-0.0014256
-0.000110279
-0.00137668
-0.000116005
-0.00132553
-0.000121316
-0.00127233
-0.00012618
-0.00121728
-0.000130566
-0.00116061
-0.000134445
-0.00110252
-0.000137787
-0.00104327
-0.000140564
-0.000983093
-0.000142746
-0.000922254
-0.000144307
-0.000861021
-0.000145222
-0.000799676
-0.000145465
-0.000738506
-0.000145016
-0.000677809
-0.000143851
-0.00061789
-0.000141954
-0.000559058
-0.000139306
-0.000501628
-0.000135895
-0.000445916
-0.000131711
-0.00039224
-0.000126751
-0.000340916
-0.000121016
-0.000292256
-0.000114512
-0.000246564
-0.000107255
-0.000204132
-9.92684e-05
-0.000165231
-9.05902e-05
-0.000130113
-8.12737e-05
-9.89944e-05
-7.13923e-05
-7.20496e-05
-6.10451e-05
-4.93962e-05
-5.03655e-05
-3.1078e-05
-3.95335e-05
-1.70435e-05
-2.87924e-05
-7.1205e-06
-1.84703e-05
-9.83027e-07
-9.00991e-06
1.88658e-06
-1.00569e-06
2.23911e-06
4.75667e-06
1.11442e-06
7.22011e-06
4.75586e-06
1.14025e-06
-7.55865e-06
1.27912e-06
-7.99911e-06
-1.48382e-06
-2.50076e-07
-7.99287e-06
1.06226e-05
-1.88184e-05
2.34581e-05
-3.43683e-05
3.76877e-05
-5.49025e-05
5.27738e-05
-8.05421e-05
6.82609e-05
-0.000111292
8.37745e-05
-0.00014707
9.90163e-05
-0.000187711
0.000113752
-0.000232993
0.000127798
-0.000282652
0.000141022
-0.000336382
0.000153315
-0.000393854
0.000164606
-0.000454724
0.000174843
-0.000518629
0.000183992
-0.000585205
0.000192034
-0.000654081
0.000198961
-0.000724884
0.000204777
-0.000797247
0.00020949
-0.000870806
0.000213118
-0.000945202
0.000215682
-0.00102008
0.000217208
-0.00109511
0.000217724
-0.00116996
0.000217262
-0.0012443
0.000215854
-0.00131783
0.000213536
-0.00139025
0.000210345
-0.00146127
0.000206317
-0.00153062
0.00020149
-0.00159804
0.000195904
-0.00166328
0.000189595
-0.00172612
0.000182601
-0.00178632
0.000174961
-0.00184368
0.000166713
-0.001898
0.000157894
-0.0019491
0.000148542
-0.00199681
0.000138694
-0.00204097
0.000128389
-0.00208144
0.000117662
-0.00211808
0.000106551
-0.00215078
9.50925e-05
-0.00217943
8.33234e-05
-0.00220394
7.12813e-05
-0.00222422
5.90022e-05
-0.00224021
4.65222e-05
-0.00225185
3.38799e-05
-0.0022591
2.11132e-05
-0.00226192
8.25797e-06
-0.00226031
-4.6484e-06
-0.00225426
-1.75663e-05
-0.00224377
-3.04561e-05
-0.00222888
-4.32788e-05
-0.00220963
-5.5995e-05
-0.00218605
-6.85628e-05
-0.00215822
-8.094e-05
-0.00212623
-9.30848e-05
-0.00209016
-0.000104955
-0.00205012
-0.000116509
-0.00200625
-0.0001277
-0.00195867
-0.000138486
-0.00190755
-0.000148821
-0.00185306
-0.000158661
-0.00179538
-0.000167959
-0.00173472
-0.000176669
-0.00167128
-0.000184747
-0.00160532
-0.000192146
-0.00153706
-0.00019882
-0.00146679
-0.000204723
-0.00139476
-0.000209812
-0.00132128
-0.000214044
-0.00124665
-0.000217378
-0.00117118
-0.000219771
-0.00109522
-0.000221187
-0.0010191
-0.000221589
-0.000943168
-0.000220944
-0.000867797
-0.000219223
-0.000793353
-0.000216397
-0.000720215
-0.000212445
-0.000648761
-0.000207349
-0.000579375
-0.000201097
-0.000512439
-0.000193686
-0.000448334
-0.000185121
-0.000387431
-0.000175415
-0.000330091
-0.000164595
-0.000276657
-0.000152702
-0.00022745
-0.000139797
-0.00018276
-0.000125963
-0.000142838
-0.000111315
-0.00010788
-9.60024e-05
-7.80205e-05
-8.02253e-05
-5.33072e-05
-6.42468e-05
-3.36861e-05
-4.84134e-05
-1.8976e-05
-3.31804e-05
-8.84112e-06
-1.91448e-05
-2.76002e-06
-7.08679e-06
8.40821e-09
1.98822e-06
4.7093e-07
6.75762e-06
5.2268e-06
2.22669e-07
-7.78142e-06
-1.6979e-06
-6.07848e-06
-7.38872e-06
5.4407e-06
-1.76419e-05
2.08758e-05
-3.30006e-05
3.88167e-05
-5.38426e-05
5.85295e-05
-8.04066e-05
7.9338e-05
-0.000112802
0.000100656
-0.000151022
0.000121995
-0.000194968
0.000142961
-0.000244451
0.000163235
-0.00029923
0.000182578
-0.000359003
0.000200794
-0.000423429
0.000217742
-0.00049214
0.000233317
-0.000564741
0.000247444
-0.000640823
0.000260073
-0.000719966
0.000271177
-0.000801745
0.000280741
-0.000885735
0.000288766
-0.000971509
0.000295264
-0.00105865
0.000300255
-0.00114673
0.000303768
-0.00123536
0.000305835
-0.00132413
0.000306495
-0.00141266
0.00030579
-0.00150057
0.000303766
-0.00158751
0.000300471
-0.00167311
0.000295954
-0.00175706
0.000290265
-0.00183903
0.000283457
-0.00191871
0.000275584
-0.00199581
0.000266696
-0.00207006
0.000256848
-0.00214119
0.000246093
-0.00220896
0.000234483
-0.00227314
0.000222071
-0.00233351
0.000208911
-0.00238987
0.000195055
-0.00244203
0.000180555
-0.00248983
0.000165462
-0.00253311
0.00014983
-0.00257173
0.00013371
-0.00260556
0.000117155
-0.00263449
0.000100214
-0.00265843
8.29406e-05
-0.0026773
6.53877e-05
-0.00269102
4.76069e-05
-0.00269956
2.96498e-05
-0.00270287
1.15701e-05
-0.00270094
-6.57781e-06
-0.00269377
-2.47406e-05
-0.00268136
-4.28639e-05
-0.00266375
-6.08911e-05
-0.00264098
-7.87652e-05
-0.00261311
-9.64294e-05
-0.00258023
-0.000113825
-0.00254242
-0.000130894
-0.0024998
-0.000147574
-0.0024525
-0.000163807
-0.00240067
-0.000179531
-0.00234447
-0.000194684
-0.00228409
-0.000209202
-0.00221973
-0.000223022
-0.00215161
-0.000236081
-0.00207996
-0.000248316
-0.00200505
-0.000259662
-0.00192714
-0.000270054
-0.00184653
-0.000279431
-0.00176352
-0.00028773
-0.00167844
-0.00029489
-0.00159164
-0.000300851
-0.00150346
-0.000305555
-0.00141428
-0.000308948
-0.00132449
-0.000310977
-0.00123449
-0.000311593
-0.00114468
-0.000310751
-0.00105549
-0.000308412
-0.000967352
-0.000304538
-0.000880696
-0.000299102
-0.000795962
-0.000292082
-0.000713594
-0.000283466
-0.000634029
-0.000273251
-0.000557703
-0.000261448
-0.000485039
-0.000248079
-0.000416448
-0.000233186
-0.000352318
-0.000216832
-0.00029301
-0.000199105
-0.000238849
-0.000180125
-0.000190114
-0.00016005
-0.000147026
-0.00013909
-0.000109735
-0.000117516
-7.83043e-05
-9.56777e-05
-5.26898e-05
-7.40279e-05
-3.27232e-05
-5.31471e-05
-1.80884e-05
-3.37795e-05
-8.29856e-06
-1.68766e-05
-2.67043e-06
-3.63998e-06
-2.95987e-07
4.38321e-06
4.9308e-06
-7.73945e-07
-7.00733e-06
-4.97872e-06
-1.87396e-06
-1.39198e-05
1.43818e-05
-2.82872e-05
3.52433e-05
-4.85515e-05
5.9081e-05
-7.50407e-05
8.50188e-05
-0.00010795
0.000112247
-0.000147353
0.00014006
-0.000193221
0.000167863
-0.000245424
0.000195164
-0.000303759
0.00022157
-0.000367947
0.000246765
-0.000437661
0.000270508
-0.000512528
0.000292609
-0.000592139
0.000312928
-0.000676062
0.000331367
-0.000763845
0.000347856
-0.000855022
0.000362354
-0.000949119
0.000374839
-0.00104566
0.000385309
-0.00114417
0.000393777
-0.00124419
0.000400266
-0.00134523
0.00040481
-0.00144684
0.000407451
-0.00154859
0.000408238
-0.00165002
0.000407224
-0.00175072
0.000404468
-0.00185028
0.00040003
-0.0019483
0.000393975
-0.00204441
0.000386371
-0.00213823
0.000377283
-0.00222943
0.00036678
-0.00231767
0.000354933
-0.00240263
0.000341811
-0.00248402
0.000327484
-0.00256156
0.000312022
-0.00263498
0.000295495
-0.00270405
0.000277974
-0.00276852
0.000259527
-0.00282819
0.000240224
-0.00288286
0.000220134
-0.00293236
0.000199328
-0.00297652
0.000177872
-0.0030152
0.000155837
-0.00304828
0.000133293
-0.00307565
0.000110306
-0.00309721
8.69467e-05
-0.00311289
6.32854e-05
-0.00312263
3.93927e-05
-0.0031264
1.53379e-05
-0.00312417
-8.80765e-06
-0.00311594
-3.29707e-05
-0.00310172
-5.70779e-05
-0.00308156
-8.10557e-05
-0.00305549
-0.00010483
-0.0030236
-0.000128322
-0.00298597
-0.000151456
-0.00294271
-0.000174152
-0.00289395
-0.000196333
-0.00283984
-0.000217917
-0.00278055
-0.000238822
-0.00271627
-0.000258966
-0.0026472
-0.000278267
-0.00257359
-0.00029664
-0.00249566
-0.000314002
-0.00241371
-0.000330269
-0.00232802
-0.000345355
-0.0022389
-0.000359178
-0.00214667
-0.000371654
-0.0020517
-0.000382702
-0.00195435
-0.000392242
-0.001855
-0.000400196
-0.00175407
-0.00040649
-0.00165197
-0.00041105
-0.00154913
-0.000413811
-0.00144602
-0.000414708
-0.00134309
-0.000413684
-0.00124081
-0.000410688
-0.00113967
-0.000405676
-0.00104016
-0.000398612
-0.000942771
-0.000389472
-0.000847994
-0.000378243
-0.00075632
-0.000364926
-0.00066823
-0.000349537
-0.000584197
-0.000332112
-0.000504672
-0.000312711
-0.000430084
-0.00029142
-0.000360831
-0.000268358
-0.00029727
-0.000243686
-0.000239708
-0.000217612
-0.000188393
-0.000190405
-0.000143498
-0.000162411
-0.000105108
-0.000134068
-7.32033e-05
-0.000105932
-4.76485e-05
-7.87019e-05
-2.8171e-05
-5.3257e-05
-1.43471e-05
-3.07005e-05
-5.58595e-06
-1.24012e-05
-1.11862e-06
-8.40899e-08
3.81217e-06
-1.77675e-06
-5.23062e-06
-8.36446e-06
4.71381e-06
-2.07245e-05
2.6742e-05
-3.94185e-05
5.39373e-05
-6.48224e-05
8.44849e-05
-9.71888e-05
0.000117385
-0.000136653
0.000151711
-0.000183242
0.000186648
-0.000236881
0.000221503
-0.000297413
0.000255697
-0.000364599
0.000288756
-0.000438135
0.000320301
-0.000517659
0.000350032
-0.000602766
0.000377716
-0.000693015
0.000403177
-0.000787934
0.000426286
-0.000887034
0.000446956
-0.000989806
0.000465127
-0.00109574
0.000480771
-0.00120431
0.00049388
-0.001315
0.000504466
-0.00142729
0.000512557
-0.00154067
0.000518191
-0.00165464
0.000521418
-0.0017687
0.000522297
-0.00188237
0.000520895
-0.00199518
0.000517283
-0.00210669
0.000511537
-0.00221645
0.000503736
-0.00232404
0.000493964
-0.00242907
0.000482306
-0.00253113
0.000468847
-0.00262988
0.000453675
-0.00272494
0.000436878
-0.002816
0.000418547
-0.00290275
0.000398768
-0.00298489
0.00037763
-0.00306213
0.000355223
-0.00313425
0.000331637
-0.00320098
0.000306959
-0.00326212
0.000281275
-0.00331747
0.000254677
-0.00336685
0.000227253
-0.0034101
0.000199088
-0.00344708
0.000170272
-0.00347767
0.000140893
-0.00350176
0.000111041
-0.00351928
8.08037e-05
-0.00353016
5.02705e-05
-0.00353435
1.95326e-05
-0.00353184
-1.13178e-05
-0.00352262
-4.21892e-05
-0.00350671
-7.29887e-05
-0.00348415
-0.000103621
-0.00345498
-0.00013399
-0.00341931
-0.000163998
-0.00337722
-0.000193547
-0.00332883
-0.000222537
-0.0032743
-0.000250866
-0.00321378
-0.000278432
-0.00314747
-0.000305132
-0.00307558
-0.000330859
-0.00299834
-0.000355509
-0.002916
-0.000378976
-0.00282885
-0.000401153
-0.00273719
-0.000421934
-0.00264133
-0.000441211
-0.00254163
-0.000458879
-0.00243845
-0.000474833
-0.00233218
-0.000488972
-0.00222323
-0.000501194
-0.00211202
-0.000511401
-0.00199901
-0.0005195
-0.00188466
-0.0005254
-0.00176946
-0.000529018
-0.00165389
-0.000530276
-0.00153847
-0.000529103
-0.00142372
-0.000525435
-0.00131018
-0.000519221
-0.00119837
-0.000510418
-0.00108884
-0.000499001
-0.00098213
-0.000484954
-0.00087877
-0.000468285
-0.00077929
-0.000449017
-0.000684201
-0.000427202
-0.000593994
-0.000402917
-0.000509137
-0.000376277
-0.00043006
-0.000347435
-0.000357154
-0.000316592
-0.000290757
-0.000284009
-0.000231145
-0.000250018
-0.000178519
-0.000215036
-0.000132998
-0.00017959
-9.46008e-05
-0.00014433
-6.32378e-05
-0.000110065
-3.86992e-05
-7.77956e-05
-2.06457e-05
-4.87541e-05
-8.60092e-06
-2.44459e-05
-1.95645e-06
-6.72856e-06
1.85573e-06
-2.7495e-06
-2.48097e-06
-1.1731e-05
1.36952e-05
-2.75838e-05
4.25945e-05
-5.0709e-05
7.70626e-05
-8.1382e-05
0.000115158
-0.000119761
0.000155764
-0.000165907
0.000197857
-0.000219788
0.00024053
-0.000281281
0.000282996
-0.000350183
0.000324598
-0.000426217
0.000364791
-0.000509045
0.000403129
-0.000598274
0.00043926
-0.000693464
0.000472905
-0.000794138
0.000503852
-0.000899792
0.00053194
-0.0010099
0.000557062
-0.00112391
0.000579141
-0.00124128
0.00059814
-0.00136145
0.000614044
-0.00148384
0.000626865
-0.00160792
0.000636631
-0.00173312
0.000643388
-0.00185889
0.000647192
-0.00198471
0.000648115
-0.00211005
0.000646235
-0.0022344
0.000641636
-0.00235728
0.00063441
-0.00247819
0.000624654
-0.0025967
0.000612469
-0.00271235
0.000597956
-0.00282472
0.000581222
-0.00293342
0.000562374
-0.00303806
0.00054152
-0.00313829
0.000518767
-0.00323374
0.000494226
-0.00332412
0.000468008
-0.00340912
0.00044022
-0.00348845
0.00041097
-0.00356186
0.000380371
-0.00362912
0.000348532
-0.00369
0.00031556
-0.00374431
0.000281563
-0.00379188
0.000246653
-0.00383254
0.000210939
-0.00386618
0.000174529
-0.00389267
0.000137532
-0.00391193
0.000100061
-0.00392388
6.22256e-05
-0.00392849
2.41387e-05
-0.00392572
-1.40869e-05
-0.00391557
-5.23369e-05
-0.00389807
-9.04955e-05
-0.00387324
-0.000128445
-0.00384117
-0.000166067
-0.00380192
-0.000203241
-0.00375562
-0.000239845
-0.0037024
-0.000275756
-0.00364242
-0.000310848
-0.00357586
-0.000344995
-0.00350292
-0.000378069
-0.00342384
-0.00040994
-0.00333887
-0.000440478
-0.00324829
-0.000469554
-0.00315241
-0.000497035
-0.00305156
-0.000522791
-0.00294608
-0.00054669
-0.00283635
-0.000568604
-0.00272278
-0.000588404
-0.00260579
-0.000605965
-0.00248582
-0.000621163
-0.00236334
-0.00063388
-0.00223884
-0.000644001
-0.00211282
-0.000651418
-0.00198581
-0.00065603
-0.00185834
-0.000657742
-0.00173098
-0.000656468
-0.00160428
-0.000652136
-0.00147882
-0.000644682
-0.00135517
-0.000634061
-0.00123393
-0.000620242
-0.00111567
-0.000603212
-0.00100098
-0.000582983
-0.000890405
-0.000559588
-0.000784511
-0.000533096
-0.000683824
-0.000503604
-0.000588846
-0.000471255
-0.000500043
-0.000436238
-0.000417839
-0.000398796
-0.000342604
-0.000359244
-0.000274648
-0.000317973
-0.000214211
-0.000275474
-0.000161449
-0.000232351
-0.000116431
-0.000189347
-7.91282e-05
-0.000147368
-4.94058e-05
-0.000107518
-2.70224e-05
-7.11375e-05
-1.16297e-05
-3.98385e-05
-2.78574e-06
-1.55725e-05
-9.30025e-07
-3.68284e-06
1.20174e-06
-1.50243e-05
2.50367e-05
-3.43649e-05
6.19351e-05
-6.19568e-05
0.000104655
-9.79473e-05
0.000151148
-0.000142399
0.000200216
-0.000195294
0.000250751
-0.000256523
0.000301759
-0.000325908
0.000352381
-0.000403195
0.000401885
-0.000488063
0.000449659
-0.000580135
0.000495201
-0.000678979
0.000538104
-0.000784122
0.000578048
-0.000895051
0.000614781
-0.00101123
0.000648118
-0.00113209
0.000677923
-0.00125706
0.000704108
-0.00138554
0.000726622
-0.00151694
0.000745446
-0.00165066
0.000760587
-0.00178611
0.000772077
-0.00192269
0.000779967
-0.00205982
0.000784323
-0.00219692
0.000785223
-0.00233345
0.000782761
-0.00246885
0.000777036
-0.0026026
0.000768156
-0.00273418
0.000756233
-0.00286309
0.000741388
-0.00298888
0.000723744
-0.00311108
0.000703425
-0.00322927
0.000680557
-0.00334302
0.000655272
-0.00345195
0.000627701
-0.0035557
0.000597974
-0.00365392
0.00056622
-0.00374627
0.000532574
-0.00383247
0.000497167
-0.00391223
0.000460131
-0.00398529
0.000421595
-0.00405142
0.000381694
-0.00411042
0.000340559
-0.00416209
0.00029832
-0.00420626
0.000255109
-0.00424279
0.00021106
-0.00427156
0.000166305
-0.00429248
0.000120977
-0.00430546
7.52109e-05
-0.00431047
2.91422e-05
-0.00430746
-1.70921e-05
-0.00429644
-6.3354e-05
-0.00427744
-0.000109504
-0.00425048
-0.0001554
-0.00421565
-0.000200899
-0.00417303
-0.000245855
-0.00412276
-0.000290122
-0.00406496
-0.000333551
-0.00399982
-0.00037599
-0.00392753
-0.000417287
-0.00384831
-0.000457288
-0.00376241
-0.000495838
-0.00367011
-0.00053278
-0.00357171
-0.000567958
-0.00346753
-0.000601212
-0.00335793
-0.000632387
-0.0032433
-0.000661326
-0.00312403
-0.000687873
-0.00300056
-0.000711876
-0.00287334
-0.000733184
-0.00274285
-0.000751651
-0.0026096
-0.000767134
-0.0024741
-0.000779499
-0.0023369
-0.000788616
-0.00219856
-0.000794366
-0.00205967
-0.000796638
-0.0019208
-0.000795331
-0.00178258
-0.000790361
-0.00164561
-0.000781656
-0.0015105
-0.000769162
-0.0013779
-0.000752848
-0.00124841
-0.000732702
-0.00112265
-0.000708741
-0.00100123
-0.000681011
-0.000884729
-0.000649594
-0.000773721
-0.000614612
-0.000668741
-0.000576235
-0.000570291
-0.000534688
-0.000478829
-0.000490258
-0.000394763
-0.00044331
-0.000318441
-0.000394295
-0.000250146
-0.00034377
-0.000190082
-0.000292415
-0.000138377
-0.000241053
-9.50697e-05
-0.000190676
-6.01116e-05
-0.000142476
-3.33669e-05
-9.78821e-05
-1.46203e-05
-5.85853e-05
-3.59347e-06
-2.65993e-05
-4.52354e-06
-4.57071e-06
5.77257e-06
-1.82092e-05
3.86753e-05
-4.10002e-05
8.4726e-05
-7.30339e-05
0.000136688
-0.00011434
0.000192454
-0.000164878
0.000250755
-0.000224532
0.000310405
-0.000293125
0.000370352
-0.000370411
0.000429666
-0.000456077
0.000487551
-0.000549755
0.000543337
-0.000651021
0.000596467
-0.000759404
0.000646488
-0.000874394
0.000693037
-0.000995441
0.000735828
-0.00112197
0.000774647
-0.00125339
0.000809338
-0.00138907
0.000839795
-0.0015284
0.000865954
-0.00167075
0.000887792
-0.00181548
0.000905315
-0.00196196
0.000918555
-0.00210956
0.000927567
-0.00225766
0.000932428
-0.00240567
0.000933228
-0.00255298
0.00093007
-0.00269901
0.00092307
-0.00284321
0.000912353
-0.00298503
0.000898052
-0.00312394
0.000880304
-0.00325945
0.000859249
-0.00339106
0.000835038
-0.00351832
0.00080782
-0.0036408
0.000777746
-0.00375806
0.000744967
-0.00386973
0.00070964
-0.00397543
0.000671919
-0.00407481
0.00063196
-0.00416756
0.000589916
-0.00425338
0.000545946
-0.00433199
0.000500204
-0.00440314
0.000452845
-0.0044666
0.000404025
-0.00452218
0.0003539
-0.0045697
0.000302627
-0.004609
0.000250362
-0.00463996
0.000197261
-0.00466247
0.000143484
-0.00467645
8.91897e-05
-0.00468184
3.45385e-05
-0.00467863
-2.03076e-05
-0.00466679
-7.51852e-05
-0.00464637
-0.000129928
-0.0046174
-0.00018437
-0.00457996
-0.000238339
-0.00453415
-0.000291666
-0.0044801
-0.000344175
-0.00441796
-0.000395691
-0.00434791
-0.000446036
-0.00427017
-0.000495028
-0.00418497
-0.000542487
-0.00409258
-0.00058823
-0.00399329
-0.000632071
-0.00388742
-0.000673825
-0.00377533
-0.000713307
-0.00365738
-0.000750331
-0.003534
-0.000784715
-0.00340559
-0.000816274
-0.00327264
-0.000844831
-0.00313562
-0.000870208
-0.00299503
-0.000892233
-0.00285143
-0.000910742
-0.00270535
-0.000925575
-0.00255738
-0.000936584
-0.00240812
-0.000943628
-0.00225818
-0.000946579
-0.00210819
-0.000945323
-0.00195879
-0.00093976
-0.00181063
-0.000929811
-0.00166438
-0.000915417
-0.00152068
-0.000896541
-0.00138021
-0.000873175
-0.00124361
-0.00084534
-0.00111153
-0.000813096
-0.000984582
-0.000776539
-0.000863377
-0.000735816
-0.000748489
-0.000691124
-0.000640455
-0.000642722
-0.000539772
-0.000590941
-0.000446889
-0.000536193
-0.000362198
-0.000478986
-0.000286027
-0.000419941
-0.000218639
-0.000359803
-0.000160224
-0.000299467
-0.000110898
-0.000240002
-7.07027e-05
-0.000182671
-3.96122e-05
-0.000128973
-1.7543e-05
-8.06545e-05
-4.37375e-06
-3.97685e-05
-8.89731e-06
-5.41242e-06
1.11849e-05
-2.1274e-05
5.45369e-05
-4.74465e-05
0.000110899
-8.38708e-05
0.000173113
-0.000130455
0.000239039
-0.000187048
0.000307347
-0.000253447
0.000376804
-0.000329389
0.000446294
-0.000414558
0.000514835
-0.000508581
0.000581574
-0.000611035
0.000645791
-0.000721448
0.00070688
-0.000839305
0.000764345
-0.000964052
0.000817784
-0.00109511
0.000866881
-0.00123185
0.000911394
-0.00137366
0.000951145
-0.00151988
0.000986012
-0.00166985
0.00101592
-0.0018229
0.00104085
-0.00197838
0.00106079
-0.00213561
0.00107579
-0.00229394
0.00108589
-0.00245271
0.0010912
-0.00261129
0.0010918
-0.00276905
0.00108783
-0.00292537
0.0010794
-0.00307968
0.00106666
-0.00323138
0.00104976
-0.00337993
0.00102886
-0.0035248
0.00100412
-0.00366548
0.000975718
-0.00380148
0.000943819
-0.00393234
0.0009086
-0.00405761
0.00087024
-0.00417689
0.000828915
-0.00428977
0.000784805
-0.0043959
0.000738091
-0.00449494
0.000688954
-0.00458657
0.000637573
-0.00467049
0.00058413
-0.00474645
0.000528806
-0.00481421
0.000471782
-0.00487355
0.000413239
-0.00492428
0.00035336
-0.00496625
0.000292326
-0.00499931
0.00023032
-0.00502335
0.000167528
-0.0050383
0.000104135
-0.00504408
4.0327e-05
-0.00504069
-2.3707e-05
-0.00502809
-8.77764e-05
-0.00500633
-0.000151688
-0.00497546
-0.000215247
-0.00493554
-0.000278256
-0.00488669
-0.000340515
-0.00482904
-0.000401823
-0.00476276
-0.000461973
-0.00468804
-0.000520759
-0.00460509
-0.000577972
-0.00451418
-0.000633401
-0.00441558
-0.000686831
-0.0043096
-0.000738051
-0.00419658
-0.000786843
-0.00407689
-0.000832993
-0.00395094
-0.000876288
-0.00381914
-0.000916513
-0.00368195
-0.000953458
-0.00353987
-0.000986915
-0.0033934
-0.00101668
-0.00324308
-0.00104256
-0.00308947
-0.00106435
-0.00293316
-0.00108189
-0.00277476
-0.00109498
-0.0026149
-0.00110349
-0.00245422
-0.00110725
-0.0022934
-0.00110614
-0.00213311
-0.00110005
-0.00197404
-0.00108889
-0.00181687
-0.00107258
-0.00166231
-0.0010511
-0.00151105
-0.00102443
-0.00136378
-0.000992611
-0.00122118
-0.000955699
-0.0010839
-0.000913814
-0.000952595
-0.000867122
-0.000827869
-0.00081585
-0.000710302
-0.000760289
-0.000600433
-0.00070081
-0.000498751
-0.000637874
-0.000405699
-0.000572039
-0.000321658
-0.000503982
-0.000246951
-0.00043451