/*--------------------------------*- C++ -*----------------------------------*\
  =========                 |
  \\      /  F ield         | OpenFOAM: The Open Source CFD Toolbox
   \\    /   O peration     | Website:  https://openfoam.org
    \\  /    A nd           | Version:  11
     \\/     M anipulation  |
\*---------------------------------------------------------------------------*/
FoamFile
{
    format      ascii;
    class       volScalarField;
    location    "10";
    object      p;
}
// * * * * * * * * * * * * * * * * * * * * * * * * * * * * * * * * * * * * * //

dimensions      [0 2 -2 0 0 0 0];

internalField   nonuniform List<scalar> 
10100
(
3.61553e-09
9.10735e-05
-0.000138588
-0.000742794
-0.00166647
-0.00284845
-0.00422996
-0.00575549
-0.00737532
-0.00904544
-0.0107279
-0.0123896
-0.0140015
-0.0155391
-0.0169805
-0.0183074
-0.0195037
-0.020556
-0.021453
-0.0221852
-0.0227452
-0.0231271
-0.0233263
-0.0233394
-0.0231642
-0.0227999
-0.0222468
-0.0215059
-0.0205793
-0.0194699
-0.0181811
-0.0167171
-0.0150828
-0.0132836
-0.0113258
-0.00921562
-0.00696023
-0.0045672
-0.00204461
0.000599163
0.0033554
0.00621504
0.00916856
0.0122062
0.0153179
0.0184935
0.0217225
0.0249943
0.0282979
0.0316222
0.0349561
0.0382885
0.041608
0.0449034
0.0481632
0.051376
0.0545308
0.0576164
0.0606218
0.0635362
0.0663492
0.0690504
0.0716296
0.0740773
0.0763841
0.0785415
0.0805415
0.0823765
0.0840395
0.0855241
0.0868246
0.0879365
0.088856
0.0895802
0.0901075
0.0904369
0.0905691
0.0905056
0.0902494
0.089805
0.0891784
0.0883769
0.0874098
0.0862883
0.0850255
0.083637
0.0821406
0.0805567
0.0789086
0.0772228
0.0755297
0.0738633
0.0722624
0.0707701
0.0694347
0.0683084
0.0674446
0.0668944
0.0667003
0.0668091
-9.41542e-05
-2.00359e-05
-0.00025291
-0.000797025
-0.00159926
-0.00261734
-0.00380894
-0.00513092
-0.00654189
-0.00800433
-0.00948447
-0.0109522
-0.0123807
-0.013747
-0.0150303
-0.0162127
-0.0172792
-0.0182162
-0.0190125
-0.0196587
-0.020147
-0.0204713
-0.0206269
-0.0206103
-0.0204189
-0.0200515
-0.0195079
-0.0187887
-0.0178955
-0.0168308
-0.0155976
-0.0141996
-0.0126413
-0.0109277
-0.00906432
-0.00705724
-0.00491298
-0.00263867
-0.000241874
0.00226963
0.00488761
0.00760338
0.0104079
0.013292
0.0162463
0.019261
0.0223263
0.0254319
0.0285674
0.0317224
0.0348863
0.0380487
0.0411986
0.0443254
0.0474183
0.0504665
0.0534595
0.0563867
0.0592378
0.0620029
0.0646718
0.0672348
0.0696826
0.0720059
0.0741962
0.0762457
0.0781468
0.0798927
0.0814767
0.0828931
0.0841368
0.0852037
0.0860905
0.086795
0.0873157
0.0876522
0.0878053
0.087777
0.0875707
0.0871908
0.0866434
0.085936
0.0850776
0.0840793
0.0829541
0.0817168
0.0803847
0.0789771
0.077516
0.076026
0.074535
0.0730738
0.0716766
0.0703805
0.069225
0.0682514
0.0674985
0.0670021
0.0668086
0.0669178
0.000118162
0.000178208
-5.94799e-05
-0.000572545
-0.00130549
-0.00222358
-0.00329348
-0.00447934
-0.00574616
-0.00706153
-0.00839539
-0.0097204
-0.0110123
-0.0122492
-0.013412
-0.0144836
-0.0154493
-0.0162964
-0.0170138
-0.0175923
-0.018024
-0.0183028
-0.0184237
-0.0183832
-0.0181789
-0.017809
-0.017273
-0.0165713
-0.0157053
-0.0146768
-0.0134887
-0.0121444
-0.010648
-0.00900411
-0.0072178
-0.00529476
-0.00324126
-0.00106401
0.00122997
0.00363331
0.00613816
0.00873621
0.0114188
0.0141773
0.0170027
0.0198857
0.022817
0.0257866
0.0287847
0.0318013
0.0348263
0.0378496
0.0408609
0.0438501
0.0468068
0.0497209
0.052582
0.0553802
0.0581058
0.0607493
0.0633011
0.0657521
0.0680931
0.0703155
0.0724115
0.0743736
0.0761948
0.0778686
0.0793889
0.0807503
0.0819481
0.0829787
0.0838393
0.0845277
0.0850429
0.0853848
0.0855543
0.0855538
0.0853865
0.0850572
0.0845718
0.0839375
0.0831635
0.0822603
0.0812407
0.0801189
0.0789111
0.0776357
0.0763132
0.0749665
0.0736212
0.072305
0.0710483
0.0698832
0.0688435
0.0679634
0.0672746
0.0668073
0.0666145
0.0667247
0.000676274
0.000674855
0.000404656
-0.000107811
-0.000812282
-0.00167784
-0.00267547
-0.00377423
-0.00494447
-0.00615717
-0.00738577
-0.00860603
-0.00979539
-0.010934
-0.0120039
-0.012989
-0.0138754
-0.0146509
-0.0153051
-0.015829
-0.016215
-0.0164569
-0.0165498
-0.0164901
-0.0162752
-0.0159034
-0.0153741
-0.0146874
-0.0138443
-0.0128466
-0.0116968
-0.010398
-0.00895415
-0.0073694
-0.00564857
-0.00379702
-0.0018207
0.000273988
0.00248041
0.00479158
0.00719999
0.00969767
0.0122764
0.0149278
0.0176434
0.0204142
0.0232312
0.0260849
0.028966
0.0318648
0.0347716
0.0376767
0.0405702
0.0434424
0.0462835
0.0490837
0.051833
0.0545219
0.0571412
0.0596819
0.0621348
0.064491
0.066742
0.0688795
0.070896
0.0727846
0.0745386
0.0761519
0.0776186
0.0789338
0.0800932
0.0810933
0.0819317
0.0826064
0.0831166
0.0834623
0.0836448
0.0836663
0.0835303
0.0832414
0.0828052
0.082229
0.0815215
0.0806931
0.0797558
0.0787231
0.0776103
0.0764347
0.0752153
0.0739733
0.0727319
0.0715164
0.0703536
0.0692717
0.0683003
0.067469
0.0668058
0.0663384
0.0661178
0.066177
0.00153934
0.00142416
0.00108751
0.000548458
-0.000155725
-0.000997769
-0.00195185
-0.00299183
-0.00409174
-0.00522669
-0.00637316
-0.00750925
-0.0086148
-0.00967166
-0.0106632
-0.0115749
-0.0123933
-0.0131071
-0.0137063
-0.0141823
-0.0145281
-0.0147376
-0.0148059
-0.0147295
-0.0145057
-0.0141327
-0.0136099
-0.0129373
-0.0121157
-0.0111467
-0.0100325
-0.00877614
-0.0073811
-0.00585134
-0.0041914
-0.0024064
-0.000501986
0.00151586
0.00364086
0.00586624
0.00818477
0.0105889
0.0130708
0.0156226
0.0182359
0.0209022
0.0236128
0.0263587
0.0291308
0.03192
0.0347169
0.037512
0.0402961
0.0430598
0.0457937
0.0484881
0.0511337
0.0537214
0.0562424
0.058688
0.0610494
0.0633182
0.065486
0.0675451
0.0694884
0.0713092
0.0730014
0.0745589
0.0759763
0.0772489
0.0783728
0.0793448
0.0801625
0.0808242
0.0813292
0.0816778
0.0818712
0.0819118
0.0818028
0.0815488
0.0811553
0.0806293
0.079979
0.0792145
0.0783471
0.0773895
0.0763561
0.0752627
0.074127
0.0729684
0.071808
0.0706683
0.0695731
0.0685471
0.0676162
0.0668059
0.0661411
0.0656469
0.0653634
0.0653159
0.00266065
0.002393
0.00196107
0.0013703
0.000640925
-0.000203173
-0.00113936
-0.00214536
-0.00319902
-0.00427889
-0.0053642
-0.00643558
-0.00747507
-0.00846614
-0.0093938
-0.0102444
-0.011006
-0.0116677
-0.0122203
-0.0126556
-0.0129669
-0.0131485
-0.0131958
-0.0131053
-0.0128742
-0.012501
-0.0119848
-0.0113257
-0.0105241
-0.00958172
-0.0085006
-0.00728344
-0.00593345
-0.00445442
-0.00285072
-0.00112723
0.00071078
0.0026577
0.00470748
0.00685361
0.00908912
0.0114068
0.0137994
0.0162591
0.018778
0.0213477
0.0239601
0.0266065
0.0292782
0.0319663
0.0346617
0.0373556
0.040039
0.0427028
0.045338
0.0479353
0.0504856
0.0529804
0.0554112
0.0577696
0.0600473
0.0622359
0.0643276
0.066315
0.0681915
0.0699505
0.0715862
0.0730928
0.0744651
0.0756989
0.0767903
0.0777364
0.0785349
0.0791842
0.0796838
0.0800341
0.0802363
0.0802928
0.0802067
0.0799822
0.0796247
0.0791408
0.0785386
0.0778274
0.0770178
0.0761218
0.0751525
0.0741247
0.0730545
0.0719595
0.0708588
0.0697722
0.0687209
0.0677266
0.0668113
0.0659972
0.0653063
0.0647609
0.0643848
0.0641899
0.00399047
0.00354449
0.00299458
0.002331
0.00155454
0.000685695
-0.00025544
-0.00125003
-0.00227936
-0.00332502
-0.00436888
-0.0053939
-0.00638421
-0.00732496
-0.00820252
-0.00900462
-0.00972024
-0.0103395
-0.0108538
-0.0112556
-0.0115383
-0.0116969
-0.0117269
-0.0116249
-0.0113884
-0.011016
-0.0105065
-0.00986012
-0.00907733
-0.00815954
-0.00710875
-0.00592744
-0.00461866
-0.00318602
-0.00163368
3.36905e-05
0.00181112
0.00369327
0.00567436
0.00774811
0.00990786
0.0121468
0.0144578
0.0168335
0.0192661
0.0217479
0.0242707
0.0268264
0.0294066
0.0320026
0.0346057
0.0372075
0.0397994
0.0423725
0.044918
0.0474271
0.049891
0.0523016
0.0546508
0.0569304
0.0591323
0.0612485
0.0632716
0.0651944
0.0670106
0.0687139
0.0702986
0.0717593
0.0730911
0.0742898
0.0753519
0.0762744
0.0770551
0.0776928
0.0781868
0.0785376
0.0787465
0.0788157
0.078748
0.0785476
0.0782194
0.0777699
0.0772066
0.0765381
0.0757745
0.0749267
0.0740069
0.0730285
0.0720064
0.0709563
0.0698952
0.0688409
0.0678119
0.0668269
0.0659049
0.065065
0.0643266
0.0637089
0.0632176
0.0628484
0.00548097
0.00484013
0.00415594
0.00340283
0.00256113
0.00164881
0.000683564
-0.000318811
-0.00134271
-0.00237237
-0.00339215
-0.0043871
-0.00534325
-0.00624754
-0.00708772
-0.00785275
-0.00853258
-0.00911832
-0.00960203
-0.0099768
-0.0102367
-0.0103768
-0.0103931
-0.0102823
-0.0100423
-0.00967149
-0.00916901
-0.00853482
-0.00776952
-0.00687444
-0.00585147
-0.00470292
-0.00343169
-0.0020413
-0.000535775
0.00108054
0.00280295
0.00462627
0.00654489
0.00855279
0.0106437
0.0128111
0.015048
0.0173474
0.0197018
0.0221036
0.0245452
0.0270187
0.0295158
0.0320283
0.034548
0.0370665
0.0395755
0.0420667
0.0445312
0.0469606
0.0493467
0.0516815
0.0539572
0.056166
0.0582997
0.0603509
0.0623124
0.0641774
0.0659395
0.067593
0.0691321
0.0705517
0.0718472
0.0730144
0.07405
0.0749511
0.0757155
0.0763421
0.0768303
0.0771807
0.0773942
0.077473
0.0774198
0.0772383
0.0769333
0.0765108
0.0759778
0.0753424
0.0746138
0.0738021
0.0729185
0.0719751
0.0709853
0.0699635
0.0689246
0.0678843
0.0668586
0.0658639
0.0649165
0.0640321
0.0632283
0.0625218
0.0618986
0.0613386
0.00708891
0.00624408
0.00541438
0.00455838
0.00363734
0.00266629
0.00166108
0.000634706
-0.000399774
-0.00142902
-0.0024398
-0.003419
-0.00435445
-0.00523464
-0.00604877
-0.00678703
-0.00744045
-0.00800089
-0.00846116
-0.0088151
-0.00905736
-0.0091833
-0.0091892
-0.00907224
-0.00883039
-0.00846217
-0.0079668
-0.00734431
-0.00659543
-0.00572134
-0.00472378
-0.00360501
-0.00236793
-0.00101595
0.000447168
0.00201731
0.0036899
0.00545996
0.00732206
0.00927046
0.0112992
0.0134019
0.0155719
0.0178023
0.020086
0.0224157
0.0247841
0.0271834
0.0296056
0.0320429
0.0344874
0.0369311
0.0393658
0.0417832
0.044175
0.046533
0.0488494
0.0511164
0.0533265
0.0554719
0.0575449
0.0595382
0.0614448
0.0632583
0.0649725
0.0665815
0.0680801
0.0694633
0.0707264
0.0718656
0.0728775
0.0737593
0.0745089
0.075125
0.0756073
0.0759562
0.0761726
0.0762582
0.0762157
0.0760484
0.0757609
0.0753587
0.0748483
0.0742372
0.0735338
0.0727472
0.0718877
0.0709663
0.0699951
0.0689868
0.0679547
0.0669125
0.0658741
0.0648536
0.0638647
0.0629207
0.0620373
0.0612291
0.0604629
0.0597027
0.00877677
0.00772355
0.00674098
0.00577277
0.00476094
0.00371868
0.00266044
0.0015966
0.000537996
-0.000504276
-0.00151905
-0.00249502
-0.00342158
-0.0042887
-0.00508703
-0.00580787
-0.00644322
-0.00698582
-0.00742935
-0.00776826
-0.0079976
-0.00811323
-0.00811199
-0.00799129
-0.00774916
-0.00738435
-0.00689631
-0.00628515
-0.00555154
-0.00469667
-0.00372225
-0.00263054
-0.00142434
-0.000106966
0.001318
0.00284659
0.0044744
0.00619656
0.00800789
0.00990291
0.0118758
0.0139205
0.0160304
0.0181989
0.0204193
0.0226845
0.0249873
0.0273202
0.0296755
0.0320456
0.0344231
0.0368
0.0391684
0.0415201
0.0438473
0.0461419
0.0483964
0.0506034
0.0527553
0.0548447
0.056864
0.0588061
0.0606645
0.0624327
0.0641046
0.0656747
0.0671377
0.0684888
0.0697236
0.0708381
0.071829
0.0726935
0.0734296
0.0740361
0.0745125
0.0748591
0.0750766
0.0751666
0.0751314
0.0749741
0.0746989
0.0743109
0.073816
0.0732212
0.0725339
0.0717626
0.0709165
0.0700055
0.0690406
0.0680329
0.0669942
0.0659363
0.0648714
0.0638115
0.062768
0.0617521
0.060778
0.0598585
0.058942
0.0579775
0.0105115
0.00924901
0.00810947
0.00702234
0.00591108
0.00478785
0.00366589
0.00255335
0.00145901
0.000392169
-0.000637739
-0.00162126
-0.0025493
-0.00341324
-0.00420486
-0.00491654
-0.00554136
-0.00607304
-0.00650584
-0.00683482
-0.00705565
-0.00716473
-0.00715924
-0.00703687
-0.00679591
-0.00643534
-0.00595478
-0.00535442
-0.00463499
-0.00379766
-0.00284417
-0.00177682
-0.000598362
0.000688068
0.00207901
0.00357057
0.00515842
0.00683789
0.00860403
0.0104516
0.0123749
0.0143679
0.0164244
0.018538
0.0207022
0.0229102
0.0251547
0.0274287
0.0297248
0.0320356
0.0343538
0.0366718
0.0389817
0.0412756
0.0435458
0.0457848
0.0479852
0.0501395
0.0522406
0.0542809
0.0562534
0.0581511
0.0599675
0.0616964
0.0633317
0.064868
0.0663003
0.0676237
0.0688338
0.0699269
0.0708995
0.0717489
0.072473
0.0730707
0.0735413
0.073885
0.0741023
0.0741944
0.0741634
0.0740123
0.0737447
0.0733654
0.0728798
0.072294
0.0716148
0.0708499
0.0700076
0.0690968
0.0681273
0.067109
0.066052
0.0649666
0.0638634
0.0627526
0.0616438
0.060546
0.0594727
0.0584351
0.0573642
0.0561946
0.0122646
0.0107943
0.00949592
0.00828506
0.00706816
0.00585635
0.00466215
0.00349173
0.00235208
0.00125094
0.000196166
-0.000804369
-0.00174295
-0.00261225
-0.00340521
-0.00411524
-0.00473632
-0.0052631
-0.00569057
-0.00601433
-0.00623064
-0.00633649
-0.00632937
-0.00620723
-0.00596868
-0.005613
-0.00513998
-0.00454988
-0.00384346
-0.00302199
-0.0020873
-0.0010417
0.000112151
0.00137123
0.00273212
0.00419098
0.00574358
0.00738547
0.00911188
0.0109177
0.0127973
0.0147449
0.0167545
0.01882
0.0209349
0.0230926
0.0252862
0.0275086
0.0297529
0.0320119
0.0342786
0.0365452
0.0388041
0.0410477
0.0432686
0.0454595
0.047613
0.049722
0.0517792
0.0537775
0.0557098
0.0575695
0.0593501
0.0610454
0.0626496
0.0641573
0.0655634
0.0668634
0.0680528
0.0691277
0.0700847
0.0709211
0.0716348
0.0722246
0.0726897
0.0730301
0.073246
0.0733384
0.073309
0.0731607
0.0728966
0.0725212
0.0720391
0.0714558
0.0707776
0.0700112
0.0691642
0.0682447
0.0672612
0.0662223
0.0651369
0.064014
0.0628626
0.0616915
0.0605086
0.0593212
0.0581421
0.0569819
0.0557544
0.0543811
0.0140117
0.0123361
0.0108784
0.00954111
0.00821402
0.00690767
0.00563436
0.0043987
0.00320586
0.00206222
0.000974347
-5.12536e-05
-0.00100827
-0.00189045
-0.00269175
-0.00340667
-0.00403016
-0.00455749
-0.00498432
-0.00530699
-0.00552246
-0.00562803
-0.00562149
-0.00550124
-0.00526624
-0.00491597
-0.00445038
-0.00386984
-0.00317525
-0.00236799
-0.00144998
-0.000423495
0.000708865
0.0019441
0.0032788
0.00470917
0.00623115
0.00784045
0.00953245
0.0113021
0.0131438
0.0150521
0.0170212
0.019045
0.0211174
0.0232316
0.0253812
0.0275592
0.029759
0.0319736
0.034196
0.0364185
0.0386339
0.0408346
0.0430136
0.0451637
0.0472775
0.0493481
0.0513683
0.0533312
0.05523
0.0570579
0.0588087
0.0604762
0.0620546
0.0635387
0.0649234
0.0662042
0.0673765
0.0684365
0.0693806
0.0702063
0.0709113
0.0714943
0.0719545
0.0722913
0.0725049
0.072596
0.0725661
0.0724176
0.0721535
0.0717776
0.071294
0.0707076
0.070024
0.0692493
0.0683903
0.0674542
0.0664483
0.0653803
0.064258
0.0630889
0.061881
0.0606418
0.0593779
0.0580948
0.0568052
0.0555192
0.0541346
0.0525603
0.0157311
0.0138537
0.0122373
0.010772
0.00933156
0.00792636
0.00656858
0.00526154
0.00400912
0.00281633
0.00168835
0.000630643
-0.000351468
-0.00125291
-0.00206878
-0.00279444
-0.00342555
-0.00395811
-0.00438861
-0.00471399
-0.00493172
-0.00503946
-0.00503546
-0.00491855
-0.00468798
-0.00434343
-0.003885
-0.00331325
-0.00262926
-0.00183456
-0.000931073
7.89713e-05
0.00119294
0.00240776
0.00372003
0.00512609
0.00662202
0.00820365
0.00986637
0.0116052
0.0134147
0.0152897
0.0172244
0.019213
0.0212493
0.0233268
0.0254391
0.0275798
0.0297423
0.0319196
0.0341048
0.0362905
0.0384694
0.0406346
0.0427789
0.0448952
0.0469763
0.0490153
0.0510053
0.0529394
0.054811
0.0566134
0.0583402
0.0599855
0.0615434
0.0630088
0.0643768
0.0656425
0.0668016
0.0678499
0.068784
0.0696012
0.0702994
0.070877
0.0713328
0.0716661
0.0718768
0.0719654
0.0719331
0.0717821
0.071515
0.0711348
0.0706454
0.0700509
0.0693565
0.0685675
0.06769
0.0667303
0.065695
0.0645906
0.0634239
0.0622015
0.0609303
0.0596166
0.0582659
0.0568825
0.055479
0.0540652
0.0525241
0.0507522
0.0174041
0.0153289
0.0135552
0.0119609
0.0104052
0.00889797
0.0074516
0.00606841
0.00475102
0.00350335
0.00232956
0.001234
0.000220985
-0.000705373
-0.00154112
-0.00228243
-0.00292568
-0.00346767
-0.00390557
-0.00423691
-0.00445953
-0.0045716
-0.00457182
-0.00445942
-0.0042339
-0.00389514
-0.00344345
-0.00287965
-0.00220499
-0.00142109
-0.000529854
0.000466421
0.00156499
0.00276275
0.00405636
0.00544228
0.0069167
0.00847543
0.0101139
0.0118272
0.0136102
0.0154577
0.0173641
0.0193237
0.0213302
0.0233776
0.0254594
0.0275697
0.0297016
0.0318486
0.0340036
0.0361594
0.0383091
0.0404458
0.0425624
0.0446519
0.0467071
0.0487213
0.0506876
0.0525994
0.0544501
0.0562329
0.0579416
0.0595701
0.0611129
0.0625646
0.0639204
0.0651753
0.0663248
0.0673648
0.0682919
0.0691032
0.0697966
0.0703701
0.0708225
0.0711526
0.0713601
0.0714453
0.0714093
0.0712538
0.070981
0.0705935
0.0700944
0.0694877
0.0687776
0.0679692
0.0670677
0.0660786
0.0650076
0.0638605
0.0626432
0.0613615
0.0600213
0.058628
0.0571859
0.0556987
0.0541788
0.0526362
0.0509396
0.0489738
0.0190141
0.0167454
0.014816
0.0130928
0.0114205
0.00980902
0.00827092
0.00680767
0.00542103
0.00411386
0.00288944
0.00175116
0.000702356
-0.000253744
-0.00111391
-0.00187507
-0.00253438
-0.0030894
-0.00353792
-0.00387789
-0.00410759
-0.00422581
-0.00423168
-0.00412466
-0.00390452
-0.00357141
-0.00312595
-0.00256917
-0.00190244
-0.00112741
-0.000246112
0.000739034
0.00182518
0.00300924
0.00428798
0.00565793
0.00711527
0.00865578
0.0102749
0.011968
0.0137299
0.0155557
0.0174398
0.0193764
0.0213595
0.0233831
0.0254412
0.0275277
0.029636
0.0317593
0.0338909
0.0360239
0.0381514
0.0402665
0.0423623
0.0444317
0.0464677
0.0484637
0.050413
0.0523089
0.0541448
0.055914
0.0576102
0.0592276
0.0607604
0.0622034
0.0635516
0.0647998
0.0659436
0.0669787
0.0679018
0.0687099
0.0694007
0.0699718
0.0704217
0.0707491
0.0709535
0.071035
0.0709943
0.0708328
0.0705522
0.0701546
0.0696429
0.0690203
0.0682907
0.0674584
0.066528
0.0655045
0.0643927
0.0631976
0.0619244
0.0605783
0.0591644
0.0576873
0.0561504
0.0545565
0.0529185
0.0512468
0.049396
0.0472402
0.0205467
0.0180882
0.0160054
0.0141536
0.0123639
0.0106466
0.00901458
0.00746835
0.00600893
0.00463851
0.00335951
0.00217441
0.00108568
9.5864e-05
-0.000792481
-0.00157708
-0.0022559
-0.00282703
-0.00328875
-0.00363952
-0.00387822
-0.0040041
-0.00401661
-0.00391549
-0.00370083
-0.00337312
-0.00293324
-0.00238238
-0.00172199
-0.000953843
-8.01421e-05
0.00089651
0.00197324
0.00314704
0.00441475
0.00577285
0.00721745
0.00874432
0.0103491
0.0120271
0.0137735
0.0155833
0.0174508
0.0193704
0.0213362
0.0233425
0.0253834
0.0274527
0.0295438
0.0316503
0.0337653
0.0358824
0.0379945
0.0400949
0.0421766
0.0442326
0.0462561
0.0482405
0.0501792
0.0520655
0.0538926
0.0556541
0.0573437
0.0589553
0.0604835
0.0619227
0.0632678
0.0645137
0.0656556
0.0666895
0.0676118
0.0684195
0.0691099
0.0696804
0.0701293
0.0704549
0.0706566
0.0707343
0.0706883
0.0705196
0.0702296
0.06982
0.069293
0.0686516
0.0678991
0.0670392
0.066076
0.0650137
0.0638565
0.062609
0.0612756
0.059861
0.0583694
0.056805
0.0551705
0.0534679
0.0517106
0.0499097
0.0479064
0.0455641
0.0219886
0.0193443
0.01711
0.0151304
0.0132231
0.0113989
0.00967115
0.00803971
0.00650487
0.00506817
0.00373126
0.0024959
0.00136393
0.000337194
-0.000582544
-0.00139369
-0.00209481
-0.00268448
-0.00316151
-0.00352495
-0.00377419
-0.00390883
-0.00392863
-0.00383366
-0.00362439
-0.00330164
-0.00286648
-0.00232021
-0.00166442
-0.000901108
-3.27001e-05
0.000938131
0.00200857
0.00317566
0.00443617
0.00578646
0.00722257
0.0087404
0.0103357
0.0120039
0.0137402
0.0155394
0.0173961
0.0193046
0.0212594
0.0232548
0.0252848
0.0273433
0.0294238
0.03152
0.0336253
0.0357332
0.0378367
0.039929
0.0420033
0.0440526
0.0460702
0.0480496
0.0499841
0.0518669
0.0536915
0.0554511
0.0571397
0.0587513
0.06028
0.0617204
0.0630671
0.0643148
0.065459
0.0664954
0.0674203
0.0682306
0.068923
0.069495
0.0699444
0.0702694
0.0704692
0.0705434
0.0704919
0.0703154
0.0700148
0.0695914
0.0690473
0.0683847
0.0676066
0.0667161
0.0657167
0.0646119
0.0634057
0.062102
0.0607047
0.059218
0.0576457
0.0559913
0.0542568
0.0524438
0.0505666
0.0486366
0.0464824
0.0439568
0.0233283
0.0205016
0.0181177
0.0160112
0.0139863
0.0120546
0.0102299
0.00851155
0.00689922
0.00539378
0.00399632
0.00270804
0.00153011
0.00046369
-0.000490109
-0.00133031
-0.00205594
-0.00266609
-0.00316013
-0.00353773
-0.00379864
-0.00394273
-0.00397013
-0.00388136
-0.00367724
-0.00335878
-0.00292721
-0.00238398
-0.00173099
-0.000970464
-0.000104943
0.000862922
0.00193034
0.00309426
0.00435131
0.00569777
0.00712971
0.00864315
0.0102339
0.0118975
0.0136289
0.0154231
0.0172745
0.019178
0.0211278
0.0231184
0.0251438
0.0271979
0.0292743
0.0313669
0.0334692
0.0355745
0.0376761
0.039767
0.0418405
0.0438898
0.0459081
0.0478889
0.0498255
0.0517112
0.0535391
0.0553029
0.0569963
0.0586133
0.0601479
0.0615945
0.0629474
0.0642016
0.0653522
0.0663949
0.067326
0.0681419
0.0688391
0.0694149
0.0698667
0.0701927
0.0703917
0.0704629
0.0704061
0.0702215
0.0699096
0.0694714
0.0689086
0.068223
0.0674171
0.0664935
0.0654551
0.064305
0.0630467
0.0616836
0.0602195
0.0586579
0.0570021
0.0552553
0.053419
0.0514946
0.0494968
0.047438
0.0451343
0.0424284
0.024555
0.0215489
0.0190175
0.0167848
0.0146428
0.0126032
0.0106806
0.00887405
0.00718257
0.00560651
0.00414646
0.00280312
0.00157705
0.000468699
-0.000521333
-0.00139249
-0.0021443
-0.00277649
-0.00328898
-0.0036818
-0.00395501
-0.00410887
-0.004144
-0.00406127
-0.00386175
-0.0035466
-0.00311725
-0.00257547
-0.00192344
-0.00116353
-0.000298284
0.00066964
0.00173734
0.00290159
0.0041589
0.00550555
0.00693771
0.00845148
0.0100426
0.0117066
0.0134383
0.0152328
0.0170849
0.0189891
0.0209401
0.0229319
0.0249589
0.0270148
0.0290937
0.0311892
0.0332951
0.0354046
0.0375108
0.0396069
0.0416862
0.0437421
0.0457677
0.0477564
0.0497015
0.0515961
0.0534336
0.0552075
0.0569116
0.0585396
0.0600855
0.0615433
0.0629074
0.0641725
0.0653339
0.0663871
0.067328
0.0681527
0.0688577
0.0694397
0.0698962
0.070225
0.0704246
0.0704939
0.0704323
0.0702396
0.0699162
0.0694626
0.0688801
0.0681702
0.0673348
0.0663761
0.0652965
0.0640987
0.0627858
0.061361
0.0598275
0.0581885
0.0564471
0.054606
0.0526665
0.0506295
0.0485108
0.0463234
0.0438715
0.0409875
0.0256589
0.0224761
0.0197987
0.0174408
0.0151819
0.0130344
0.0110134
0.00911771
0.00734578
0.00569769
0.00417355
0.00277342
0.00149734
0.000345346
-0.000682441
-0.00158595
-0.00236531
-0.00302076
-0.00355262
-0.00396122
-0.00424704
-0.00441083
-0.00445357
-0.0043764
-0.00418057
-0.00386748
-0.0034389
-0.00289691
-0.00224385
-0.00148216
-0.000614379
0.000356698
0.00142797
0.00259605
0.0038574
0.00520838
0.00664522
0.00816396
0.00976031
0.0114296
0.0131669
0.0149672
0.0168255
0.0187365
0.0206944
0.0226936
0.0247282
0.0267925
0.0288802
0.0309853
0.0331012
0.0352213
0.0373387
0.0394466
0.0415385
0.0436075
0.045647
0.04765
0.0496099
0.0515198
0.0533731
0.0551632
0.0568838
0.0585285
0.060091
0.0615652
0.0629455
0.0642265
0.0654032
0.0664711
0.0674256
0.0682627
0.0689785
0.0695696
0.0700333
0.070367
0.0705689
0.0706377
0.0705722
0.070372
0.0700371
0.0695679
0.0689652
0.0682301
0.0673641
0.0663689
0.0652464
0.063999
0.0626295
0.0611408
0.0595359
0.0578177
0.0559889
0.0540519
0.0520078
0.0498575
0.0476175
0.0453018
0.0427025
0.0396424
0.0266305
0.0232735
0.0204515
0.0179692
0.0155939
0.0133385
0.0112188
0.00923319
0.00738004
0.00565889
0.00406938
0.00261111
0.00128373
8.6887e-05
-0.000979795
-0.00191677
-0.00272468
-0.00340415
-0.00395581
-0.00438042
-0.00467894
-0.00485252
-0.00490241
-0.00482996
-0.00463667
-0.0043243
-0.00389493
-0.00335088
-0.00269456
-0.00192844
-0.00105522
-7.7893e-05
0.00100024
0.00217572
0.00344504
0.00480459
0.00625056
0.0077789
0.00938522
0.0110648
0.012813
0.0146247
0.0164949
0.0184182
0.020389
0.0224015
0.0244501
0.0265289
0.028632
0.030753
0.0328855
0.0350227
0.0371578
0.0392842
0.0413952
0.0434841
0.0455439
0.0475677
0.0495488
0.0514803
0.0533556
0.0551681
0.0569112
0.0585783
0.0601629
0.061659
0.0630607
0.0643625
0.0655593
0.0666461
0.0676183
0.0684715
0.0692016
0.0698051
0.0702787
0.0706198
0.0708261
0.0708959
0.0708278
0.070621
0.0702753
0.0697907
0.0691677
0.068407
0.0675096
0.0664767
0.0653101
0.0640118
0.0625842
0.0610301
0.0593522
0.0575531
0.0556353
0.0536011
0.0514513
0.0491869
0.0468253
0.0443812
0.0416352
0.0384002
0.0274611
0.0239317
0.0209667
0.0183607
0.0158692
0.013506
0.0112874
0.00921161
0.0072766
0.00548154
0.00382573
0.00230844
0.000928928
-0.0003136
-0.00142001
-0.00239123
-0.00322823
-0.00393202
-0.00450361
-0.00494423
-0.00525527
-0.00543815
-0.00549436
-0.00542551
-0.00523346
-0.00492034
-0.00448846
-0.00394025
-0.00327816
-0.00250483
-0.00162321
-0.000636517
0.000451858
0.00163846
0.00291981
0.00429223
0.00575178
0.00729429
0.00891539
0.0106104
0.0123747
0.0142033
0.016091
0.0180324
0.0200219
0.0220538
0.0241225
0.0262223
0.028347
0.0304904
0.0326458
0.0348065
0.036966
0.0391175
0.0412544
0.0433697
0.0454564
0.0475075
0.0495162
0.0514758
0.0533795
0.0552205
0.056992
0.0586874
0.0603
0.0618235
0.0632519
0.0645798
0.0658015
0.0669119
0.0679061
0.0687794
0.0695275
0.0701466
0.0706333
0.0709845
0.0711977
0.0712705
0.0712015
0.0709895
0.0706339
0.0701346
0.0694916
0.0687052
0.0677759
0.0667049
0.0654933
0.0641431
0.0626564
0.0610357
0.0592834
0.0574021
0.055394
0.0532613
0.0510049
0.0486257
0.0461419
0.0435695
0.0406769
0.0372677
0.0281424
0.0244422
0.0213351
0.018606
0.0159988
0.0135278
0.0112103
0.00904408
0.00702673
0.0051572
0.00343455
0.00185769
0.000425495
-0.000863289
-0.00200993
-0.00301572
-0.00388195
-0.00461003
-0.00520144
-0.00565781
-0.00598083
-0.00617216
-0.00623356
-0.00616703
-0.00597479
-0.00565925
-0.00522285
-0.00466806
-0.00399753
-0.00321417
-0.00232116
-0.00132186
-0.000219677
0.000981951
0.00227945
0.00366901
0.00514656
0.0067079
0.00834867
0.0100643
0.0118501
0.013701
0.0156117
0.0175768
0.0195908
0.0216482
0.0237434
0.0258704
0.0280231
0.030195
0.0323798
0.0345708
0.0367613
0.0389446
0.0411139
0.0432622
0.0453823
0.0474672
0.0495103
0.0515045
0.0534429
0.0553187
0.0571249
0.0588545
0.0605009
0.0620576
0.0635185
0.0648776
0.0661294
0.0672682
0.0682888
0.0691865
0.0699567
0.0705953
0.0710985
0.0714629
0.0716855
0.0717638
0.0716958
0.0714803
0.0711164
0.0706033
0.0699409
0.0691291
0.0681682
0.0670587
0.0658018
0.0643991
0.0628526
0.0611643
0.0593367
0.0573721
0.0552726
0.0530405
0.0506765
0.0481815
0.0455751
0.0428738
0.0398346
0.0362512
0.0286663
0.0247962
0.0215478
0.0186962
0.0159736
0.0133951
0.0109786
0.00872171
0.0066218
0.00467759
0.00288783
0.0012511
-0.00023413
-0.00156944
-0.00275645
-0.00379677
-0.00469207
-0.00544418
-0.00605503
-0.00652654
-0.00686063
-0.00705926
-0.00712455
-0.00705892
-0.00686487
-0.00654494
-0.00610166
-0.0055377
-0.00485599
-0.0040597
-0.00315219
-0.00213685
-0.00101708
0.000203569
0.00152137
0.00293234
0.00443238
0.0060173
0.00768276
0.00942415
0.0112367
0.0131152
0.0150545
0.0170492
0.0190938
0.0211828
0.0233104
0.0254709
0.0276577
0.0298647
0.0320854
0.0343132
0.0365413
0.0387631
0.0409715
0.0431594
0.0453196
0.0474451
0.0495291
0.0515645
0.0535442
0.0554612
0.0573082
0.0590783
0.0607645
0.0623604
0.0638595
0.0652556
0.0665426
0.0677149
0.0687669
0.0696935
0.0704901
0.0711522
0.0716756
0.0720566
0.0722917
0.0723782
0.0723138
0.0720969
0.0717263
0.071201
0.0705203
0.0696838
0.0686915
0.0675438
0.0662416
0.0647862
0.0631793
0.061423
0.0595193
0.0574704
0.0552786
0.052946
0.0504735
0.0478621
0.0451322
0.0423013
0.0391149
0.035357
0.0290249
0.0249856
0.0215964
0.0186226
0.0157849
0.0130989
0.0105834
0.00823585
0.00605334
0.00403437
0.0021774
0.000480695
-0.00105762
-0.00243941
-0.00366658
-0.0047411
-0.00566508
-0.00644074
-0.00707032
-0.00755598
-0.00789992
-0.00810451
-0.00817228
-0.00810592
-0.00790809
-0.00758145
-0.00712873
-0.00655291
-0.00585721
-0.00504498
-0.00411962
-0.00308456
-0.00194332
-0.000699629
0.000642626
0.0020794
0.00360655
0.00521991
0.00691507
0.00868736
0.0105319
0.0124435
0.014417
0.0164471
0.0185282
0.0206549
0.0228213
0.0250213
0.0272487
0.0294971
0.0317602
0.0340315
0.0363039
0.0385708
0.040825
0.0430592
0.0452663
0.0474392
0.0495708
0.0516541
0.0536817
0.0556463
0.0575406
0.0593576
0.06109
0.0627312
0.0642744
0.0657132
0.0670411
0.0682521
0.0693406
0.0703012
0.0711288
0.0718188
0.0723664
0.0727677
0.0730188
0.0731166
0.0730587
0.0728429
0.0724677
0.0719318
0.0712342
0.0703742
0.0693514
0.0681661
0.0668188
0.0653108
0.0636434
0.0618186
0.0598382
0.0577044
0.0554194
0.0529855
0.0504035
0.0476746
0.0448203
0.041859
0.0385245
0.034591
0.0292103
0.0250022
0.0214723
0.0183766
0.0154238
0.0126305
0.0100161
0.00757792
0.00531287
0.00321919
0.00129504
-0.000461553
-0.00205273
-0.00348064
-0.00474751
-0.00585572
-0.00680776
-0.00760616
-0.00825339
-0.00875192
-0.00910433
-0.00931341
-0.00938199
-0.00931293
-0.00910903
-0.00877313
-0.00830831
-0.00771786
-0.00700521
-0.00617376
-0.00522697
-0.00416838
-0.00300173
-0.00173091
-0.000359928
0.00110715
0.00266617
0.00431288
0.00604279
0.00785112
0.00973293
0.0116832
0.0136966
0.015768
0.0178917
0.0200621
0.0222733
0.0245191
0.0267934
0.0290898
0.031402
0.0337233
0.0360468
0.0383655
0.0406721
0.0429595
0.0452204
0.0474475
0.0496337
0.0517716
0.0538537
0.0558726
0.0578209
0.0596912
0.0614764
0.0631692
0.0647627
0.0662501
0.0676247
0.0688802
0.0700106
0.0710103
0.071874
0.0725964
0.0731727
0.0735984
0.0738693
0.073982
0.0739337
0.073722
0.0733448
0.0728006
0.0720879
0.0712057
0.0701536
0.0689315
0.0675399
0.0659795
0.0642518
0.0623583
0.0603009
0.0580815
0.0557026
0.0531664
0.050474
0.0476266
0.0446467
0.0415538
0.0380697
0.0339592
0.0292147
0.0248378
0.0211673
0.0179495
0.0148818
0.0119811
0.00926793
0.00673928
0.0043918
0.00222353
0.000232434
-0.00158371
-0.00322728
-0.00470074
-0.00600668
-0.00714787
-0.00812707
-0.00894705
-0.00961058
-0.0101205
-0.0104799
-0.0106917
-0.0107591
-0.0106851
-0.0104725
-0.0101247
-0.00964505
-0.00903704
-0.00830419
-0.00744998
-0.00647801
-0.00539202
-0.00419594
-0.0028938
-0.00148965
1.24006e-05
0.00160811
0.00329312
0.00506283
0.00691241
0.00883696
0.0108315
0.0128907
0.0150092
0.0171815
0.0194016
0.0216637
0.0239617
0.0262893
0.0286403
0.0310082
0.0333862
0.0357674
0.0381447
0.0405107
0.0428581
0.0451797
0.047468
0.0497156
0.0519151
0.0540586
0.0561387
0.0581477
0.0600782
0.0619227
0.0636737
0.0653239
0.0668661
0.0682935
0.0695994
0.0707776
0.071822
0.072727
0.073487
0.0740967
0.0745511
0.0748461
0.0749777
0.0749427
0.0747383
0.074362
0.0738119
0.0730863
0.0721839
0.0711041
0.0698465
0.0684113
0.0667993
0.0650115
0.0630494
0.0609146
0.0586093
0.0561358
0.0534965
0.0506926
0.0477254
0.0446186
0.0413926