/*--------------------------------*- C++ -*----------------------------------*\
  =========                 |
  \\      /  F ield         | OpenFOAM: The Open Source CFD Toolbox
   \\    /   O peration     | Website:  https://openfoam.org
    \\  /    A nd           | Version:  11
     \\/     M anipulation  |
\*---------------------------------------------------------------------------*/
FoamFile
{
    format      ascii;
    class       surfaceScalarField;
    location    "10";
    object      phi;
}
// * * * * * * * * * * * * * * * * * * * * * * * * * * * * * * * * * * * * * //

dimensions      [0 3 -1 0 0 0 0];

internalField   nonuniform List<scalar> 
19980
(
7.05492e-07
-7.05544e-07
2.48474e-06
-1.77934e-06
4.49749e-06
-2.01272e-06
6.10524e-06
-1.60791e-06
6.94897e-06
-8.43858e-07
6.8398e-06
1.09201e-07
5.68685e-06
1.15297e-06
3.45972e-06
2.22733e-06
1.64177e-07
3.29536e-06
-4.16927e-06
4.3335e-06
-9.49584e-06
5.32672e-06
-1.57607e-05
6.26478e-06
-2.29018e-05
7.14122e-06
-3.0854e-05
7.95211e-06
-3.95485e-05
8.69434e-06
-4.89157e-05
9.36727e-06
-5.88854e-05
9.96973e-06
-6.93874e-05
1.0502e-05
-8.03518e-05
1.09644e-05
-9.17101e-05
1.13584e-05
-0.000103395
1.16847e-05
-0.00011534
1.19449e-05
-0.00012748
1.21407e-05
-0.000139754
1.22735e-05
-0.000152099
1.23451e-05
-0.000164456
1.23577e-05
-0.00017677
1.23132e-05
-0.000188984
1.22138e-05
-0.000201045
1.20614e-05
-0.000212903
1.18581e-05
-0.00022451
1.16062e-05
-0.000235817
1.13077e-05
-0.000246782
1.09646e-05
-0.000257361
1.05791e-05
-0.000267515
1.01537e-05
-0.000277205
9.69031e-06
-0.000286396
9.19097e-06
-0.000295054
8.65796e-06
-0.000303147
8.09367e-06
-0.000310648
7.50028e-06
-0.000317528
6.87988e-06
-0.000323762
6.23473e-06
-0.000329329
5.56712e-06
-0.000334209
4.87938e-06
-0.000338383
4.17383e-06
-0.000341835
3.45281e-06
-0.000344554
2.71863e-06
-0.000346528
1.97366e-06
-0.000347748
1.22048e-06
-0.00034821
4.61648e-07
-0.000347909
-3.00498e-07
-0.000346846
-1.06352e-06
-0.000345021
-1.82484e-06
-0.000342439
-2.58182e-06
-0.000339107
-3.33176e-06
-0.000335036
-4.0718e-06
-0.000330236
-4.79922e-06
-0.000324725
-5.51132e-06
-0.00031852
-6.20544e-06
-0.000311641
-6.87885e-06
-0.000304112
-7.52873e-06
-0.00029596
-8.15217e-06
-0.000287214
-8.74624e-06
-0.000277906
-9.308e-06
-0.000268071
-9.83458e-06
-0.000257748
-1.03233e-05
-0.000246976
-1.07715e-05
-0.0002358
-1.11766e-05
-0.000224264
-1.15356e-05
-0.000212418
-1.18461e-05
-0.000200313
-1.21054e-05
-0.000188002
-1.2311e-05
-0.000175541
-1.24605e-05
-0.000162989
-1.2552e-05
-0.000150406
-1.25832e-05
-0.000137854
-1.25522e-05
-0.000125397
-1.24572e-05
-0.0001131
-1.22966e-05
-0.000101031
-1.20691e-05
-8.92577e-05
-1.17733e-05
-7.78492e-05
-1.14085e-05
-6.68753e-05
-1.09739e-05
-5.64061e-05
-1.04692e-05
-4.65116e-05
-9.89448e-06
-3.72613e-05
-9.25024e-06
-2.87236e-05
-8.53773e-06
-2.09647e-05
-7.75887e-06
-1.40483e-05
-6.91651e-06
-8.03346e-06
-6.01479e-06
-2.97381e-06
-5.05962e-06
1.08559e-06
-4.0594e-06
4.11157e-06
-3.02599e-06
6.08798e-06
-1.97644e-06
7.02395e-06
-9.35965e-07
6.96672e-06
5.72449e-08
6.02245e-06
9.44252e-07
4.38913e-06
1.63334e-06
2.4118e-06
1.97734e-06
6.76389e-07
1.73541e-06
6.76397e-07
1.67487e-06
-2.3802e-06
4.70061e-06
-4.80525e-06
7.70091e-06
-5.01276e-06
9.59008e-06
-3.49693e-06
9.6146e-06
-8.68143e-07
7.29816e-06
2.42539e-06
2.36904e-06
6.08222e-06
-5.3039e-06
9.90015e-06
-1.57505e-05
1.37421e-05
-2.89325e-05
1.75154e-05
-4.47619e-05
2.1156e-05
-6.31161e-05
2.4619e-05
-8.38489e-05
2.78741e-05
-0.000106797
3.09001e-05
-0.000131785
3.36829e-05
-0.000158632
3.62138e-05
-0.00018715
3.84875e-05
-0.00021715
4.05022e-05
-0.000248444
4.22577e-05
-0.000280841
4.37558e-05
-0.000314156
4.49998e-05
-0.000348205
4.59938e-05
-0.000382808
4.67428e-05
-0.000417787
4.72526e-05
-0.000452971
4.75295e-05
-0.000488194
4.75804e-05
-0.000523293
4.74125e-05
-0.000558112
4.70332e-05
-0.000592501
4.64501e-05
-0.000626314
4.5671e-05
-0.000659412
4.47039e-05
-0.000691661
4.35567e-05
-0.000722934
4.22377e-05
-0.00075311
4.07552e-05
-0.000782073
3.91173e-05
-0.000809716
3.73325e-05
-0.000835934
3.5409e-05
-0.000860631
3.33554e-05
-0.000883718
3.11803e-05
-0.00090511
2.88923e-05
-0.00092473
2.65e-05
-0.000942507
2.40119e-05
-0.000958377
2.14371e-05
-0.000972282
1.87846e-05
-0.000984172
1.60634e-05
-0.000994001
1.32824e-05
-0.00100173
1.04508e-05
-0.00100734
7.57791e-06
-0.00101079
4.67334e-06
-0.00101208
1.74687e-06
-0.00101118
-1.19176e-06
-0.00100812
-4.13289e-06
-0.00100287
-7.06665e-06
-0.000995472
-9.98293e-06
-0.000985932
-1.28714e-05
-0.000974283
-1.57213e-05
-0.00096056
-1.85222e-05
-0.000944808
-2.12634e-05
-0.000927079
-2.39345e-05
-0.000907433
-2.65247e-05
-0.000885938
-2.90233e-05
-0.000862671
-3.14192e-05
-0.000837716
-3.37014e-05
-0.000811165
-3.5859e-05
-0.000783119
-3.78811e-05
-0.000753685
-3.97573e-05
-0.000722979
-4.14771e-05
-0.000691126
-4.30302e-05
-0.000658255
-4.44065e-05
-0.000624505
-4.55958e-05
-0.000590022
-4.65887e-05
-0.000554957
-4.73758e-05
-0.000519469
-4.79486e-05
-0.000483722
-4.82988e-05
-0.000447886
-4.84188e-05
-0.000412137
-4.83015e-05
-0.000376654
-4.79404e-05
-0.000341621
-4.73299e-05
-0.000307225
-4.64651e-05
-0.000273656
-4.53424e-05
-0.000241105
-4.39591e-05
-0.000209765
-4.23137e-05
-0.000179828
-4.04062e-05
-0.000151484
-3.82385e-05
-0.00012492
-3.58144e-05
-0.000100317
-3.31405e-05
-7.78494e-05
-3.02267e-05
-5.76791e-05
-2.70868e-05
-3.99537e-05
-2.37402e-05
-2.47998e-05
-2.02135e-05
-1.23165e-05
-1.65427e-05
-2.56479e-06
-1.27777e-05
4.44601e-06
-8.98724e-06
8.77756e-06
-5.26755e-06
1.059e-05
-1.75517e-06
1.01795e-05
1.35468e-06
8.02984e-06
3.78305e-06
4.87213e-06
5.13511e-06
1.73421e-06
4.87333e-06
2.41064e-06
1.80793e-06
-4.18811e-06
4.64236e-06
-7.6395e-06
6.83425e-06
-7.20478e-06
7.11177e-06
-3.77452e-06
4.54084e-06
1.70269e-06
-1.5134e-06
8.47961e-06
-1.14468e-05
1.60156e-05
-2.54711e-05
2.39246e-05
-4.36605e-05
3.19313e-05
-6.59842e-05
3.98392e-05
-9.23354e-05
4.75072e-05
-0.000122551
5.48341e-05
-0.000156424
6.17476e-05
-0.000193719
6.81957e-05
-0.00023418
7.41433e-05
-0.000277532
7.95655e-05
-0.000323492
8.4448e-05
-0.000371771
8.87817e-05
-0.000422078
9.25642e-05
-0.000474119
9.57969e-05
-0.000527604
9.8484e-05
-0.000582243
0.000100633
-0.000637754
0.000102254
-0.000693858
0.000103357
-0.000750283
0.000103955
-0.000806765
0.000104062
-0.000863045
0.000103693
-0.000918875
0.000102863
-0.000974014
0.000101589
-0.00102823
9.98865e-05
-0.0010813
9.7773e-05
-0.00113301
9.52658e-05
-0.00118315
9.23823e-05
-0.00123154
8.91405e-05
-0.00127798
8.55584e-05
-0.0013223
8.16542e-05
-0.00136434
7.74461e-05
-0.00140393
7.29528e-05
-0.00144095
6.8193e-05
-0.00147524
6.31857e-05
-0.00150669
5.79495e-05
-0.00153518
5.25037e-05
-0.00156061
4.6868e-05
-0.00158289
4.10618e-05
-0.00160193
3.51051e-05
-0.00161767
2.90178e-05
-0.00163004
2.28203e-05
-0.00163899
1.6533e-05
-0.0016445
1.01767e-05
-0.00164652
3.7728e-06
-0.00164506
-2.65737e-06
-0.0016401
-9.09215e-06
-0.00163165
-1.55097e-05
-0.00161975
-2.18877e-05
-0.00160442
-2.82037e-05
-0.0015857
-3.44347e-05
-0.00156367
-4.05575e-05
-0.00153838
-4.65491e-05
-0.00150993
-5.2386e-05
-0.00147841
-5.8045e-05
-0.00144393
-6.35023e-05
-0.00140662
-6.87341e-05
-0.0013666
-7.37168e-05
-0.00132403
-7.84266e-05
-0.00127907
-8.28401e-05
-0.0012319
-8.69343e-05
-0.00118269
-9.06866e-05
-0.00113164
-9.40746e-05
-0.00107897
-9.70763e-05
-0.0010249
-9.96706e-05
-0.000969651
-0.000101837
-0.000913472
-0.000103555
-0.000856613
-0.000104807
-0.000799336
-0.000105575
-0.000741912
-0.000105844
-0.000684616
-0.000105597
-0.000627733
-0.000104823
-0.000571554
-0.000103509
-0.000516373
-0.000101646
-0.000462488
-9.92277e-05
-0.000410198
-9.62489e-05
-0.000359803
-9.27084e-05
-0.000311601
-8.86083e-05
-0.000265885
-8.39548e-05
-0.00022294
-7.87589e-05
-0.000183043
-7.30381e-05
-0.000146453
-6.68169e-05
-0.00011341
-6.01295e-05
-8.41282e-05
-5.3022e-05
-5.87853e-05
-4.55563e-05
-3.75131e-05
-3.78149e-05
-2.03827e-05
-2.99081e-05
-7.38593e-06
-2.19841e-05
1.58952e-06
-1.4243e-05
6.79134e-06
-6.95694e-06
8.64252e-06
-4.96484e-07
7.78973e-06
4.63581e-06
5.15441e-06
7.77046e-06
1.98188e-06
8.04588e-06
4.39252e-06
1.4164e-06
-5.60461e-06
3.10363e-06
-9.3268e-06
3.30277e-06
-7.40378e-06
6.83446e-07
-1.15496e-06
-5.74907e-06
8.13517e-06
-1.66959e-05
1.94264e-05
-3.26149e-05
3.19343e-05
-5.37638e-05
4.5074e-05
-8.02452e-05
5.84124e-05
-0.000112036
7.16297e-05
-0.000149017
8.44883e-05
-0.000190995
9.68127e-05
-0.000237722
0.000108474
-0.000288904
0.000119378
-0.000344219
0.000129458
-0.000403319
0.000138665
-0.000465841
0.00014697
-0.000531411
0.000154352
-0.000599649
0.000160802
-0.000670171
0.00016632
-0.000742596
0.000170909
-0.000816543
0.00017458
-0.000891636
0.000177347
-0.000967506
0.000179226
-0.00104379
0.000180239
-0.00112014
0.000180407
-0.0011962
0.000179755
-0.00127164
0.000178307
-0.00134615
0.000176092
-0.0014194
0.000173137
-0.00149109
0.000169471
-0.00156095
0.000165123
-0.00162869
0.000160123
-0.00169405
0.000154502
-0.00175679
0.000148291
-0.00181665
0.000141522
-0.00187343
0.000134225
-0.00192691
0.000126433
-0.0019769
0.000118179
-0.00202321
0.000109495
-0.00206567
0.000100415
-0.00210414
9.09707e-05
-0.00213847
8.11971e-05
-0.00216854
7.1128e-05
-0.00219423
6.07979e-05
-0.00221545
5.02418e-05
-0.00223213
3.9495e-05
-0.00224419
2.85934e-05
-0.00225159
1.75731e-05
-0.00225428
6.47094e-06
-0.00225226
-4.67582e-06
-0.00224553
-1.58295e-05
-0.00223409
-2.69519e-05
-0.00221797
-3.80045e-05
-0.00219722
-4.89481e-05
-0.00217192
-5.97429e-05
-0.00214212
-7.03492e-05
-0.00210795
-8.07266e-05
-0.0020695
-9.08348e-05
-0.00202691
-0.000100633
-0.00198033
-0.000110081
-0.00192993
-0.000119137
-0.00187588
-0.000127761
-0.0018184
-0.000135911
-0.00175769
-0.000143549
-0.00169399
-0.000150633
-0.00162755
-0.000157125
-0.00155864
-0.000162988
-0.00148753
-0.000168182
-0.00141453
-0.000172673
-0.00133994
-0.000176425
-0.00126409
-0.000179405
-0.00118732
-0.000181581
-0.00110997
-0.000182924
-0.00103241
-0.000183407
-0.000955
-0.000183006
-0.000878125
-0.000181698
-0.000802168
-0.000179466
-0.00072752
-0.000176294
-0.000654575
-0.000172173
-0.000583726
-0.000167097
-0.000515369
-0.000161066
-0.000449891
-0.000154086
-0.000387675
-0.000146171
-0.00032909
-0.000137344
-0.00027449
-0.000127638
-0.000224205
-0.000117101
-0.00017854
-0.000105795
-0.000137757
-9.38048e-05
-0.000102073
-8.12397e-05
-7.16443e-05
-6.82439e-05
-4.65465e-05
-5.5006e-05
-2.67578e-05
-4.17726e-05
-1.21327e-05
-2.88681e-05
-2.3708e-06
-1.67188e-05
3.0191e-06
-5.88638e-06
4.76141e-06
2.89351e-06
3.8597e-06
8.67221e-06
1.65555e-06
1.02501e-05
6.04807e-06
7.19562e-07
-6.3242e-06
5.94816e-07
-9.20193e-06
-2.04935e-06
-4.75964e-06
-8.50175e-06
5.29734e-06
-1.97383e-05
1.9372e-05
-3.64632e-05
3.61512e-05
-5.91449e-05
5.46161e-05
-8.80561e-05
7.39851e-05
-0.000123306
9.36622e-05
-0.000164869
0.000113193
-0.000212614
0.000132233
-0.000266323
0.000150521
-0.00032571
0.000167861
-0.000390437
0.000184106
-0.000460126
0.000199147
-0.000534369
0.000212908
-0.000612734
0.000225335
-0.000694776
0.000236394
-0.000780039
0.000246065
-0.000868061
0.000254342
-0.000958379
0.000261227
-0.00105053
0.000266733
-0.00114406
0.000270876
-0.00123852
0.000273682
-0.00133345
0.000275177
-0.00142844
0.000275394
-0.00152305
0.000274367
-0.00161688
0.000272134
-0.00170952
0.000268734
-0.00180059
0.00026421
-0.00188973
0.000258604
-0.00197656
0.000251959
-0.00206076
0.000244322
-0.002142
0.000235738
-0.00221996
0.000226254
-0.00229436
0.000215918
-0.00236491
0.000204779
-0.00243136
0.000192884
-0.00249346
0.000180283
-0.002551
0.000167026
-0.00260375
0.000153164
-0.00265152
0.000138748
-0.00269415
0.000123829
-0.00273149
0.00010846
-0.00276338
9.26922e-05
-0.00278972
7.65806e-05
-0.0028104
6.01788e-05
-0.00282535
4.35417e-05
-0.0028345
2.67247e-05
-0.00283782
9.78413e-06
-0.00283527
-7.22315e-06
-0.00282686
-2.42395e-05
-0.0028126
-4.12065e-05
-0.00279254
-5.80652e-05
-0.00276674
-7.47558e-05
-0.00273526
-9.1218e-05
-0.00269822
-0.000107391
-0.00265573
-0.000123213
-0.00260794
-0.000138624
-0.00255502
-0.00015356
-0.00249714
-0.00016796
-0.00243451
-0.000181762
-0.00236737
-0.000194905
-0.00229595
-0.000207325
-0.00222054
-0.000218964
-0.00214141
-0.000229761
-0.00205888
-0.000239656
-0.00197328
-0.000248592
-0.00188495
-0.000256513
-0.00179426
-0.000263364
-0.00170159
-0.000269093
-0.00160734
-0.000273651
-0.00151193
-0.00027699
-0.00141579
-0.000279068
-0.00131935
-0.000279843
-0.00122308
-0.00027928
-0.00112743
-0.000277349
-0.00103287
-0.000274022
-0.000939884
-0.00026928
-0.000848946
-0.000263111
-0.000760536
-0.000255507
-0.000675129
-0.000246473
-0.000593194
-0.000236021
-0.000515188
-0.000224177
-0.000441554
-0.000210978
-0.000372711
-0.000196482
-0.00030905
-0.000180762
-0.000250924
-0.000163921
-0.000198642
-0.000146087
-0.000152451
-0.000127431
-0.000112526
-0.000108169
-7.89532e-05
-8.85788e-05
-5.17071e-05
-6.90187e-05
-3.06288e-05
-4.99464e-05
-1.53976e-05
-3.195e-05
-5.50041e-06
-1.57836e-05
-1.95791e-07
-2.41115e-06
1.52599e-06
6.95045e-06
9.96612e-07
1.07795e-05
7.04468e-06
-1.55809e-07
-6.16831e-06
-2.53155e-06
-6.82658e-06
-8.6128e-06
1.32154e-06
-1.9571e-05
1.62556e-05
-3.63063e-05
3.61072e-05
-5.94772e-05
5.9322e-05
-8.9526e-05
8.46648e-05
-0.000126709
0.000111168
-0.000171123
0.000138076
-0.000222727
0.000164797
-0.000281371
0.000190877
-0.00034681
0.000215961
-0.000418727
0.000239777
-0.000496742
0.00026212
-0.00058043
0.000282835
-0.00066933
0.000301808
-0.000762953
0.000318958
-0.00086079
0.000334231
-0.000962319
0.000347594
-0.00106701
0.000359033
-0.00117433
0.000368547
-0.00128374
0.000376147
-0.00139472
0.000381855
-0.00150674
0.000385701
-0.00161928
0.000387719
-0.00173184
0.000387954
-0.00184393
0.00038645
-0.00195505
0.000383258
-0.00206475
0.000378434
-0.00217257
0.000372032
-0.00227808
0.000364112
-0.00238086
0.000354736
-0.0024805
0.000343965
-0.00257663
0.000331865
-0.00266888
0.0003185
-0.00275689
0.000303936
-0.00284036
0.000288242
-0.00291896
0.000271486
-0.00299241
0.000253737
-0.00306045
0.000235066
-0.00312283
0.000215543
-0.00317932
0.00019524
-0.00322973
0.000174231
-0.00327385
0.000152588
-0.00331155
0.000130386
-0.00334267
0.000107701
-0.0033671
8.46082e-05
-0.00338474
6.11858e-05
-0.00339553
3.75117e-05
-0.00339941
1.36653e-05
-0.00339636
-1.02731e-05
-0.00338638
-3.42224e-05
-0.00336948
-5.81003e-05
-0.00334572
-8.18238e-05
-0.00331517
-0.000105309
-0.00327792
-0.00012847
-0.00323409
-0.000151223
-0.00318382
-0.000173481
-0.00312728
-0.000195158
-0.00306468
-0.000216167
-0.00299622
-0.00023642
-0.00292215
-0.000255832
-0.00284274
-0.000274316
-0.00275828
-0.000291785
-0.00266908
-0.000308155
-0.0025755
-0.000323343
-0.00247789
-0.000337265
-0.00237664
-0.000349842
-0.00227216
-0.000360995
-0.00216487
-0.00037065
-0.00205524
-0.000378733
-0.00194371
-0.000385177
-0.00183078
-0.000389916
-0.00171696
-0.000392893
-0.00160275
-0.000394051
-0.00148869
-0.000393342
-0.00137531
-0.000390726
-0.00126316
-0.000386169
-0.0011528
-0.000379644
-0.00104477
-0.000371137
-0.000939638
-0.000360643
-0.00083794
-0.000348171
-0.000740221
-0.000333741
-0.000647002
-0.000317395
-0.00055879
-0.000299191
-0.000476061
-0.000279211
-0.000399257
-0.000257566
-0.000328778
-0.0002344
-0.000264969
-0.000209897
-0.000208107
-0.000184292
-0.000158391
-0.000157885
-0.000115921
-0.000131049
-8.06821e-05
-0.000104258
-5.25215e-05
-7.8107e-05
-3.1127e-05
-5.33445e-05
-1.60004e-05
-3.09101e-05
-6.43001e-06
-1.19815e-05
-1.45976e-06
1.98019e-06
1.50021e-07
9.1698e-06
7.19472e-06
-1.12803e-06
-5.04019e-06
-6.02651e-06
-1.928e-06
-1.5938e-05
1.1233e-05
-3.1867e-05
3.21844e-05
-5.45971e-05
5.88374e-05
-8.4705e-05
8.94295e-05
-0.000122576
0.000122536
-0.000168426
0.000157018
-0.000222318
0.000191968
-0.000284186
0.000226665
-0.00035385
0.000260541
-0.000431035
0.000293146
-0.00051539
0.000324132
-0.000606497
0.000353228
-0.000703888
0.000380227
-0.000807055
0.000404975
-0.000915457
0.000427359
-0.00102853
0.000447303
-0.00114569
0.000464757
-0.00126636
0.000479696
-0.00138992
0.000492113
-0.00151579
0.000502018
-0.00164337
0.000509436
-0.00177207
0.000514401
-0.00190131
0.000516958
-0.00203052
0.000517158
-0.00215913
0.000515061
-0.0022866
0.000510732
-0.00241241
0.00050424
-0.00253604
0.000495658
-0.00265699
0.000485063
-0.00277479
0.000472535
-0.00288898
0.000458156
-0.00299912
0.000442011
-0.00310481
0.000424185
-0.00320564
0.000404767
-0.00330124
0.000383846
-0.00339127
0.000361512
-0.00347539
0.000337859
-0.0035533
0.000312978
-0.00362472
0.000286966
-0.0036894
0.000259916
-0.0037471
0.000231927
-0.0037976
0.000203096
-0.00384074
0.000173522
-0.00387635
0.000143306
-0.00390429
0.00011255
-0.00392446
8.1357e-05
-0.00393678
4.98306e-05
-0.00394119
1.80768e-05
-0.00393767
-1.37974e-05
-0.0039262
-4.56838e-05
-0.00390683
-7.74731e-05
-0.0038796
-0.000109055
-0.00384459
-0.000140317
-0.00380192
-0.000171146
-0.00375171
-0.00020143
-0.00369414
-0.000231054
-0.00362939
-0.000259903
-0.0035577
-0.000287862
-0.0034793
-0.000314816
-0.00339448
-0.00034065
-0.00330355
-0.00036525
-0.00320683
-0.000388502
-0.00310469
-0.000410293
-0.00299752
-0.000430514
-0.00288573
-0.000449056
-0.00276976
-0.000465813
-0.00265007
-0.000480683
-0.00252715
-0.000493567
-0.00240152
-0.000504371
-0.00227369
-0.000513004
-0.00214422
-0.000519383
-0.00201368
-0.000523432
-0.00188265
-0.00052508
-0.00175173
-0.000524264
-0.00162152
-0.000520934
-0.00149265
-0.000515047
-0.00136572
-0.000506572
-0.00124136
-0.000495493
-0.0011202
-0.000481807
-0.00100284
-0.000465529
-0.000889888
-0.000446695
-0.000781924
-0.000425359
-0.000679508
-0.000401606
-0.000583169
-0.000375549
-0.000493398
-0.000347338
-0.000410633
-0.000317164
-0.000335257
-0.000285273
-0.00026758
-0.00025197
-0.000207825
-0.000217639
-0.000156119
-0.000182755
-0.000112468
-0.000147909
-7.67456e-05
-0.000113829
-4.86723e-05
-8.14179e-05
-2.77947e-05
-5.17877e-05
-1.34674e-05
-2.63088e-05
-4.8321e-06
-6.65515e-06
-7.96289e-07
5.13406e-06
6.39844e-06
-2.1453e-06
-2.8946e-06
-9.72032e-06
5.64685e-06
-2.37054e-05
2.52181e-05
-4.49098e-05
5.33892e-05
-7.3973e-05
8.79007e-05
-0.000111363
0.00012682
-0.000157387
0.000168559
-0.000212196
0.000211828
-0.000275808
0.00025558
-0.000348113
0.000298971
-0.000428895
0.000341322
-0.000517843
0.000382094
-0.000614568
0.000420857
-0.000718616
0.000457275
-0.000829475
0.000491086
-0.000946592
0.000522093
-0.00106938
0.000550148
-0.00119723
0.000575149
-0.0013295
0.000597027
-0.00146554
0.000615743
-0.00160472
0.000631286
-0.00174636
0.000643661
-0.00188982
0.000652895
-0.00203444
0.000659026
-0.00217959
0.000662108
-0.00232464
0.000662203
-0.00246896
0.000659383
-0.00261195
0.000653727
-0.00275304
0.000645322
-0.00289164
0.000634259
-0.00302721
0.000620634
-0.00315922
0.000604547
-0.00328717
0.000586102
-0.00341056
0.000565404
-0.00352894
0.000542565
-0.00364187
0.000517694
-0.00374893
0.000490905
-0.00384973
0.000462315
-0.00394391
0.00043204
-0.00403113
0.000400199
-0.00411108
0.000366913
-0.00418347
0.000332304
-0.00424803
0.000296496
-0.00430455
0.000259614
-0.00435282
0.000221785
-0.00439265
0.000183138
-0.0044239
0.000143802
-0.00444645
0.000103909
-0.00446021
6.35935e-05
-0.00446513
2.29896e-05
-0.00446116
-1.77657e-05
-0.00444831
-5.85343e-05
-0.0044266
-9.91764e-05
-0.00439611
-0.000139551
-0.00435691
-0.000179515
-0.00430913
-0.000218924
-0.00425293
-0.000257635
-0.00418848
-0.000295501
-0.00411601
-0.000332377
-0.00403575
-0.000368115
-0.003948
-0.000402569
-0.00385306
-0.000435594
-0.00375126
-0.000467043
-0.00364299
-0.000496773
-0.00352865
-0.000524641
-0.00340865
-0.000550508
-0.00328347
-0.000574236
-0.00315359
-0.000595692
-0.00301953
-0.000614746
-0.00288182
-0.000631274
-0.00274104
-0.000645157
-0.00259776
-0.000656282
-0.0024526
-0.000664546
-0.00230618
-0.000669851
-0.00215915
-0.000672111
-0.00201216
-0.000671251
-0.00186589
-0.000667206
-0.00172101
-0.000659926
-0.0015782
-0.000649377
-0.00143815
-0.00063554
-0.00130154
-0.000618417
-0.00116904
-0.000598032
-0.0010413
-0.000574432
-0.000918971
-0.000547694
-0.000802649
-0.000517928
-0.000692917
-0.000485281
-0.000590308
-0.000449947
-0.000495302
-0.000412169
-0.00040832
-0.000372255
-0.000329705
-0.000330585
-0.000259715
-0.000287629
-0.000198509
-0.000243961
-0.00014613
-0.000200287
-0.000102494
-0.000157465
-6.73732e-05
-0.000116539
-4.03839e-05
-7.8777e-05
-2.09738e-05
-4.57189e-05
-8.4131e-06
-1.92159e-05
-1.78825e-06
-1.49071e-06
4.61018e-06
-3.17568e-06
2.80864e-07
-1.35005e-05
1.59719e-05
-3.16925e-05
4.34098e-05
-5.8355e-05
8.00516e-05
-9.39654e-05
0.000123511
-0.000138867
0.000171722
-0.000193269
0.000222961
-0.000257245
0.000275804
-0.000330748
0.000329083
-0.000413616
0.000381839
-0.000505588
0.000433294
-0.000606309
0.000482816
-0.00071535
0.000529898
-0.000832215
0.000574139
-0.00095635
0.000615222
-0.00108716
0.000652904
-0.00122402
0.000687002
-0.00136625
0.000717384
-0.00151319
0.000743962
-0.00166413
0.000766684
-0.00181837
0.000785527
-0.0019752
0.000800494
-0.00213392
0.000811613
-0.00229382
0.000818926
-0.0024542
0.000822495
-0.00261439
0.000822392
-0.00277371
0.000818703
-0.00293151
0.000811524
-0.00308714
0.000800956
-0.00324
0.000787111
-0.00338947
0.000770106
-0.00353498
0.000750062
-0.00367599
0.000727105
-0.00381195
0.000701367
-0.00394237
0.000672981
-0.00406676
0.000642085
-0.00418467
0.000608818
-0.00429568
0.000573322
-0.00439938
0.000535744
-0.00449541
0.000496229
-0.00458342
0.000454926
-0.00466311
0.000411988
-0.00473418
0.000367566
-0.00479638
0.000321817
-0.00484949
0.000274897
-0.00489332
0.000226966
-0.0049277
0.000178185
-0.00495251
0.000128717
-0.00496764
7.87272e-05
-0.00497304
2.83833e-05
-0.00496866
-2.21456e-05
-0.0049545
-7.26885e-05
-0.00493061
-0.000123072
-0.00489704
-0.000173122
-0.00485389
-0.000222662
-0.0048013
-0.000271513
-0.00473944
-0.000319498
-0.0046685
-0.000366436
-0.00458873
-0.000412146
-0.0045004
-0.000456448
-0.00440381
-0.000499162
-0.0042993
-0.000540107
-0.00418724
-0.000579104
-0.00406803
-0.000615976
-0.00394213
-0.000650548
-0.00380999
-0.000682648
-0.00367211
-0.000712107
-0.00352904
-0.000738763
-0.00338133
-0.000762456
-0.00322957
-0.000783034
-0.00307438
-0.000800352
-0.00291639
-0.000814274
-0.00275626
-0.000824673
-0.00259468
-0.000831431
-0.00243234
-0.000834445
-0.00226997
-0.000833624
-0.00210828
-0.000828893
-0.00194802
-0.000820193
-0.00178991
-0.000807484
-0.0016347
-0.000790749
-0.00148313
-0.000769994
-0.00133591
-0.000745252
-0.00119375
-0.000716586
-0.00105735
-0.000684095
-0.000927361
-0.000647918
-0.000804404
-0.000608238
-0.000689057
-0.000565294
-0.000581843
-0.000519384
-0.00048322
-0.000470878
-0.000393572
-0.000420233
-0.000313198
-0.000368003
-0.000242297
-0.000314862
-0.000180962
-0.000261622
-0.000129165
-0.000209263
-8.67462e-05
-0.000158957
-5.34107e-05
-0.000112113
-2.87182e-05
-7.04113e-05
-1.20859e-05
-3.58482e-05
-2.79323e-06
-1.07833e-05
1.81693e-06
-4.19999e-06
4.48086e-06
-1.72935e-05
2.90653e-05
-3.97479e-05
6.58643e-05
-7.19596e-05
0.000112263
-0.000114237
0.000165788
-0.000166787
0.000224272
-0.000229707
0.00028588
-0.000302982
0.000349079
-0.000386489
0.000412591
-0.000480005
0.000475355
-0.000583211
0.0005365
-0.000695705
0.00059531
-0.000817011
0.000651204
-0.000946589
0.000703717
-0.00108384
0.000752477
-0.00122814
0.000797195
-0.00137879
0.000837654
-0.0015351
0.000873691
-0.00169633
0.000905197
-0.00186175
0.000932104
-0.0020306
0.00095438
-0.00220214
0.000972025
-0.00237559
0.000985064
-0.00255021
0.000993546
-0.00272525
0.00099754
-0.00289999
0.000997128
-0.0030737
0.00099241
-0.00324567
0.000983498
-0.00341523
0.000970512
-0.0035817
0.000953584
-0.00374444
0.00093285
-0.00390284
0.000908458
-0.00405629
0.000880557
-0.00420423
0.000849303
-0.0043461
0.000814857
-0.0044814
0.000777384
-0.00460964
0.000737052
-0.00473035
0.000694031
-0.0048431
0.000648498
-0.0049475
0.000600627
-0.00504317
0.000550601
-0.00512979
0.0004986
-0.00520703
0.00044481
-0.00527463
0.000389419
-0.00533235
0.000332616
-0.00537998
0.000274594
-0.00541734
0.000215547
-0.0054443
0.000155673
-0.00546074
9.5172e-05
-0.0054666
3.42452e-05
-0.00546185
-2.69025e-05
-0.00544647
-8.80645e-05
-0.00542051
-0.000149032
-0.00538404
-0.000209594
-0.00533716
-0.000269537
-0.00528003
-0.000328648
-0.00521282
-0.00038671
-0.00513575
-0.000443507
-0.00504907
-0.000498822
-0.00495308
-0.000552436
-0.00484811
-0.000604133
-0.00473452
-0.000653695
-0.00461272
-0.000700908
-0.00448313
-0.000745559
-0.00434624
-0.000787437
-0.00420256
-0.000826337
-0.00405261
-0.000862057
-0.00389697
-0.000894401
-0.00373625
-0.000923178
-0.00357107
-0.000948208
-0.00340211
-0.000969317
-0.00323004
-0.000986344
-0.00305557
-0.000999136
-0.00287945
-0.00100756
-0.00270241
-0.00101148
-0.00252522
-0.00101081
-0.00234867
-0.00100545
-0.00217353
-0.00099533
-0.0020006
-0.000980413
-0.00183067
-0.00096068
-0.00166453
-0.000936142
-0.00150294
-0.000906841
-0.00134666
-0.00087286
-0.00119644
-0.000834319
-0.00105297
-0.000791387
-0.00091692
-0.000744286
-0.000788914
-0.0006933
-0.000669517
-0.000638781
-0.000559229
-0.000581166
-0.000458479
-0.000520982
-0.000367613
-0.000458869
-0.000286882
-0.000395593
-0.000216436
-0.000332068
-0.000156315
-0.000269383
-0.000106443
-0.000208829
-6.66248e-05
-0.000151931
-3.65444e-05
-0.000100492
-1.5775e-05
-5.66176e-05
-3.7918e-06
-2.27665e-05
-1.97487e-06
-5.20695e-06
9.68789e-06
-2.10526e-05
4.4911e-05
-4.77711e-05
9.25828e-05
-8.55569e-05
0.000150049
-0.000134549
0.000214781
-0.000194812
0.000284535
-0.000266323
0.000357392
-0.00034897
0.000431725
-0.000442545
0.000506165
-0.000546752
0.000579563
-0.000661212
0.000650959
-0.000785466
0.000719564
-0.000918987
0.000784726
-0.00106119
0.000845917
-0.00121143
0.000902717
-0.00136902
0.00095479
-0.00153325
0.00100188
-0.00170337
0.00104381
-0.00187859
0.00108043
-0.00205815
0.00111166
-0.00224123
0.00113747
-0.00242705
0.00115784
-0.00261479
0.0011728
-0.00280366
0.00118242
-0.00299287
0.00118675
-0.00318164
0.0011859
-0.0033692
0.00117998
-0.00355482
0.00116911
-0.00373775
0.00115345
-0.0039173
0.00113313
-0.00409277
0.00110832
-0.00426351
0.0010792
-0.00442888
0.00104592
-0.00458827
0.00100869
-0.0047411
0.000967688
-0.00488682
0.000923106
-0.00502491
0.000875143
-0.00515488
0.000824001
-0.00527627
0.000769887
-0.00538865
0.000713011
-0.00549164
0.000653583
-0.00558486
0.000591821
-0.00566799
0.000527944
-0.00574075
0.000462172
-0.00580286
0.000394732
-0.00585412
0.000325851
-0.00589433
0.000255759
-0.00592335
0.00018469
-0.00594105
0.000112881
-0.00594738
4.05701e-05
-0.00594228
-3.19995e-05
-0.00592576
-0.000104584
-0.00589786
-0.000176935
-0.00585865
-0.000248805
-0.00580825
-0.00031994
-0.00574681
-0.000390089
-0.00567452
-0.000458995
-0.00559163
-0.000526403
-0.00549839
-0.000592056
-0.00539513
-0.000655697
-0.00528219
-0.00071707
-0.00515997
-0.00077592
-0.00502888
-0.000831991
-0.00488941
-0.000885035
-0.00474204
-0.000934804
-0.00458732
-0.000981054
-0.00442583
-0.00102355
-0.00425817
-0.00106206
-0.00408499
-0.00109636
-0.00390696
-0.00112624
-0.00372478
-0.0011515
-0.00353918
-0.00117194
-0.00335091
-0.0011874
-0.00316077
-0.00119771
-0.00296953
-0.00120272
-0.00277802
-0.00120232
-0.00258706
-0.00119641
-0.00239748
-0.00118491
-0.00221013
-0.00116777
-0.00202584
-0.00114497
-0.00184544
-0.00111654
-0.00166976
-0.00108252
-0.00149961
-0.00104302
-0.00133575
-0.000998172
-0.00117895
-0.000948187
-0.00102992
-0.00089332
-0.000889317
-0.000833902
-0.000757758
-0.000770341
-0.000635791
-0.000703133
-0.000523895
-0.000632879
-0.000422467
-0.000560297
-0.000331818
-0.000486241
-0.000252167
-0.00041172
-0.000183629
-0.000337921
-0.000126221
-0.000266237
-7.98552e-05
-0.000198297
-4.43489e-05
-0.000135998
-1.94331e-05
-8.15334e-05
-4.77273e-06
-3.74269e-05
-6.74759e-06
-6.19052e-06
1.58782e-05
-2.47499e-05
6.34704e-05
-5.56973e-05
0.00012353
-9.9036e-05
0.000193388
-0.000154738
0.000270482
-0.000222723
0.00035252
-0.000302847
0.000437516
-0.00039489
0.000523768
-0.000498554
0.00060983
-0.000613466
0.000694474
-0.000739176
0.000776669
-0.000875163
0.000855552
-0.00102085
0.00093041
-0.00117559
0.00100066
-0.0013387
0.00106583
-0.00150945
0.00112554
-0.00168707
0.0011795
-0.00187077
0.00122751
-0.00205973
0.00126939
-0.00225313
0.00130506
-0.00245013
0.00133446
-0.00264987
0.00135758
-0.00285152
0.00137446
-0.00305424
0.00138513
-0.0032572
0.0013897
-0.00345956
0.00138827
-0.00366054
0.00138095
-0.00385933
0.00136791
-0.00405518
0.00134929
-0.00424733
0.00132528
-0.00443506
0.00129605
-0.00461767
0.00126181
-0.00479449
0.00122275
-0.00496488
0.00117908
-0.00512823
0.00113104
-0.00528395
0.00107883
-0.00543149
0.00102268
-0.00557034
0.000962847
-0.0057
0.000899552
-0.00582003
0.000833043
-0.00593002
0.000763566
-0.00602957
0.000691374
-0.00611834
0.00061672
-0.00619604
0.000539863
-0.00626237
0.000461065
-0.00631711
0.000380591
-0.00636006
0.00029871
-0.00639106
0.000215694
-0.00641
0.000131817
-0.00641679
4.73599e-05
-0.00641139
-3.73974e-05
-0.00639381
-0.00012217
-0.00636407
-0.000206669
-0.00632227
-0.000290606
-0.00626853
-0.000373686
-0.006203
-0.000455617
-0.00612589
-0.0005361
-0.00603746
-0.000614839
-0.00593798
-0.000691536
-0.00582778
-0.000765892
-0.00570724
-0.000837608
-0.00557677
-0.00090639
-0.00543682
-0.000971943
-0.00528788
-0.00103398
-0.00513049
-0.0010922
-0.0049652
-0.00114634
-0.00479263
-0.00119612
-0.00461343
-0.00124126
-0.00442826
-0.00128153
-0.00423785
-0.00131666
-0.00404292
-0.00134642
-0.00384426
-0.00137061
-0.00364266
-0.001389
-0.00343893
-0.00140143
-0.00323392
-0.00140773
-0.00302849
-0.00140775
-0.0028235
-0.0014014
-0.00261984
-0.00138857
-0.00241839
-0.00136922
-0.00222004
-0.00134333
-0.00202566
-0.00131092
-0.00183612
-0.00127206
-0.00165227
-0.00122686
-0.00147494
-0.0011755
-0.00130493
-0.0011182
-0.001143
-0.00105526
-0.000989849
-0.000987051
-0.000846149
-0.00091404
-0.000712499
-0.000836783
-0.00058943
-0.000755948
-0.000477401
-0.000672327
-0.000376788
-0.000586855
-0.000287882
-0.000500626
-0.000210885
-0.000414918
-0.000145912
-0.000331211
-9.29888e-05
-0.00025122
-5.20664e-05
-0.00017692
-2.30316e-05