/*--------------------------------*- C++ -*----------------------------------*\
  =========                 |
  \\      /  F ield         | OpenFOAM: The Open Source CFD Toolbox
   \\    /   O peration     | Website:  https://openfoam.org
    \\  /    A nd           | Version:  11
     \\/     M anipulation  |
\*---------------------------------------------------------------------------*/
FoamFile
{
    format      ascii;
    class       volVectorField;
    location    "10";
    object      U;
}
// * * * * * * * * * * * * * * * * * * * * * * * * * * * * * * * * * * * * * //

dimensions      [0 1 -1 0 0 0 0];

internalField   nonuniform List<vector> 
10100
(
(2.92105e-06 -3.09387e-06 0)
(1.51329e-05 -8.28483e-06 0)
(3.51055e-05 -9.77216e-06 0)
(5.42967e-05 -8.50109e-06 0)
(6.71957e-05 -5.81768e-06 0)
(7.11957e-05 -2.50981e-06 0)
(6.50452e-05 1.04233e-06 0)
(4.81945e-05 4.61805e-06 0)
(2.05599e-05 8.09842e-06 0)
(-1.76552e-05 1.14313e-05 0)
(-6.60618e-05 1.45747e-05 0)
(-0.000124144 1.75037e-05 0)
(-0.000191317 2.022e-05 0)
(-0.000266935 2.27083e-05 0)
(-0.000350331 2.49689e-05 0)
(-0.000440799 2.70074e-05 0)
(-0.000537648 2.882e-05 0)
(-0.000640175 3.04096e-05 0)
(-0.000747667 3.17841e-05 0)
(-0.000859442 3.29528e-05 0)
(-0.000974819 3.39182e-05 0)
(-0.00109312 3.46864e-05 0)
(-0.0012137 3.52621e-05 0)
(-0.00133592 3.56479e-05 0)
(-0.00145916 3.58511e-05 0)
(-0.00158281 3.58803e-05 0)
(-0.0017063 3.57444e-05 0)
(-0.00182907 3.54499e-05 0)
(-0.00195057 3.5002e-05 0)
(-0.00207029 3.44069e-05 0)
(-0.00218773 3.3671e-05 0)
(-0.00230241 3.28009e-05 0)
(-0.00241388 3.1802e-05 0)
(-0.0025217 3.06811e-05 0)
(-0.00262546 2.9445e-05 0)
(-0.00272477 2.80999e-05 0)
(-0.00281926 2.66516e-05 0)
(-0.00290858 2.51061e-05 0)
(-0.00299241 2.34709e-05 0)
(-0.00307045 2.17534e-05 0)
(-0.00314241 1.99587e-05 0)
(-0.00320804 1.80918e-05 0)
(-0.00326711 1.61593e-05 0)
(-0.00331938 1.41686e-05 0)
(-0.00336469 1.21269e-05 0)
(-0.00340286 1.00414e-05 0)
(-0.00343374 7.91787e-06 0)
(-0.00345723 5.76215e-06 0)
(-0.00347322 3.58195e-06 0)
(-0.00348164 1.38533e-06 0)
(-0.00348245 -8.21186e-07 0)
(-0.00347563 -3.03126e-06 0)
(-0.00346118 -5.23758e-06 0)
(-0.00343913 -7.43242e-06 0)
(-0.00340954 -9.60767e-06 0)
(-0.0033725 -1.1755e-05 0)
(-0.00332811 -1.38665e-05 0)
(-0.00327651 -1.59346e-05 0)
(-0.00321788 -1.79518e-05 0)
(-0.00315241 -1.991e-05 0)
(-0.00308031 -2.18012e-05 0)
(-0.00300183 -2.3617e-05 0)
(-0.00291727 -2.53488e-05 0)
(-0.00282691 -2.69873e-05 0)
(-0.00273111 -2.85237e-05 0)
(-0.00263023 -2.99501e-05 0)
(-0.00252465 -3.12593e-05 0)
(-0.0024148 -3.24435e-05 0)
(-0.00230113 -3.34945e-05 0)
(-0.0021841 -3.44043e-05 0)
(-0.00206421 -3.51648e-05 0)
(-0.001942 -3.57681e-05 0)
(-0.00181801 -3.62068e-05 0)
(-0.0016928 -3.64746e-05 0)
(-0.00156698 -3.65654e-05 0)
(-0.00144115 -3.64734e-05 0)
(-0.00131595 -3.61924e-05 0)
(-0.00119202 -3.57167e-05 0)
(-0.00107003 -3.50411e-05 0)
(-0.000950651 -3.41614e-05 0)
(-0.000834577 -3.30742e-05 0)
(-0.000722499 -3.17763e-05 0)
(-0.000615118 -3.02646e-05 0)
(-0.000513136 -2.85368e-05 0)
(-0.000417251 -2.6592e-05 0)
(-0.000328154 -2.44311e-05 0)
(-0.000246522 -2.20565e-05 0)
(-0.000173006 -1.94726e-05 0)
(-0.000108225 -1.6687e-05 0)
(-5.27467e-05 -1.37113e-05 0)
(-7.07188e-06 -1.05641e-05 0)
(2.8398e-05 -7.27363e-06 0)
(5.34005e-05 -3.88457e-06 0)
(6.78776e-05 -4.71175e-07 0)
(7.20789e-05 2.84204e-06 0)
(6.67213e-05 5.84174e-06 0)
(5.32166e-05 8.15916e-06 0)
(3.41415e-05 9.1414e-06 0)
(1.46258e-05 7.68413e-06 0)
(2.81327e-06 2.81476e-06 0)
(7.25776e-06 -1.48422e-05 0)
(3.08082e-05 -3.2247e-05 0)
(6.32603e-05 -3.54407e-05 0)
(9.0096e-05 -2.76554e-05 0)
(0.000101177 -1.31964e-05 0)
(9.05855e-05 4.98801e-06 0)
(5.48383e-05 2.5056e-05 0)
(-7.97476e-06 4.58388e-05 0)
(-9.85724e-05 6.66095e-05 0)
(-0.000216861 8.68675e-05 0)
(-0.000362167 0.000106306 0)
(-0.000533403 0.000124714 0)
(-0.00072921 0.00014194 0)
(-0.000948027 0.000157902 0)
(-0.00118814 0.000172535 0)
(-0.00144776 0.000185814 0)
(-0.00172505 0.00019771 0)
(-0.0020181 0.000208233 0)
(-0.00232503 0.000217384 0)
(-0.00264394 0.000225181 0)
(-0.00297296 0.000231647 0)
(-0.00331023 0.000236808 0)
(-0.00365392 0.000240695 0)
(-0.00400226 0.000243335 0)
(-0.00435349 0.000244766 0)
(-0.00470593 0.000245026 0)
(-0.00505794 0.000244155 0)
(-0.00540791 0.000242194 0)
(-0.00575431 0.000239182 0)
(-0.00609567 0.00023516 0)
(-0.00643056 0.000230172 0)
(-0.00675762 0.000224258 0)
(-0.00707553 0.00021746 0)
(-0.00738307 0.000209821 0)
(-0.00767905 0.000201386 0)
(-0.00796234 0.000192197 0)
(-0.00823188 0.000182295 0)
(-0.00848669 0.000171725 0)
(-0.00872583 0.000160531 0)
(-0.00894842 0.00014876 0)
(-0.00915366 0.000136452 0)
(-0.00934082 0.000123653 0)
(-0.00950921 0.000110408 0)
(-0.00965822 9.67629e-05 0)
(-0.00978731 8.27649e-05 0)
(-0.009896 6.84596e-05 0)
(-0.00998389 5.38933e-05 0)
(-0.0100506 3.91136e-05 0)
(-0.010096 2.41702e-05 0)
(-0.0101197 9.11356e-06 0)
(-0.0101217 -6.00724e-06 0)
(-0.0101019 -2.11434e-05 0)
(-0.0100603 -3.62444e-05 0)
(-0.00999704 -5.12583e-05 0)
(-0.00991227 -6.61314e-05 0)
(-0.00980624 -8.08082e-05 0)
(-0.00967928 -9.52342e-05 0)
(-0.00953179 -0.000109356 0)
(-0.00936424 -0.000123119 0)
(-0.00917721 -0.000136469 0)
(-0.00897133 -0.000149351 0)
(-0.00874732 -0.000161707 0)
(-0.00850599 -0.000173479 0)
(-0.00824822 -0.00018461 0)
(-0.00797498 -0.000195044 0)
(-0.0076873 -0.000204727 0)
(-0.00738631 -0.000213605 0)
(-0.0070732 -0.000221626 0)
(-0.00674924 -0.000228735 0)
(-0.00641579 -0.000234879 0)
(-0.00607426 -0.000240009 0)
(-0.00572614 -0.000244076 0)
(-0.00537297 -0.000247033 0)
(-0.00501639 -0.000248838 0)
(-0.00465805 -0.00024945 0)
(-0.00429969 -0.000248832 0)
(-0.00394308 -0.000246947 0)
(-0.00359004 -0.000243765 0)
(-0.00324243 -0.000239259 0)
(-0.00290214 -0.000233405 0)
(-0.00257107 -0.000226189 0)
(-0.00225115 -0.000217597 0)
(-0.0019443 -0.000207625 0)
(-0.00165243 -0.000196277 0)
(-0.00137744 -0.000183566 0)
(-0.00112117 -0.000169519 0)
(-0.000885413 -0.000154178 0)
(-0.000671849 -0.000137604 0)
(-0.000482042 -0.000119887 0)
(-0.000317378 -0.000101151 0)
(-0.000179005 -8.15712e-05 0)
(-6.77511e-05 -6.13934e-05 0)
(1.59921e-05 -4.09683e-05 0)
(7.24313e-05 -2.08051e-05 0)
(0.000102606 -1.65781e-06 0)
(0.000108707 1.5344e-05 0)
(9.44364e-05 2.84993e-05 0)
(6.55805e-05 3.52423e-05 0)
(3.18654e-05 3.18653e-05 0)
(7.67198e-06 1.46135e-05 0)
(8.24582e-06 -3.3149e-05 0)
(3.22275e-05 -6.37178e-05 0)
(6.03402e-05 -6.43517e-05 0)
(7.56531e-05 -4.18032e-05 0)
(6.61489e-05 -3.82861e-06 0)
(2.42513e-05 4.36523e-05 0)
(-5.49674e-05 9.64867e-05 0)
(-0.000174406 0.000151833 0)
(-0.000335422 0.000207686 0)
(-0.000538163 0.000262691 0)
(-0.000781863 0.000315878 0)
(-0.00106515 0.000366564 0)
(-0.00138614 0.000414283 0)
(-0.00174258 0.0004587 0)
(-0.00213202 0.000499599 0)
(-0.00255176 0.000536825 0)
(-0.00299903 0.000570307 0)
(-0.00347095 0.000599989 0)
(-0.0039646 0.000625871 0)
(-0.00447706 0.000647973 0)
(-0.0050054 0.000666332 0)
(-0.00554673 0.00068101 0)
(-0.00609818 0.000692077 0)
(-0.00665693 0.000699615 0)
(-0.00722025 0.000703714 0)
(-0.00778543 0.000704473 0)
(-0.00834986 0.000701995 0)
(-0.00891103 0.00069639 0)
(-0.00946646 0.000687768 0)
(-0.0100138 0.000676244 0)
(-0.0105508 0.000661934 0)
(-0.0110752 0.000644958 0)
(-0.0115849 0.000625435 0)
(-0.0120781 0.000603489 0)
(-0.0125526 0.00057924 0)
(-0.0130069 0.000552813 0)
(-0.0134391 0.000524331 0)
(-0.0138476 0.000493919 0)
(-0.014231 0.000461706 0)
(-0.0145879 0.00042782 0)
(-0.0149169 0.000392386 0)
(-0.0152168 0.000355534 0)
(-0.0154867 0.000317397 0)
(-0.0157255 0.000278107 0)
(-0.0159322 0.000237799 0)
(-0.0161063 0.000196606 0)
(-0.0162469 0.000154665 0)
(-0.0163537 0.000112114 0)
(-0.016426 6.90944e-05 0)
(-0.0164637 2.57509e-05 0)
(-0.0164666 -1.77723e-05 0)
(-0.0164344 -6.13305e-05 0)
(-0.0163674 -0.000104777 0)
(-0.0162656 -0.000147961 0)
(-0.0161293 -0.000190729 0)
(-0.0159589 -0.000232925 0)
(-0.015755 -0.000274392 0)
(-0.0155182 -0.000314975 0)
(-0.0152493 -0.000354515 0)
(-0.0149492 -0.000392855 0)
(-0.0146189 -0.000429834 0)
(-0.0142596 -0.00046529 0)
(-0.0138726 -0.000499061 0)
(-0.0134593 -0.000530986 0)
(-0.0130213 -0.000560904 0)
(-0.0125601 -0.00058866 0)
(-0.0120777 -0.0006141 0)
(-0.011576 -0.000637072 0)
(-0.0110568 -0.000657426 0)
(-0.0105226 -0.000675014 0)
(-0.00997536 -0.000689696 0)
(-0.00941762 -0.000701336 0)
(-0.00885179 -0.000709807 0)
(-0.00828046 -0.000714989 0)
(-0.00770627 -0.000716768 0)
(-0.00713197 -0.000715043 0)
(-0.00656037 -0.000709719 0)
(-0.00599434 -0.000700714 0)
(-0.0054368 -0.000687961 0)
(-0.00489073 -0.000671407 0)
(-0.00435912 -0.000651015 0)
(-0.00384496 -0.00062677 0)
(-0.00335124 -0.000598675 0)
(-0.00288094 -0.000566764 0)
(-0.00243694 -0.000531101 0)
(-0.00202207 -0.000491791 0)
(-0.00163901 -0.000448989 0)
(-0.00129029 -0.000402911 0)
(-0.000978192 -0.000353856 0)
(-0.00070469 -0.000302228 0)
(-0.000471365 -0.000248579 0)
(-0.000279274 -0.000193655 0)
(-0.000128783 -0.000138479 0)
(-1.93581e-05 -8.4463e-05 0)
(5.07201e-05 -3.35722e-05 0)
(8.47118e-05 1.14437e-05 0)
(8.77607e-05 4.67528e-05 0)
(6.73719e-05 6.71069e-05 0)
(3.53605e-05 6.56052e-05 0)
(9.14548e-06 3.41269e-05 0)
(7.15033e-06 -5.02015e-05 0)
(2.45156e-05 -8.84981e-05 0)
(3.72251e-05 -7.90923e-05 0)
(2.82035e-05 -3.30771e-05 0)
(-1.49198e-05 3.83343e-05 0)
(-0.000100424 0.000126161 0)
(-0.000233881 0.000223787 0)
(-0.000418787 0.000326362 0)
(-0.000656852 0.000430377 0)
(-0.000948383 0.000533286 0)
(-0.00129263 0.000633236 0)
(-0.00168798 0.00072887 0)
(-0.00213217 0.000819228 0)
(-0.00262249 0.000903595 0)
(-0.0031558 0.000981487 0)
(-0.00372875 0.00105256 0)
(-0.00433778 0.0011166 0)
(-0.00497917 0.00117349 0)
(-0.00564916 0.00122316 0)
(-0.00634391 0.00126563 0)
(-0.0070596 0.00130095 0)
(-0.00779239 0.0013292 0)
(-0.00853852 0.0013505 0)
(-0.00929424 0.001365 0)
(-0.0100559 0.00137285 0)
(-0.0108199 0.00137424 0)
(-0.0115828 0.00136935 0)
(-0.0123411 0.00135838 0)
(-0.0130917 0.00134155 0)
(-0.0138312 0.00131907 0)
(-0.0145567 0.00129116 0)
(-0.0152652 0.00125805 0)
(-0.0159538 0.00121998 0)
(-0.01662 0.00117717 0)
(-0.017261 0.00112986 0)
(-0.0178746 0.0010783 0)
(-0.0184584 0.00102272 0)
(-0.0190102 0.000963379 0)
(-0.019528 0.000900512 0)
(-0.0200099 0.000834371 0)
(-0.0204542 0.000765209 0)
(-0.0208592 0.000693277 0)
(-0.0212235 0.000618834 0)
(-0.0215458 0.000542141 0)
(-0.0218248 0.00046346 0)
(-0.0220596 0.000383054 0)
(-0.0222493 0.000301192 0)
(-0.0223931 0.000218147 0)
(-0.0224905 0.000134195 0)
(-0.0225411 4.96155e-05 0)
(-0.0225445 -3.53083e-05 0)
(-0.0225007 -0.00012029 0)
(-0.0224097 -0.00020504 0)
(-0.0222718 -0.000289263 0)
(-0.0220874 -0.000372662 0)
(-0.021857 -0.000454935 0)
(-0.0215812 -0.000535775 0)
(-0.0212611 -0.000614878 0)
(-0.0208977 -0.000691934 0)
(-0.0204922 -0.000766635 0)
(-0.0200459 -0.000838669 0)
(-0.0195606 -0.000907723 0)
(-0.0190379 -0.000973483 0)
(-0.0184797 -0.00103564 0)
(-0.0178882 -0.00109388 0)
(-0.0172656 -0.00114791 0)
(-0.0166142 -0.00119742 0)
(-0.0159368 -0.00124212 0)
(-0.015236 -0.00128173 0)
(-0.0145147 -0.00131596 0)
(-0.0137759 -0.00134455 0)
(-0.0130229 -0.00136723 0)
(-0.0122589 -0.00138377 0)
(-0.0114875 -0.00139394 0)
(-0.010712 -0.00139751 0)
(-0.0099362 -0.00139432 0)
(-0.00916383 -0.00138417 0)
(-0.00839871 -0.00136693 0)
(-0.00764471 -0.00134247 0)
(-0.00690576 -0.00131072 0)
(-0.00618582 -0.00127161 0)
(-0.00548882 -0.00122513 0)
(-0.00481869 -0.00117133 0)
(-0.00417929 -0.00111029 0)
(-0.00357438 -0.00104218 0)
(-0.00300761 -0.000967221 0)
(-0.0024824 -0.000885769 0)
(-0.00200195 -0.000798286 0)
(-0.00156911 -0.000705394 0)
(-0.00118632 -0.000607925 0)
(-0.000855465 -0.000506978 0)
(-0.000577757 -0.000404011 0)
(-0.000353525 -0.00030096 0)
(-0.000181999 -0.000200411 0)
(-6.10271e-05 -0.000105826 0)
(1.32639e-05 -2.18436e-05 0)
(4.67696e-05 4.53498e-05 0)
(4.78234e-05 8.76578e-05 0)
(2.89558e-05 9.47487e-05 0)
(8.22783e-06 5.33112e-05 0)
(4.90961e-06 -6.1424e-05 0)
(1.10927e-05 -9.76233e-05 0)
(5.64281e-07 -6.86321e-05 0)
(-4.20163e-05 1.03033e-05 0)
(-0.000128359 0.000124661 0)
(-0.00026673 0.000262615 0)
(-0.00046286 0.000415108 0)
(-0.000720363 0.000575283 0)
(-0.00104107 0.00073801 0)
(-0.00142534 0.000899418 0)
(-0.00187232 0.00105661 0)
(-0.00238021 0.00120745 0)
(-0.00294647 0.00135031 0)
(-0.00356793 0.00148402 0)
(-0.00424099 0.00160771 0)
(-0.0049617 0.00172079 0)
(-0.00572583 0.00182283 0)
(-0.00652898 0.00191358 0)
(-0.00736665 0.00199292 0)
(-0.00823422 0.0020608 0)
(-0.00912707 0.00211727 0)
(-0.0100406 0.00216245 0)
(-0.0109701 0.00219648 0)
(-0.0119111 0.00221958 0)
(-0.0128592 0.00223198 0)
(-0.0138099 0.00223396 0)
(-0.0147589 0.0022258 0)
(-0.0157021 0.00220782 0)
(-0.0166354 0.00218035 0)
(-0.017555 0.00214373 0)
(-0.0184569 0.00209832 0)
(-0.0193376 0.00204446 0)
(-0.0201936 0.00198254 0)
(-0.0210216 0.00191293 0)
(-0.0218183 0.00183602 0)
(-0.0225808 0.00175219 0)
(-0.0233062 0.00166183 0)
(-0.0239919 0.00156534 0)
(-0.0246352 0.00146312 0)
(-0.025234 0.00135558 0)
(-0.0257859 0.00124313 0)
(-0.026289 0.00112618 0)
(-0.0267414 0.00100514 0)
(-0.0271416 0.00088045 0)
(-0.027488 0.000752527 0)
(-0.0277795 0.000621808 0)
(-0.0280148 0.000488729 0)
(-0.0281931 0.000353736 0)
(-0.0283138 0.000217279 0)
(-0.0283762 7.98113e-05 0)
(-0.02838 -5.82039e-05 0)
(-0.0283252 -0.0001963 0)
(-0.0282118 -0.000334002 0)
(-0.0280401 -0.000470833 0)
(-0.0278106 -0.000606309 0)
(-0.027524 -0.000739938 0)
(-0.0271811 -0.000871226 0)
(-0.0267832 -0.000999675 0)
(-0.0263314 -0.00112479 0)
(-0.0258274 -0.00124605 0)
(-0.0252729 -0.00136298 0)
(-0.0246698 -0.00147505 0)
(-0.0240204 -0.00158176 0)
(-0.0233269 -0.00168262 0)
(-0.0225921 -0.00177713 0)
(-0.0218186 -0.00186479 0)
(-0.0210095 -0.00194513 0)
(-0.020168 -0.00201767 0)
(-0.0192975 -0.00208195 0)
(-0.0184014 -0.00213754 0)
(-0.0174836 -0.00218399 0)
(-0.0165481 -0.0022209 0)
(-0.0155987 -0.00224788 0)
(-0.0146399 -0.00226458 0)
(-0.0136759 -0.00227067 0)
(-0.0127112 -0.00226584 0)
(-0.0117504 -0.00224983 0)
(-0.0107982 -0.00222242 0)
(-0.00985928 -0.00218344 0)
(-0.00893847 -0.00213278 0)
(-0.00804054 -0.00207037 0)
(-0.00717028 -0.00199622 0)
(-0.00633242 -0.00191042 0)
(-0.0055316 -0.00181317 0)
(-0.00477233 -0.00170474 0)
(-0.00405893 -0.00158559 0)
(-0.00339548 -0.00145631 0)
(-0.00278573 -0.00131768 0)
(-0.002233 -0.00117078 0)
(-0.0017401 -0.00101696 0)
(-0.00130919 -0.000858018 0)
(-0.000941624 -0.000696253 0)
(-0.00063775 -0.000534669 0)
(-0.000396713 -0.000377163 0)
(-0.000216186 -0.000228803 0)
(-9.20749e-05 -9.61734e-05 0)
(-1.82489e-05 1.2198e-05 0)
(1.38348e-05 8.54355e-05 0)
(1.63672e-05 0.000109835 0)
(6.02632e-06 6.71659e-05 0)
(2.05061e-06 -6.4563e-05 0)
(-5.79229e-06 -8.59544e-05 0)
(-4.4908e-05 -2.61763e-05 0)
(-0.0001276 9.5978e-05 0)
(-0.000264119 0.00026307 0)
(-0.000462291 0.000460664 0)
(-0.000727531 0.000677432 0)
(-0.00106327 0.000904609 0)
(-0.00147119 0.0011354 0)
(-0.00195152 0.00136459 0)
(-0.00250326 0.00158817 0)
(-0.00312438 0.00180309 0)
(-0.00381203 0.00200701 0)
(-0.00456269 0.00219818 0)
(-0.00537231 0.00237532 0)
(-0.00623643 0.00253746 0)
(-0.00715029 0.00268396 0)
(-0.00810888 0.00281438 0)
(-0.00910702 0.00292846 0)
(-0.0101394 0.00302612 0)
(-0.0112008 0.00310736 0)
(-0.0122858 0.0031723 0)
(-0.0133891 0.00322114 0)
(-0.0145054 0.00325415 0)
(-0.0156295 0.00327166 0)
(-0.0167562 0.00327401 0)
(-0.0178807 0.00326163 0)
(-0.0189979 0.00323495 0)
(-0.0201031 0.00319443 0)
(-0.0211919 0.00314056 0)
(-0.0222596 0.00307385 0)
(-0.023302 0.00299481 0)
(-0.0243151 0.00290399 0)
(-0.0252949 0.00280192 0)
(-0.0262376 0.00268916 0)
(-0.0271398 0.00256627 0)
(-0.027998 0.00243383 0)
(-0.0288091 0.00229241 0)
(-0.02957 0.00214261 0)
(-0.0302781 0.00198502 0)
(-0.0309308 0.00182022 0)
(-0.0315257 0.00164885 0)
(-0.0320607 0.00147149 0)
(-0.0325337 0.00128879 0)
(-0.0329432 0.00110136 0)
(-0.0332876 0.00090984 0)
(-0.0335656 0.000714878 0)
(-0.0337762 0.000517122 0)
(-0.0339185 0.000317235 0)
(-0.0339919 0.000115884 0)
(-0.0339961 -8.62533e-05 0)
(-0.0339309 -0.000288491 0)
(-0.0337965 -0.000490135 0)
(-0.0335931 -0.000690482 0)
(-0.0333213 -0.000888825 0)
(-0.032982 -0.00108445 0)
(-0.0325763 -0.00127662 0)
(-0.0321054 -0.00146463 0)
(-0.0315709 -0.00164773 0)
(-0.0309747 -0.00182519 0)
(-0.0303188 -0.00199627 0)
(-0.0296055 -0.00216025 0)
(-0.0288374 -0.00231639 0)
(-0.0280173 -0.00246395 0)
(-0.0271482 -0.00260222 0)
(-0.0262334 -0.00273049 0)
(-0.0252765 -0.00284806 0)
(-0.0242813 -0.00295424 0)
(-0.0232515 -0.00304838 0)
(-0.0221916 -0.00312982 0)
(-0.0211058 -0.00319796 0)
(-0.0199988 -0.0032522 0)
(-0.0188753 -0.003292 0)
(-0.0177403 -0.00331685 0)
(-0.0165989 -0.00332627 0)
(-0.0154562 -0.00331985 0)
(-0.0143176 -0.00329722 0)
(-0.0131886 -0.0032581 0)
(-0.0120747 -0.00320224 0)
(-0.0109814 -0.00312951 0)
(-0.00991419 -0.00303986 0)
(-0.00887867 -0.00293332 0)
(-0.00788026 -0.00281008 0)
(-0.00692429 -0.00267045 0)
(-0.00601591 -0.0025149 0)
(-0.00516006 -0.00234413 0)
(-0.00436134 -0.00215903 0)
(-0.003624 -0.00196083 0)
(-0.00295178 -0.00175107 0)
(-0.00234783 -0.00153177 0)
(-0.00181457 -0.00130549 0)
(-0.00135352 -0.00107548 0)
(-0.000965175 -0.000845887 0)
(-0.000648744 -0.000621976 0)
(-0.000401964 -0.00041044 0)
(-0.000220849 -0.000219774 0)
(-9.94374e-05 -6.07346e-05 0)
(-2.94618e-05 5.32154e-05 0)
(1.18773e-07 0.000105311 0)
(3.18712e-06 7.32334e-05 0)
(-1.08822e-06 -5.83247e-05 0)
(-2.46326e-05 -5.00962e-05 0)
(-9.57761e-05 5.30085e-05 0)
(-0.000222994 0.000229481 0)
(-0.000414602 0.000459375 0)
(-0.000677591 0.000726028 0)
(-0.00101674 0.00101607 0)
(-0.00143501 0.00131892 0)
(-0.00193374 0.00162624 0)
(-0.00251285 0.00193145 0)
(-0.00317108 0.00222943 0)
(-0.00390611 0.00251616 0)
(-0.00471478 0.00278855 0)
(-0.00559319 0.00304422 0)
(-0.0065369 0.00328137 0)
(-0.007541 0.00349866 0)
(-0.00860022 0.00369515 0)
(-0.00970902 0.00387019 0)
(-0.0108617 0.00402336 0)
(-0.0120523 0.00415448 0)
(-0.0132749 0.00426351 0)
(-0.0145236 0.00435057 0)
(-0.0157923 0.00441589 0)
(-0.0170752 0.00445978 0)
(-0.0183663 0.00448266 0)
(-0.0196599 0.00448498 0)
(-0.0209504 0.00446729 0)
(-0.0222322 0.00443014 0)
(-0.0234999 0.00437417 0)
(-0.0247483 0.0043 0)
(-0.0259724 0.00420833 0)
(-0.0271673 0.00409984 0)
(-0.0283284 0.00397526 0)
(-0.0294511 0.00383532 0)
(-0.0305313 0.00368078 0)
(-0.0315648 0.0035124 0)
(-0.0325479 0.00333097 0)
(-0.0334769 0.00313727 0)
(-0.0343484 0.00293209 0)
(-0.0351593 0.00271627 0)
(-0.0359066 0.0024906 0)
(-0.0365877 0.00225593 0)
(-0.0372002 0.0020131 0)
(-0.0377417 0.00176295 0)
(-0.0382103 0.00150634 0)
(-0.0386044 0.00124416 0)
(-0.0389224 0.000977278 0)
(-0.0391632 0.00070659 0)
(-0.0393259 0.000433002 0)
(-0.0394096 0.00015743 0)
(-0.0394141 -0.000119197 0)
(-0.0393391 -0.00039594 0)
(-0.0391849 -0.00067185 0)
(-0.0389517 -0.000945966 0)
(-0.0386402 -0.00121732 0)
(-0.0382515 -0.00148493 0)
(-0.0377867 -0.0017478 0)
(-0.0372474 -0.00200496 0)
(-0.0366353 -0.00225539 0)
(-0.0359525 -0.00249809 0)
(-0.0352014 -0.00273208 0)
(-0.0343846 -0.00295633 0)
(-0.033505 -0.00316986 0)
(-0.0325659 -0.00337168 0)
(-0.0315707 -0.00356081 0)
(-0.0305231 -0.00373628 0)
(-0.0294273 -0.00389716 0)
(-0.0282873 -0.00404251 0)
(-0.0271078 -0.00417143 0)
(-0.0258936 -0.00428308 0)
(-0.0246495 -0.0043766 0)
(-0.0233808 -0.00445123 0)
(-0.022093 -0.00450623 0)
(-0.0207915 -0.0045409 0)
(-0.0194822 -0.00455465 0)
(-0.0181709 -0.0045469 0)
(-0.0168638 -0.00451721 0)
(-0.0155668 -0.00446519 0)
(-0.0142862 -0.00439056 0)
(-0.0130282 -0.00429315 0)
(-0.0117991 -0.00417293 0)
(-0.010605 -0.00403002 0)
(-0.00945195 -0.00386468 0)
(-0.00834594 -0.0036774 0)
(-0.00729268 -0.00346887 0)
(-0.00629763 -0.00324007 0)
(-0.00536592 -0.00299228 0)
(-0.00450221 -0.00272718 0)
(-0.00371065 -0.00244689 0)
(-0.00299471 -0.00215413 0)
(-0.00235711 -0.00185229 0)
(-0.00179963 -0.00154562 0)
(-0.00132298 -0.00123943 0)
(-0.000926612 -0.000940363 0)
(-0.000608537 -0.000656692 0)
(-0.000365151 -0.000398714 0)
(-0.000190986 -0.000179227 0)
(-7.84302e-05 -1.39951e-05 0)
(-1.81612e-05 7.76235e-05 0)
(6.57353e-08 7.01891e-05 0)
(-4.32492e-06 -4.20467e-05 0)
(-4.44437e-05 1.19839e-05 0)
(-0.000149643 0.000172037 0)
(-0.000324218 0.000414549 0)
(-0.000574201 0.000717666 0)
(-0.000905479 0.00106281 0)
(-0.00132198 0.00143486 0)
(-0.00182594 0.00182161 0)
(-0.00241818 0.00221326 0)
(-0.00309818 0.00260196 0)
(-0.00386427 0.00298146 0)
(-0.0047138 0.00334681 0)
(-0.00564322 0.00369411 0)
(-0.00664829 0.00402034 0)
(-0.00772416 0.00432316 0)
(-0.00886546 0.00460081 0)
(-0.0100665 0.004852 0)
(-0.0113212 0.00507584 0)
(-0.0126234 0.00527174 0)
(-0.0139666 0.00543939 0)
(-0.0153443 0.00557869 0)
(-0.01675 0.00568973 0)
(-0.0181772 0.00577277 0)
(-0.0196192 0.00582818 0)
(-0.0210697 0.00585643 0)
(-0.0225222 0.00585811 0)
(-0.0239705 0.00583387 0)
(-0.0254086 0.00578443 0)
(-0.0268304 0.00571056 0)
(-0.0282302 0.00561309 0)
(-0.0296025 0.00549287 0)
(-0.0309417 0.0053508 0)
(-0.0322427 0.00518781 0)
(-0.0335006 0.00500484 0)
(-0.0347106 0.00480287 0)
(-0.0358682 0.00458288 0)
(-0.0369691 0.0043459 0)
(-0.0380093 0.00409294 0)
(-0.0389851 0.00382504 0)
(-0.039893 0.00354327 0)
(-0.0407296 0.00324868 0)
(-0.0414919 0.00294237 0)
(-0.0421773 0.00262542 0)
(-0.0427833 0.00229895 0)
(-0.0433077 0.00196408 0)
(-0.0437485 0.00162196 0)
(-0.0441043 0.00127372 0)
(-0.0443736 0.000920549 0)
(-0.0445553 0.000563613 0)
(-0.0446488 0.000204114 0)
(-0.0446536 -0.000156739 0)
(-0.0445695 -0.000517719 0)
(-0.0443966 -0.00087759 0)
(-0.0441354 -0.0012351 0)
(-0.0437867 -0.00158898 0)
(-0.0433514 -0.00193797 0)
(-0.0428311 -0.00228076 0)
(-0.0422273 -0.00261608 0)
(-0.0415422 -0.00294263 0)
(-0.0407779 -0.0032591 0)
(-0.0399371 -0.00356419 0)
(-0.0390228 -0.00385661 0)
(-0.0380382 -0.00413507 0)
(-0.036987 -0.00439828 0)
(-0.0358728 -0.00464498 0)
(-0.0347 -0.00487392 0)
(-0.033473 -0.00508388 0)
(-0.0321964 -0.00527368 0)
(-0.0308754 -0.00544215 0)
(-0.0295152 -0.00558818 0)
(-0.0281213 -0.00571072 0)
(-0.0266994 -0.00580875 0)
(-0.0252557 -0.00588135 0)
(-0.0237962 -0.00592765 0)
(-0.0223273 -0.00594686 0)
(-0.0208556 -0.0059383 0)
(-0.0193876 -0.00590139 0)
(-0.0179302 -0.00583566 0)
(-0.01649 -0.00574081 0)
(-0.0150741 -0.00561663 0)
(-0.0136891 -0.00546314 0)
(-0.0123419 -0.00528051 0)
(-0.0110391 -0.00506916 0)
(-0.00978715 -0.00482975 0)
(-0.00859239 -0.00456323 0)
(-0.00746074 -0.00427091 0)
(-0.00639776 -0.00395448 0)
(-0.00540856 -0.00361613 0)
(-0.00449767 -0.0032586 0)
(-0.00366892 -0.00288534 0)
(-0.00292537 -0.00250059 0)
(-0.00226913 -0.00210962 0)
(-0.00170125 -0.00171891 0)
(-0.00122156 -0.00133642 0)
(-0.000828525 -0.000971903 0)
(-0.000519157 -0.000637318 0)
(-0.00028873 -0.000347271 0)
(-0.000130572 -0.000119479 0)
(-3.74367e-05 2.46216e-05 0)
(-3.14065e-06 5.73574e-05 0)
(-7.55855e-06 -1.54702e-05 0)
(-6.45845e-05 0.000101363 0)
(-0.000204908 0.000332687 0)
(-0.000428456 0.000653547 0)
(-0.000738832 0.00104063 0)
(-0.00114067 0.00147383 0)
(-0.00163684 0.00193653 0)
(-0.0022287 0.00241512 0)
(-0.00291636 0.00289848 0)
(-0.00369876 0.00337757 0)
(-0.00457373 0.00384508 0)
(-0.00553818 0.00429515 0)
(-0.00658815 0.00472308 0)
(-0.00771899 0.00512519 0)
(-0.00892542 0.00549857 0)
(-0.0102017 0.00584104 0)
(-0.0115416 0.00615095 0)
(-0.0129388 0.00642712 0)
(-0.0143863 0.00666877 0)
(-0.0158775 0.00687546 0)
(-0.0174051 0.007047 0)
(-0.0189623 0.00718345 0)
(-0.0205418 0.00728508 0)
(-0.0221366 0.0073523 0)
(-0.0237398 0.00738568 0)
(-0.0253443 0.0073859 0)
(-0.0269435 0.00735373 0)
(-0.0285307 0.00729007 0)
(-0.0300995 0.00719584 0)
(-0.0316434 0.00707205 0)
(-0.0331565 0.00691977 0)
(-0.0346328 0.0067401 0)
(-0.0360668 0.00653419 0)
(-0.0374529 0.00630321 0)
(-0.038786 0.00604839 0)
(-0.0400612 0.00577096 0)
(-0.0412738 0.00547218 0)
(-0.0424195 0.00515333 0)
(-0.043494 0.00481573 0)
(-0.0444935 0.00446069 0)
(-0.0454146 0.00408956 0)
(-0.0462538 0.0037037 0)
(-0.0470082 0.00330449 0)
(-0.0476752 0.00289332 0)
(-0.0482523 0.00247161 0)
(-0.0487374 0.00204079 0)
(-0.0491289 0.00160231 0)
(-0.0494251 0.00115764 0)
(-0.049625 0.000708263 0)
(-0.0497278 0.000255688 0)
(-0.0497329 -0.000198563 0)
(-0.0496402 -0.000652951 0)
(-0.0494498 -0.00110592 0)
(-0.0491623 -0.00155589 0)
(-0.0487784 -0.00200128 0)
(-0.0482993 -0.00244049 0)
(-0.0477266 -0.00287191 0)
(-0.0470621 -0.00329391 0)
(-0.0463079 -0.00370487 0)
(-0.0454667 -0.00410315 0)
(-0.0445413 -0.00448714 0)
(-0.0435348 -0.00485521 0)
(-0.042451 -0.00520573 0)
(-0.0412936 -0.00553712 0)
(-0.0400669 -0.00584778 0)
(-0.0387755 -0.00613618 0)
(-0.0374242 -0.00640078 0)
(-0.0360181 -0.0066401 0)
(-0.0345627 -0.00685271 0)
(-0.0330639 -0.00703723 0)
(-0.0315275 -0.00719235 0)
(-0.02996 -0.00731682 0)
(-0.0283677 -0.00740949 0)
(-0.0267575 -0.00746931 0)
(-0.0251361 -0.00749531 0)
(-0.0235108 -0.00748666 0)
(-0.0218887 -0.00744267 0)
(-0.0202771 -0.00736281 0)
(-0.0186833 -0.00724668 0)
(-0.0171149 -0.00709413 0)
(-0.0155792 -0.00690517 0)
(-0.0140834 -0.00668009 0)
(-0.0126348 -0.00641944 0)
(-0.0112403 -0.00612411 0)
(-0.00990679 -0.00579532 0)
(-0.00864056 -0.00543473 0)
(-0.00744766 -0.00504449 0)
(-0.00633363 -0.0046273 0)
(-0.00530339 -0.00418656 0)
(-0.00436118 -0.00372645 0)
(-0.00351044 -0.00325209 0)
(-0.00275369 -0.00276974 0)
(-0.00209243 -0.00228701 0)
(-0.00152699 -0.00181308 0)
(-0.00105647 -0.0013591 0)
(-0.00067865 -0.000938488 0)
(-0.000389744 -0.00056741 0)
(-0.000184207 -0.000265183 0)
(-5.70606e-05 -5.48315e-05 0)
(-6.32605e-06 3.44788e-05 0)
(-1.07202e-05 2.14176e-05 0)
(-8.4683e-05 0.000218443 0)
(-0.000260483 0.000535838 0)
(-0.000533751 0.000947781 0)
(-0.000905605 0.00142986 0)
(-0.00137931 0.00196084 0)
(-0.00195656 0.00252288 0)
(-0.00263771 0.00310113 0)
(-0.00342206 0.00368332 0)
(-0.00430786 0.00425934 0)
(-0.00529238 0.00482089 0)
(-0.00637198 0.00536124 0)
(-0.00754225 0.00587494 0)
(-0.00879809 0.00635764 0)
(-0.0101338 0.00680589 0)
(-0.0115432 0.00721705 0)
(-0.0130196 0.00758909 0)
(-0.0145562 0.00792056 0)
(-0.0161458 0.00821047 0)
(-0.0177809 0.0084582 0)
(-0.0194542 0.00866351 0)
(-0.021158 0.00882641 0)
(-0.0228848 0.00894714 0)
(-0.024627 0.00902618 0)
(-0.0263772 0.00906418 0)
(-0.0281279 0.00906191 0)
(-0.0298719 0.0090203 0)
(-0.031602 0.00894037 0)
(-0.0333114 0.00882325 0)
(-0.0349932 0.00867014 0)
(-0.0366408 0.00848231 0)
(-0.038248 0.0082611 0)
(-0.0398087 0.00800788 0)
(-0.0413171 0.0077241 0)
(-0.0427674 0.0074112 0)
(-0.0441546 0.00707071 0)
(-0.0454734 0.00670415 0)
(-0.0467193 0.00631309 0)
(-0.0478876 0.00589912 0)
(-0.0489743 0.00546386 0)
(-0.0499756 0.00500895 0)
(-0.0508878 0.00453604 0)
(-0.0517078 0.00404682 0)
(-0.0524327 0.00354301 0)
(-0.0530599 0.00302633 0)
(-0.0535871 0.00249853 0)
(-0.0540124 0.00196139 0)
(-0.0543343 0.0014167 0)
(-0.0545515 0.000866289 0)
(-0.0546632 0.000311989 0)
(-0.0546688 -0.000244336 0)
(-0.0545681 -0.000800801 0)
(-0.0543613 -0.00135551 0)
(-0.0540489 -0.00190653 0)
(-0.0536318 -0.00245192 0)
(-0.0531114 -0.00298974 0)
(-0.0524891 -0.00351801 0)
(-0.0517671 -0.00403477 0)
(-0.0509477 -0.00453801 0)
(-0.0500336 -0.00502577 0)
(-0.0490279 -0.00549605 0)
(-0.0479342 -0.00594688 0)
(-0.0467562 -0.00637629 0)
(-0.0454981 -0.00678234 0)
(-0.0441645 -0.00716311 0)
(-0.0427603 -0.00751672 0)
(-0.0412907 -0.00784131 0)
(-0.0397613 -0.0081351 0)
(-0.038178 -0.00839635 0)
(-0.0365469 -0.00862339 0)
(-0.0348745 -0.00881464 0)
(-0.0331676 -0.0089686 0)
(-0.0314331 -0.0090839 0)
(-0.0296783 -0.00915926 0)
(-0.0279106 -0.00919354 0)
(-0.0261376 -0.00918577 0)
(-0.0243669 -0.00913513 0)
(-0.0226065 -0.009041 0)
(-0.0208642 -0.00890296 0)
(-0.0191479 -0.00872082 0)
(-0.0174656 -0.00849468 0)
(-0.015825 -0.00822492 0)
(-0.0142338 -0.00791225 0)
(-0.0126995 -0.00755778 0)
(-0.0112293 -0.00716304 0)
(-0.00983014 -0.00673005 0)
(-0.00850839 -0.00626143 0)
(-0.00727003 -0.00576042 0)
(-0.00612044 -0.00523107 0)
(-0.00506428 -0.0046783 0)
(-0.00410545 -0.00410808 0)
(-0.00324696 -0.00352763 0)
(-0.00249083 -0.0029456 0)
(-0.00183803 -0.00237236 0)
(-0.00128841 -0.00182026 0)
(-0.000840641 -0.00130401 0)
(-0.000492015 -0.000841098 0)
(-0.000238227 -0.000452096 0)
(-7.6636e-05 -0.000161188 0)
(-9.43564e-06 1.54366e-06 0)
(-1.37904e-05 6.84839e-05 0)
(-0.000104494 0.000363191 0)
(-0.000315675 0.000781747 0)
(-0.00063879 0.00129776 0)
(-0.0010725 0.00188616 0)
(-0.00161865 0.00252482 0)
(-0.00227768 0.00319492 0)
(-0.00304888 0.00388062 0)
(-0.00393063 0.00456863 0)
(-0.00492039 0.00524789 0)
(-0.00601477 0.00590921 0)
(-0.00720958 0.00654504 0)
(-0.00849985 0.00714921 0)
(-0.00987999 0.00771675 0)
(-0.0113439 0.00824368 0)
(-0.0128848 0.00872689 0)
(-0.0144957 0.009164 0)
(-0.0161694 0.00955327 0)
(-0.017898 0.00989348 0)
(-0.0196739 0.0101839 0)
(-0.0214891 0.0104241 0)
(-0.0233356 0.0106141 0)
(-0.0252054 0.0107541 0)
(-0.0270904 0.0108447 0)
(-0.0289828 0.0108866 0)
(-0.0308746 0.0108806 0)
(-0.0327582 0.0108279 0)
(-0.0346259 0.0107296 0)
(-0.0364705 0.010587 0)
(-0.0382846 0.0104015 0)
(-0.0400614 0.0101747 0)
(-0.0417941 0.00990803 0)
(-0.0434761 0.00960322 0)
(-0.0451014 0.00926194 0)
(-0.0466639 0.00888592 0)
(-0.048158 0.00847695 0)
(-0.0495783 0.00803686 0)
(-0.0509198 0.00756752 0)
(-0.0521777 0.00707081 0)
(-0.0533476 0.00654867 0)
(-0.0544254 0.00600306 0)
(-0.0554073 0.00543595 0)
(-0.0562898 0.00484938 0)
(-0.0570699 0.00424536 0)
(-0.0577449 0.00362599 0)
(-0.0583123 0.00299335 0)
(-0.05877 0.00234956 0)
(-0.0591165 0.00169677 0)
(-0.0593503 0.00103716 0)
(-0.0594707 0.000372927 0)
(-0.0594768 -0.0002937 0)
(-0.0593687 -0.00096047 0)
(-0.0591465 -0.00162511 0)
(-0.0588106 -0.00228533 0)
(-0.0583622 -0.0029388 0)
(-0.0578026 -0.00358319 0)
(-0.0571334 -0.00421616 0)
(-0.0563569 -0.00483535 0)
(-0.0554755 -0.00543839 0)
(-0.0544922 -0.00602291 0)
(-0.0534103 -0.00658656 0)
(-0.0522335 -0.00712698 0)
(-0.0509658 -0.00764182 0)
(-0.0496118 -0.00812878 0)
(-0.0481763 -0.00858558 0)
(-0.0466645 -0.00900998 0)
(-0.045082 -0.00939978 0)
(-0.0434346 -0.00975286 0)
(-0.0417288 -0.0100672 0)
(-0.039971 -0.0103407 0)
(-0.0381681 -0.0105717 0)
(-0.0363274 -0.0107582 0)
(-0.0344561 -0.0108988 0)