/*--------------------------------*- C++ -*----------------------------------*\
  =========                 |
  \\      /  F ield         | OpenFOAM: The Open Source CFD Toolbox
   \\    /   O peration     | Website:  https://openfoam.org
    \\  /    A nd           | Version:  11
     \\/     M anipulation  |
\*---------------------------------------------------------------------------*/
FoamFile
{
    format      ascii;
    class       surfaceScalarField;
    location    "2.6";
    object      phi;
}
// * * * * * * * * * * * * * * * * * * * * * * * * * * * * * * * * * * * * * //

dimensions      [0 3 -1 0 0 0 0];

internalField   nonuniform List<scalar> 
19980
(
6.66744e-07
-6.66455e-07
2.92282e-06
-2.25622e-06
6.05132e-06
-3.12846e-06
8.72527e-06
-2.67391e-06
1.03322e-05
-1.60691e-06
1.07221e-05
-3.89916e-07
9.91502e-06
8.07046e-07
7.97755e-06
1.93725e-06
5.0061e-06
2.97154e-06
1.08542e-06
3.92044e-06
-3.69052e-06
4.77604e-06
-9.23275e-06
5.54225e-06
-1.54632e-05
6.23033e-06
-2.22988e-05
6.83569e-06
-2.96662e-05
7.36734e-06
-3.74929e-05
7.8267e-06
-4.57143e-05
8.22151e-06
-5.42676e-05
8.55325e-06
-6.30961e-05
8.82851e-06
-7.21422e-05
9.04623e-06
-8.13557e-05
9.21342e-06
-9.06894e-05
9.3338e-06
-0.000100097
9.40772e-06
-0.000109535
9.43751e-06
-0.000118961
9.42616e-06
-0.000128335
9.37395e-06
-0.000137617
9.2821e-06
-0.000146771
9.15386e-06
-0.000155762
8.9916e-06
-0.000164558
8.79563e-06
-0.000173124
8.56608e-06
-0.000181431
8.30627e-06
-0.000189449
8.01894e-06
-0.000197153
7.70393e-06
-0.000204516
7.3623e-06
-0.000211513
6.99716e-06
-0.000218125
6.61168e-06
-0.000224333
6.20826e-06
-0.000230121
5.78862e-06
-0.000235475
5.35385e-06
-0.00024038
4.90475e-06
-0.000244822
4.44243e-06
-0.00024879
3.96799e-06
-0.000252273
3.48264e-06
-0.000255261
2.98813e-06
-0.000257747
2.4857e-06
-0.000259723
1.97578e-06
-0.000261181
1.45882e-06
-0.000262117
9.35635e-07
-0.000262524
4.07636e-07
-0.000262402
-1.22957e-07
-0.000261747
-6.54294e-07
-0.000260561
-1.18594e-06
-0.000258844
-1.71745e-06
-0.000256597
-2.24663e-06
-0.000253827
-2.77023e-06
-0.000250541
-3.28572e-06
-0.000246749
-3.79198e-06
-0.000242461
-4.28876e-06
-0.000237686
-4.77505e-06
-0.000232438
-5.24787e-06
-0.000226734
-5.70311e-06
-0.000220597
-6.1378e-06
-0.000214046
-6.55101e-06
-0.000207103
-6.94245e-06
-0.000199792
-7.31074e-06
-0.000192139
-7.65316e-06
-0.000184172
-7.96675e-06
-0.000175923
-8.2491e-06
-0.000167425
-8.49864e-06
-0.00015871
-8.71452e-06
-0.000149814
-8.89603e-06
-0.000140772
-9.04212e-06
-0.000131621
-9.15117e-06
-0.0001224
-9.2214e-06
-0.000113148
-9.25113e-06
-0.00010391
-9.23869e-06
-9.47273e-05
-9.18243e-06
-8.56465e-05
-9.08088e-06
-7.67134e-05
-8.93304e-06
-6.79752e-05
-8.73825e-06
-5.94795e-05
-8.4957e-06
-5.12753e-05
-8.20419e-06
-4.34135e-05
-7.86188e-06
-3.59473e-05
-7.46625e-06
-2.89326e-05
-7.01471e-06
-2.24274e-05
-6.50523e-06
-1.64903e-05
-5.93706e-06
-1.1179e-05
-5.31129e-06
-6.54888e-06
-4.63007e-06
-2.6528e-06
-3.89609e-06
4.61124e-07
-3.11392e-06
2.75258e-06
-2.29142e-06
4.19471e-06
-1.44216e-06
4.7852e-06
-5.90581e-07
4.56242e-06
2.2273e-07
3.63053e-06
9.3188e-07
2.20608e-06
1.42457e-06
7.22677e-07
1.4838e-06
7.23061e-07
4.05257e-07
-1.0717e-06
2.4324e-06
-4.28318e-06
5.58182e-06
-6.27803e-06
8.13199e-06
-5.22414e-06
8.94066e-06
-2.41567e-06
7.45311e-06
1.0978e-06
3.44663e-06
4.81332e-06
-3.09445e-06
8.47853e-06
-1.20973e-05
1.19744e-05
-2.34234e-05
1.52467e-05
-3.69156e-05
1.82681e-05
-5.24039e-05
2.10305e-05
-6.97051e-05
2.35318e-05
-8.86449e-05
2.57755e-05
-0.000109045
2.77674e-05
-0.00013073
2.95116e-05
-0.000153532
3.10234e-05
-0.00017729
3.23113e-05
-0.000201845
3.33836e-05
-0.000227049
3.42505e-05
-0.000252761
3.49245e-05
-0.000278839
3.5412e-05
-0.000305152
3.5721e-05
-0.000331575
3.58602e-05
-0.000357986
3.58366e-05
-0.000384268
3.56559e-05
-0.000410311
3.53251e-05
-0.000436009
3.48522e-05
-0.000461261
3.42439e-05
-0.000485972
3.35064e-05
-0.000510051
3.26448e-05
-0.00053341
3.16661e-05
-0.00055597
3.05784e-05
-0.000577653
2.93875e-05
-0.000598389
2.80984e-05
-0.000618111
2.67189e-05
-0.000636757
2.52582e-05
-0.000654273
2.37241e-05
-0.000670607
2.21225e-05
-0.000685712
2.04586e-05
-0.000699545
1.87375e-05
-0.000712066
1.69641e-05
-0.000723242
1.51433e-05
-0.000733039
1.32799e-05
-0.00074143
1.13791e-05
-0.00074839
9.44597e-06
-0.000753899
7.4846e-06
-0.000757938
5.49805e-06
-0.000760493
3.4903e-06
-0.000761552
1.46739e-06
-0.000761111
-5.64064e-07
-0.000759167
-2.59884e-06
-0.00075572
-4.63306e-06
-0.000750775
-6.66199e-06
-0.000744344
-8.67834e-06
-0.00073644
-1.06735e-05
-0.000727086
-1.26404e-05
-0.000716304
-1.45739e-05
-0.000704123
-1.64691e-05
-0.000690579
-1.83197e-05
-0.000675709
-2.01174e-05
-0.000659559
-2.18528e-05
-0.00064218
-2.35176e-05
-0.000623625
-2.51051e-05
-0.000603958
-2.66095e-05
-0.000583245
-2.80246e-05
-0.000561555
-2.93426e-05
-0.000538967
-3.05549e-05
-0.000515563
-3.16534e-05
-0.00049143
-3.26311e-05
-0.000466662
-3.34827e-05
-0.000441355
-3.42027e-05
-0.000415612
-3.47854e-05
-0.000389539
-3.52243e-05
-0.000363248
-3.55129e-05
-0.000336854
-3.56445e-05
-0.00031048
-3.56127e-05
-0.000284252
-3.54111e-05
-0.000258298
-3.50342e-05
-0.000232754
-3.44775e-05
-0.000207755
-3.37369e-05
-0.000183443
-3.28081e-05
-0.000159961
-3.16865e-05
-0.000137455
-3.03674e-05
-0.000116075
-2.8846e-05
-9.59718e-05
-2.71183e-05
-7.72946e-05
-2.51824e-05
-6.0192e-05
-2.30397e-05
-4.48074e-05
-2.06959e-05
-3.12757e-05
-1.81618e-05
-1.9718e-05
-1.54537e-05
-1.02353e-05
-1.25966e-05
-2.89751e-06
-9.62927e-06
2.2708e-06
-6.61047e-06
5.31165e-06
-3.63134e-06
6.36515e-06
-8.30639e-07
5.71299e-06
1.58396e-06
3.83536e-06
3.30177e-06
1.49818e-06
3.82037e-06
2.22153e-06
-6.0697e-07
-4.64696e-07
-6.54996e-07
-4.23532e-06
-1.52605e-07
-6.78029e-06
-5.47329e-07
-4.82954e-06
-3.04168e-06
7.8688e-08
-8.39587e-06
6.45214e-06
-1.70119e-05
1.34295e-05
-2.90461e-05
2.05126e-05
-4.45016e-05
2.743e-05
-6.3277e-05
3.40221e-05
-8.52098e-05
4.0201e-05
-0.000110096
4.59171e-05
-0.000137709
5.11446e-05
-0.000167812
5.58786e-05
-0.000200156
6.01107e-05
-0.000234501
6.38568e-05
-0.000270596
6.71183e-05
-0.0003082
6.99151e-05
-0.000347076
7.22598e-05
-0.000386994
7.41682e-05
-0.000427728
7.56588e-05
-0.000469061
7.67453e-05
-0.000510785
7.74442e-05
-0.000552697
7.77724e-05
-0.000594604
7.77435e-05
-0.00063632
7.7372e-05
-0.000677668
7.66732e-05
-0.000718479
7.56636e-05
-0.000758593
7.43576e-05
-0.000797855
7.27681e-05
-0.000836119
7.09097e-05
-0.000873252
6.87985e-05
-0.000909122
6.64485e-05
-0.000943607
6.3873e-05
-0.000976595
6.10859e-05
-0.00100798
5.81029e-05
-0.00103766
5.49398e-05
-0.00106555
5.1611e-05
-0.00109155
4.81295e-05
-0.0011156
4.45077e-05
-0.00113762
4.07583e-05
-0.00115755
3.68923e-05
-0.00117533
3.29203e-05
-0.0011909
2.88534e-05
-0.00120423
2.47038e-05
-0.00121526
2.04826e-05
-0.00122398
1.61989e-05
-0.00123034
1.18622e-05
-0.00123434
7.48326e-06
-0.00123594
3.07453e-06
-0.00123515
-1.352e-06
-0.00123197
-5.7852e-06
-0.00122639
-1.02138e-05
-0.00121842
-1.46256e-05
-0.0012081
-1.90069e-05
-0.00119543
-2.33429e-05
-0.00118045
-2.76193e-05
-0.0011632
-3.1823e-05
-0.00114373
-3.59414e-05
-0.00112208
-3.99609e-05
-0.00109834
-4.38653e-05
-0.00107255
-4.76375e-05
-0.00104481
-5.12613e-05
-0.00101519
-5.47218e-05
-0.000983796
-5.80046e-05
-0.000950727
-6.10945e-05
-0.000916094
-6.39754e-05
-0.000880018
-6.66306e-05
-0.000842628
-6.90436e-05
-0.00080406
-7.11991e-05
-0.00076446
-7.30827e-05
-0.000723982
-7.46806e-05
-0.000682789
-7.59784e-05
-0.000641052
-7.69617e-05
-0.000598949
-7.76157e-05
-0.000556667
-7.79262e-05
-0.000514401
-7.78793e-05
-0.00047235
-7.74617e-05
-0.000430723
-7.66611e-05
-0.000389734
-7.54665e-05
-0.000349603
-7.38681e-05
-0.000310554
-7.18568e-05
-0.000272817
-6.94243e-05
-0.000236621
-6.65633e-05
-0.000202198
-6.32683e-05
-0.00016978
-5.95366e-05
-0.000139592
-5.53703e-05
-0.000111854
-5.0778e-05
-8.6773e-05
-4.57768e-05
-6.45401e-05
-4.03948e-05
-4.53199e-05
-3.46738e-05
-2.92414e-05
-2.86751e-05
-1.63826e-05
-2.24882e-05
-6.75156e-06
-1.62415e-05
-2.61955e-07
-1.0121e-05
3.30109e-06
-4.39351e-06
4.32415e-06
5.61374e-07
3.41418e-06
4.21209e-06
1.47638e-06
5.75788e-06
3.69801e-06
-1.12295e-06
6.58329e-07
-3.00664e-06
-2.35169e-06
-5.46782e-06
-4.31916e-06
-9.56791e-06
-7.29561e-07
-1.63452e-05
6.8559e-06
-2.65427e-05
1.66496e-05
-4.06201e-05
2.75067e-05
-5.88125e-05
3.8705e-05
-8.11758e-05
4.97932e-05
-0.000107638
6.0484e-05
-0.000138045
7.0608e-05
-0.000172182
8.00549e-05
-0.000209798
8.876e-05
-0.000250609
9.66894e-05
-0.000294324
0.000103826
-0.000340634
0.000110167
-0.000389235
0.000115719
-0.00043982
0.000120499
-0.000492081
0.000124522
-0.000545722
0.000127808
-0.000600445
0.000130382
-0.000655966
0.000132266
-0.000712009
0.000133486
-0.000768304
0.000134067
-0.000824593
0.000134032
-0.000880629
0.000133408
-0.000936177
0.000132221
-0.000991008
0.000130494
-0.0010449
0.000128254
-0.00109766
0.000125526
-0.00114909
0.000122335
-0.001199
0.000118706
-0.00124721
0.000114664
-0.00129357
0.000110234
-0.00133792
0.000105438
-0.00138013
0.000100304
-0.00142004
9.48546e-05
-0.00145754
8.91142e-05
-0.00149252
8.31055e-05
-0.00152486
7.68512e-05
-0.00155448
7.03719e-05
-0.00158127
6.36871e-05
-0.00160517
5.68171e-05
-0.0016261
4.97823e-05
-0.00164399
4.26021e-05
-0.00165881
3.52957e-05
-0.00167049
2.78822e-05
-0.00167901
2.03795e-05
-0.00168433
1.28064e-05
-0.00168644
5.18322e-06
-0.00168532
-2.4689e-06
-0.00168098
-1.01298e-05
-0.00167341
-1.77798e-05
-0.00166264
-2.53976e-05
-0.00164869
-3.29603e-05
-0.00163159
-4.04436e-05
-0.00161138
-4.78242e-05
-0.00158813
-5.50796e-05
-0.00156188
-6.21869e-05
-0.00153272
-6.91216e-05
-0.00150073
-7.58572e-05
-0.001466
-8.23669e-05
-0.00142863
-8.86246e-05
-0.00138875
-9.46043e-05
-0.00134648
-0.00010028
-0.00130195
-0.000105624
-0.00125531
-0.00011061
-0.00120673
-0.00011521
-0.00115638
-0.000119397
-0.00110444
-0.000123143
-0.0010511
-0.000126422
-0.000996567
-0.00012921
-0.000941066
-0.00013148
-0.000884822
-0.000133206
-0.000828076
-0.000134363
-0.000771075
-0.000134927
-0.000714081
-0.000134874
-0.00065736
-0.000134182
-0.000601192
-0.000132829
-0.000545861
-0.000130798
-0.000491659
-0.00012807
-0.000438883
-0.000124633
-0.000387835
-0.000120473
-0.000338816
-0.000115582
-0.000292129
-0.000109956
-0.00024807
-0.000103596
-0.000206928
-9.65118e-05
-0.000168981
-8.87254e-05
-0.000134485
-8.0272e-05
-0.000103675
-7.12056e-05
-7.67443e-05
-6.16041e-05
-5.3842e-05
-5.15774e-05
-3.50509e-05
-4.12793e-05
-2.03692e-05
-3.09233e-05
-9.68556e-06
-2.08047e-05
-2.74835e-06
-1.13309e-05
8.71226e-07
-3.05811e-06
1.81896e-06
3.26466e-06
1.03093e-06
6.54585e-06
4.72894e-06
-1.45171e-06
2.11005e-06
-4.97544e-06
1.17195e-06
-1.03958e-05
1.10115e-06
-1.84429e-05
7.31744e-06
-2.9925e-05
1.83381e-05
-4.54773e-05
3.22017e-05
-6.55285e-05
4.75579e-05
-9.03125e-05
6.3489e-05
-0.000119899
7.93794e-05
-0.000154233
9.48186e-05
-0.000193164
0.000109539
-0.000236465
0.000123356
-0.000283864
0.000136159
-0.000335048
0.000147873
-0.000389684
0.000158462
-0.000447421
0.000167905
-0.000507904
0.000176202
-0.000570766
0.000183362
-0.000635647
0.000189403
-0.00070219
0.000194351
-0.00077004
0.000198232
-0.000838852
0.000201079
-0.000908289
0.000202924
-0.000978025
0.000203803
-0.00104774
0.000203753
-0.00111715
0.000202809
-0.00118594
0.000201011
-0.00125384
0.000198395
-0.00132058
0.000194999
-0.00138592
0.000190862
-0.0014496
0.000186022
-0.00151141
0.000180515
-0.00157113
0.00017438
-0.00162855
0.000167654
-0.00168348
0.000160373
-0.00173575
0.000152575
-0.00178519
0.000144295
-0.00183165
0.000135568
-0.00187497
0.00012643
-0.00191503
0.000116912
-0.00195171
0.000107049
-0.0019849
9.68716e-05
-0.00201449
8.64092e-05
-0.0020404
7.56931e-05
-0.00206255
6.47547e-05
-0.00208088
5.36242e-05
-0.00209533
4.23298e-05
-0.00210585
3.09002e-05
-0.00211241
1.93659e-05
-0.00211498
7.75868e-06
-0.00211356
-3.89102e-06
-0.00210814
-1.55529e-05
-0.00209872
-2.71954e-05
-0.00208533
-3.87852e-05
-0.00206801
-5.02883e-05
-0.00204678
-6.16701e-05
-0.00202171
-7.28959e-05
-0.00199286
-8.39304e-05
-0.00196031
-9.47382e-05
-0.00192415
-0.000105282
-0.00188448
-0.000115523
-0.00184142
-0.000125423
-0.00179511
-0.000134941
-0.00174567
-0.000144039
-0.00169328
-0.000152677
-0.00163809
-0.000160813
-0.00158029
-0.000168407
-0.00152008
-0.000175416
-0.00145768
-0.000181801
-0.0013933
-0.00018752
-0.00132719
-0.000192533
-0.0012596
-0.000196799
-0.0011908
-0.000200279
-0.00112108
-0.000202933
-0.00105071
-0.000204725
-0.000980023
-0.000205617
-0.000909322
-0.000205575
-0.00083894
-0.000204564
-0.000769216
-0.000202554
-0.000700496
-0.000199517
-0.000633137
-0.000195429
-0.000567498
-0.000190272
-0.000503943
-0.000184029
-0.000442833
-0.000176691
-0.000384531
-0.000168258
-0.000329388
-0.000158739
-0.000277746
-0.000148154
-0.000229928
-0.000136543
-0.000186234
-0.000123966
-0.000146929
-0.00011051
-0.000112236
-9.62972e-05
-8.23195e-05
-8.14943e-05
-5.72705e-05
-6.63283e-05
-3.70885e-05
-5.11051e-05
-2.16589e-05
-3.62342e-05
-1.07269e-05
-2.22629e-05
-3.86888e-06
-9.91626e-06
-4.62358e-07
-1.4166e-07
3.73403e-07
5.71011e-06
5.10234e-06
-1.83278e-06
3.9428e-06
-6.99792e-06
6.33734e-06
-1.53776e-05
9.48091e-06
-2.7472e-05
1.94119e-05
-4.38625e-05
3.47286e-05
-6.50377e-05
5.33772e-05
-9.13421e-05
7.38623e-05
-0.000122971
9.51175e-05
-0.000159977
0.000116386
-0.000202298
0.000137139
-0.000249763
0.000157004
-0.000302141
0.000175734
-0.000359132
0.00019315
-0.000420403
0.000209144
-0.000485585
0.000223644
-0.00055429
0.00023661
-0.000626117
0.000248029
-0.000700659
0.000257903
-0.000777506
0.000266249
-0.000856246
0.000273091
-0.000936475
0.000278462
-0.0010178
0.000282402
-0.00109983
0.000284952
-0.00118218
0.000286157
-0.00126449
0.000286067
-0.00134642
0.000284731
-0.00142761
0.000282201
-0.00150774
0.000278527
-0.0015865
0.000273762
-0.0016636
0.000267958
-0.00173874
0.000261168
-0.00181167
0.000253445
-0.00188213
0.00024484
-0.00194988
0.000235404
-0.0020147
0.000225189
-0.00207637
0.000214248
-0.0021347
0.000202627
-0.00218951
0.000190375
-0.00224062
0.000177542
-0.00228788
0.000164175
-0.00233115
0.000150318
-0.0023703
0.000136016
-0.0024052
0.000121312
-0.00243576
0.000106251
-0.00246188
9.0877e-05
-0.00248349
7.52304e-05
-0.00250051
5.93537e-05
-0.0025129
4.32894e-05
-0.00252061
2.70801e-05
-0.00252362
1.07693e-05
-0.00252192
-5.59969e-06
-0.00251548
-2.19833e-05
-0.00250434
-3.83365e-05
-0.00248852
-5.46132e-05
-0.00246804
-7.07662e-05
-0.00244296
-8.67475e-05
-0.00241335
-0.000102509
-0.00237928
-0.000118001
-0.00234084
-0.000133173
-0.00229815
-0.000147974
-0.00225132
-0.00016235
-0.0022005
-0.000176246
-0.00214583
-0.00018961
-0.00208749
-0.000202385
-0.00202565
-0.000214516
-0.00196051
-0.000225945
-0.00189231
-0.000236615
-0.00182125
-0.000246468
-0.00174761
-0.000255448
-0.00167163
-0.000263497
-0.0015936
-0.000270558
-0.00151383
-0.000276575
-0.00143262
-0.000281491
-0.0013503
-0.000285253
-0.00126721
-0.000287809
-0.00118372
-0.000289108
-0.0011002
-0.000289101
-0.00101702
-0.000287743
-0.000934577
-0.000284993
-0.00085328
-0.000280813
-0.000773536
-0.000275173
-0.00069576
-0.000268048
-0.000620367
-0.000259421
-0.000547774
-0.000249284
-0.000478391
-0.000237641
-0.000412618
-0.000224511
-0.000350842
-0.00020993
-0.000293424
-0.00019396
-0.000240701
-0.00017669
-0.000192967
-0.000158244
-0.000150469
-0.000138795
-0.000113392
-0.000118572
-8.18419e-05
-9.78779e-05
-5.58331e-05
-7.71139e-05
-3.52661e-05
-5.68011e-05
-1.99107e-05
-3.76183e-05
-9.38414e-06
-2.04429e-05
-3.13254e-06
-6.39317e-06
-3.89729e-07
2.96731e-06
4.71264e-06
-2.31015e-06
6.25289e-06
-9.16794e-06
1.3195e-05
-2.05306e-05
2.08437e-05
-3.67143e-05
3.55954e-05
-5.8097e-05
5.61112e-05
-8.50201e-05
8.03004e-05
-0.000117723
0.000106565
-0.00015633
0.000133725
-0.000200854
0.00016091
-0.000251197
0.000187483
-0.000307177
0.000212984
-0.000368534
0.00023709
-0.000434949
0.000259566
-0.00050606
0.000280254
-0.000581466
0.00029905
-0.000660749
0.000315893
-0.00074347
0.000330751
-0.000829182
0.000343615
-0.000917431
0.000354498
-0.00100776
0.000363425
-0.00109973
0.000370432
-0.0011929
0.000375564
-0.00128682
0.000378873
-0.00138107
0.000380413
-0.00147526
0.000380248
-0.00156896
0.000378439
-0.00166181
0.000375051
-0.00175344
0.000370151
-0.00184348
0.000363808
-0.00193162
0.00035609
-0.00201751
0.000347065
-0.00210087
0.000336802
-0.0021814
0.000325368
-0.00225883
0.000312833
-0.0023329
0.000299264
-0.00240338
0.000284724
-0.00247004
0.000269282
-0.00253266
0.000253002
-0.00259107
0.000235946
-0.00264507
0.000218176
-0.0026945
0.000199753
-0.00273922
0.000180736
-0.00277909
0.000161185
-0.002814
0.000141157
-0.00284383
0.000120711
-0.00286851
9.99026e-05
-0.00288794
7.8789e-05
-0.00290208
5.74268e-05
-0.00291087
3.58734e-05
-0.00291429
1.41869e-05
-0.00291231
-7.57514e-06
-0.00290494
-2.93547e-05
-0.00289219
-5.10916e-05
-0.00287408
-7.2724e-05
-0.00285065
-9.41899e-05
-0.00282197
-0.000115426
-0.00278811
-0.000136369
-0.00274916
-0.000156954
-0.00270522
-0.000177112
-0.00265642
-0.000196775
-0.0026029
-0.000215874
-0.0025448
-0.000234337
-0.00248232
-0.000252094
-0.00241564
-0.00026907
-0.00234496
-0.000285191
-0.00227052
-0.000300383
-0.00219257
-0.000314569
-0.00211136
-0.000327675
-0.00202719
-0.000339623
-0.00194034
-0.00035034
-0.00185115
-0.000359748
-0.00175995
-0.000367775
-0.0016671
-0.000374346
-0.00157296
-0.000379391
-0.00147793
-0.000382841
-0.00138241
-0.00038463
-0.00128681
-0.000384697
-0.00119158
-0.000382981
-0.00109714
-0.000379431
-0.00100395
-0.000374001
-0.000912471
-0.000366652
-0.000823164
-0.000357355
-0.000736493
-0.000346093
-0.000652919
-0.000332859
-0.000572895
-0.000317665
-0.000496865
-0.000300541
-0.000425253
-0.000281543
-0.000358456
-0.000260757
-0.000296842
-0.000238303
-0.000240736
-0.00021435
-0.00019041
-0.000189121
-0.000146073
-0.000162909
-0.000107855
-0.000136095
-7.57976e-05
-0.000109172
-4.9834e-05
-8.27646e-05
-2.97802e-05
-5.7672e-05
-1.53205e-05
-3.49026e-05
-5.99986e-06
-1.57138e-05
-1.19954e-06
-1.833e-06
3.51312e-06
-2.85401e-06
9.1067e-06
-1.14775e-05
2.18187e-05
-2.58462e-05
3.52124e-05
-4.61195e-05
5.58687e-05
-7.25126e-05
8.25043e-05
-0.000105221
0.000113008
-0.00014437
0.000145715
-0.000190004
0.000179358
-0.000242072
0.000212978
-0.000300437
0.000245847
-0.000364882
0.000277429
-0.000435114
0.000307322
-0.000510791
0.000335242
-0.00059152
0.000360983
-0.000676876
0.000384406
-0.000766406
0.000405422
-0.000859635
0.00042398
-0.000956083
0.000440063
-0.00105526
0.000453674
-0.00115667
0.000464838
-0.00125983
0.000473593
-0.00136426
0.000479989
-0.00146947
0.000484087
-0.00157501
0.000485954
-0.00168043
0.000485663
-0.00178528
0.00048329
-0.00188915
0.000478915
-0.00199162
0.000472624
-0.00209231
0.000464498
-0.00219084
0.000454624
-0.00228686
0.000443087
-0.00238004
0.000429975
-0.00247004
0.000415373
-0.00255657
0.000399366
-0.00263935
0.00038204
-0.0027181
0.000363478
-0.00279258
0.000343762
-0.00286256
0.000322975
-0.00292781
0.000301196
-0.00298814
0.000278505
-0.00304336
0.000254978
-0.00309332
0.000230692
-0.00313785
0.000205721
-0.00317684
0.000180143
-0.00321016
0.00015403
-0.00323771
0.000127453
-0.00325941
0.000100487
-0.00327519
7.32058e-05
-0.003285
4.56817e-05
-0.0032888
1.79887e-05
-0.00328657
-9.79934e-06
-0.00327832
-3.76074e-05
-0.00326405
-6.53583e-05
-0.0032438
-9.29738e-05
-0.00321762
-0.000120375
-0.00318556
-0.000147482
-0.00314772
-0.000174214
-0.00310419
-0.000200486
-0.00305508
-0.000226214
-0.00300055
-0.000251309
-0.00294074
-0.000275684
-0.00287583
-0.00029925
-0.00280601
-0.000321914
-0.00273149
-0.000343584
-0.00265252
-0.000364165
-0.00256934
-0.000383563
-0.00248223
-0.000401682
-0.00239148
-0.000418425
-0.0022974
-0.000433698
-0.00220034
-0.000447404
-0.00210064
-0.000459448
-0.00199868
-0.000469735
-0.00189485
-0.000478174
-0.00178956
-0.000484676
-0.00168325
-0.000489154
-0.00157635
-0.000491526
-0.00146933
-0.000491715
-0.00136267
-0.000489649
-0.00125684
-0.000485262
-0.00115234
-0.000478501
-0.00104967
-0.000469319
-0.00094934
-0.000457685
-0.000851854
-0.000443578
-0.000757714
-0.000426999
-0.000667414
-0.000407965
-0.000581432
-0.000386522
-0.000500229
-0.000362746
-0.000424237
-0.000336749
-0.000353853
-0.000308687
-0.000289432
-0.000278771
-0.000231277
-0.000247277
-0.000179624
-0.000214562
-0.000134638
-0.000181081
-9.63965e-05
-0.000147413
-6.48822e-05
-0.000114279
-3.99734e-05
-8.25808e-05
-2.14395e-05
-5.34365e-05
-8.94144e-06
-2.82119e-05
-2.02161e-06
-8.75278e-06
1.49149e-06
-3.44945e-06
1.25563e-05
-1.38759e-05
3.22452e-05
-3.12507e-05
5.25872e-05
-5.55961e-05
8.02141e-05
-8.69804e-05
0.000113889
-0.000125456
0.000151484
-0.000171041
0.000191299
-0.000223689
0.000232007
-0.000283282
0.000272571
-0.000349627
0.000312193
-0.000422462
0.000350263
-0.000501462
0.000386323
-0.000586251
0.000420032
-0.000676406
0.000451138
-0.000771471
0.000479471
-0.000870961
0.000504912
-0.000974373
0.000527392
-0.00108119
0.00054688
-0.00119089
0.000563373
-0.00130294
0.000576892
-0.00141683
0.000587477
-0.00153202
0.000595185
-0.00164802
0.000600083
-0.00176431
0.000602248
-0.00188042
0.000601767
-0.00199586
0.000598732
-0.00211018
0.000593237
-0.00222294
0.000585382
-0.00233371
0.00057527
-0.00244209
0.000563005
-0.00254769
0.000548689
-0.00265015
0.000532429
-0.0027491
0.00051433
-0.00284424
0.000494498
-0.00293523
0.000473034
-0.00302179
0.000450041
-0.00310365
0.000425621
-0.00318055
0.000399876
-0.00325226
0.000372904
-0.00331856
0.0003448
-0.00337924
0.00031566
-0.00343413
0.000285581
-0.00348306
0.000254655
-0.0035259
0.000222976
-0.0035625
0.000190632
-0.00359276
0.000157717
-0.0036166
0.000124321
-0.00363392
9.05346e-05
-0.00364469
5.64492e-05
-0.00364886
2.21559e-05
-0.0036464
-1.22532e-05
-0.00363733
-4.66848e-05
-0.00362164
-8.10434e-05
-0.00359938
-0.000115233
-0.0035706
-0.000149156
-0.00353537
-0.000182714
-0.00349378
-0.000215806
-0.00344594
-0.000248328
-0.00339198
-0.000280174
-0.00333205
-0.000311239
-0.00326632
-0.000341413
-0.00319498
-0.000370586
-0.00311825
-0.000398646
-0.00303636
-0.000425477
-0.00294956
-0.000450964
-0.00285813
-0.000474989
-0.00276238
-0.000497437
-0.00266262
-0.000518188
-0.00255919
-0.000537125
-0.00245246
-0.000554131
-0.00234282
-0.000569088
-0.00223067
-0.000581882
-0.00211645
-0.0005924
-0.00200059
-0.000600534
-0.00188357
-0.000606179
-0.00176586
-0.000609235
-0.00164796
-0.000609608
-0.0015304
-0.000607214
-0.00141369
-0.000601975
-0.00129836
-0.000593828
-0.00118496
-0.00058272
-0.00107403
-0.000568614
-0.000966113
-0.000551493
-0.000861752
-0.00053136
-0.000761474
-0.000508243
-0.000665794
-0.000482202
-0.000575205
-0.000453336
-0.000490172
-0.000421782
-0.000411126
-0.000387734
-0.000338452
-0.000351444
-0.000272486
-0.000313243
-0.000213501
-0.000273546
-0.000161702
-0.000232881
-0.000117213
-0.000191902
-8.00761e-05
-0.000151415
-5.02447e-05
-0.000112412
-2.75844e-05
-7.60968e-05
-1.18799e-05
-4.39163e-05
-2.83526e-06
-1.77974e-05
-1.34376e-06
-4.05774e-06
1.66138e-05
-1.631e-05
4.44976e-05
-3.66769e-05
7.29542e-05
-6.50572e-05
0.000108594
-0.00010138
0.000150211
-0.00014557
0.000195674
-0.000197542
0.000243272
-0.000257156
0.000291621
-0.000324216
0.000339631
-0.000398473
0.000386449
-0.000479613
0.000431403
-0.00056727
0.000473981
-0.00066103
0.000513791
-0.000760436
0.000550545
-0.000865001
0.000584035
-0.000974208
0.000614119
-0.00108752
0.000640709
-0.0012044
0.000663756
-0.00132428
0.000683252
-0.0014466
0.000699217
-0.00157082
0.00071169
-0.00169636
0.000720732
-0.0018227
0.00072642
-0.0019493
0.000728843
-0.00207563
0.000728097
-0.00220118
0.000724289
-0.00232548
0.000717532
-0.00244804
0.000707944
-0.00256841
0.000695643
-0.00268616
0.000680752
-0.00280087
0.000663395
-0.00291214
0.000643699
-0.00301959
0.000621788
-0.00312288
0.000597786
-0.00322167
0.000571818
-0.00331563
0.000544007
-0.00340449
0.000514474
-0.00348795
0.000483341
-0.00356577
0.000450724
-0.00363771
0.000416742
-0.00370356
0.00038151
-0.00376312
0.000345142
-0.00381622
0.000307751
-0.00386269
0.000269448
-0.0039024
0.000230345
-0.00393524
0.000190551
-0.00396109
0.000150177
-0.00397989
0.000109334
-0.00399157
6.81293e-05
-0.00399609
2.66752e-05
-0.00399343
-1.49171e-05
-0.00398358
-5.65344e-05
-0.00396656
-9.80618e-05
-0.00394241
-0.000139384
-0.00391118
-0.000180382
-0.00387296
-0.000220939
-0.00382783
-0.000260932
-0.00377592
-0.000300235
-0.00371738
-0.000338723
-0.00365235
-0.000376267
-0.00358103
-0.000412736
-0.00350361
-0.000447997
-0.00342034
-0.000481916
-0.00333147
-0.000514353
-0.00323726
-0.00054517
-0.00313802
-0.000574227
-0.00303408
-0.000601384
-0.00292577
-0.000626499
-0.00281346
-0.00064943
-0.00269756
-0.000670037
-0.00257846
-0.00068818
-0.00245662
-0.000703722
-0.00233249
-0.00071653
-0.00220655
-0.000726474
-0.0020793
-0.00073343
-0.00195126
-0.00073728
-0.00182295
-0.000737914
-0.00169493
-0.000735232
-0.00156776
-0.000729145
-0.00144201
-0.000719579
-0.00131826
-0.000706476
-0.00119708
-0.000689795
-0.00107905
-0.000669521
-0.000964749
-0.000645659
-0.000854741
-0.000618251
-0.000749572
-0.000587371
-0.000649769
-0.000553138
-0.00055583
-0.000515721
-0.00046822
-0.000475344
-0.000387359
-0.000432305
-0.00031362
-0.000386982
-0.000247318
-0.000339849
-0.000188702
-0.000291496
-0.000137956
-0.000242648
-9.51868e-05
-0.000194184
-6.04305e-05
-0.000147168
-3.36543e-05
-0.000102873
-1.47675e-05
-6.28029e-05
-3.62855e-06
-2.89364e-05
-4.97226e-06
-4.67348e-06
2.12874e-05
-1.87421e-05
5.85663e-05
-4.20642e-05
9.62763e-05
-7.44207e-05
0.000140951
-0.00011561
0.0001914
-0.000165448
0.000245513
-0.000223732
0.000301555
-0.000290234
0.000358123
-0.000364687
0.000414084
-0.000446771
0.000468533
-0.00053612
0.000520752
-0.000632321
0.000570182
-0.000734919
0.000616388
-0.000843422
0.000659048
-0.000957306
0.00069792
-0.00107602
0.000732836
-0.00119901
0.000763692
-0.00132568
0.000790429
-0.00145545
0.000813027
-0.00158774
0.000831502
-0.00172195
0.000845897
-0.00185749
0.00085628
-0.00199381
0.000862733
-0.00213032
0.000865353
-0.00226648
0.000864255
-0.00240175
0.000859559
-0.00253561
0.000851394
-0.00266756
0.000839895
-0.00279712
0.0008252
-0.00292382
0.000807453
-0.00304722
0.000786799
-0.0031669
0.000763383
-0.00328247
0.000737351
-0.00339353
0.00070885
-0.00349974
0.000678026
-0.00360075
0.000645022
-0.00369626
0.000609983
-0.00378597
0.00057305
-0.00386961
0.000534362
-0.00394692
0.000494057
-0.00401769
0.000452272
-0.00408169
0.000409143
-0.00413874
0.000364803
-0.00418868
0.000319384
-0.00423135
0.000273016
-0.00426663
0.000225832
-0.00429441
0.000177962
-0.00431462
0.000129536
-0.00432717
8.06845e-05
-0.00433204
3.1538e-05
-0.00432918
-1.77705e-05
-0.00431861
-6.71066e-05
-0.00430034
-0.000116335
-0.0042744
-0.000165319
-0.00424086
-0.00021392
-0.00419981
-0.000261996
-0.00415133
-0.000309404
-0.00409557
-0.000355994
-0.00403268
-0.00040162
-0.00396282
-0.000446128
-0.00388619
-0.000489366
-0.00380301
-0.000531175
-0.00371353
-0.000571396
-0.00361802
-0.000609866
-0.00351676
-0.000646422
-0.00341009
-0.0006809
-0.00329834
-0.000713133
-0.00318188
-0.000742957
-0.00306111
-0.000770203
-0.00293644
-0.000794707
-0.00280832
-0.000816305
-0.0026772
-0.000834837
-0.00254359
-0.000850147
-0.00240798
-0.000862084
-0.0022709
-0.000870502
-0.00213292
-0.000875266
-0.00199459
-0.000876247
-0.00185649
-0.000873331
-0.00171921
-0.000866417
-0.00158337
-0.000855421
-0.00144957
-0.000840277
-0.00131842
-0.000820943
-0.00119054
-0.000797402
-0.00106653
-0.000769667
-0.000946997
-0.000737787
-0.000832512
-0.000701856
-0.00072364
-0.000662011
-0.000620912
-0.000618448
-0.00052483
-0.000571427
-0.000435852
-0.000521283
-0.000354391
-0.000468443
-0.000280809
-0.000413432
-0.000215408
-0.000356897
-0.000158433
-0.000299623
-0.000110065
-0.000242553
-7.04253e-05
-0.000186808
-3.95849e-05
-0.000133713
-1.75737e-05
-8.4814e-05
-4.3931e-06
-4.21169e-05
-9.36535e-06
-5.28673e-06
2.65741e-05
-2.11448e-05
7.44243e-05
-4.7373e-05
0.000122505
-8.36342e-05
0.000177212
-0.000129611
0.000237377
-0.000185001
0.000300903
-0.000249507
0.000366062
-0.000322812
0.000431428
-0.000404567
0.000495839
-0.000494385
0.000558351
-0.000591844
0.000618211
-0.000696481
0.000674819
-0.000807797
0.000727704
-0.000925256
0.000776508
-0.0010483
0.000820965
-0.00117635
0.000860887
-0.00130881
0.000896149
-0.00144506
0.00092668
-0.00158449
0.000952455
-0.00172648
0.00097349
-0.0018704
0.000989826
-0.00201566
0.00100153
-0.00216164
0.00100871
-0.00230774
0.00101146
-0.0024534
0.00100991
-0.00259804
0.0010042
-0.00274112
0.000994474
-0.00288211
0.000980885
-0.0030205
0.000963591
-0.00315581
0.000942758
-0.00328756
0.00091855
-0.00341531
0.000891136
-0.00353865
0.000860684
-0.00365716
0.000827363
-0.00377047
0.00079134
-0.00387824
0.000752784
-0.00398011
0.00071186
-0.00407579
0.000668731
-0.00416499
0.000623559
-0.00424744
0.000576506
-0.0043229
0.000527731
-0.00439115
0.00047739
-0.00445198
0.000425638
-0.00450523
0.00037263
-0.00455073
0.000318518
-0.00458835
0.000263456
-0.00461799
0.000207596
-0.00463954
0.000151088
-0.00465294
9.40851e-05
-0.00465814
3.67403e-05
-0.00465512
-2.07915e-05
-0.00464387
-7.83544e-05
-0.00462442
-0.000135791
-0.00459679
-0.000192943
-0.00456106
-0.000249647
-0.00451732
-0.00030574
-0.00446567
-0.000361053
-0.00440625
-0.000415415
-0.00433922
-0.000468653
-0.00426475
-0.000520592
-0.00418307
-0.000571052
-0.00409439
-0.00061985
-0.00399899
-0.0006668
-0.00389714
-0.000711716
-0.00378915
-0.000754407
-0.00367537
-0.000794683
-0.00355615
-0.000832351
-0.00343189
-0.00086722
-0.003303
-0.000899096
-0.00316992
-0.000927788
-0.00303311
-0.000953108
-0.00289308
-0.000974872
-0.00275033
-0.000992899
-0.00260539
-0.00100702
-0.00245884
-0.00101706
-0.00231124
-0.00102286
-0.0021632
-0.00102429
-0.00201532
-0.00102121
-0.00186823
-0.00101351
-0.00172257
-0.00100108
-0.00157897
-0.000983874
-0.00143809
-0.000961828
-0.00130056
-0.000934929
-0.00116703
-0.000903196
-0.00103813
-0.00086669
-0.000914469
-0.000825515
-0.000796647
-0.000779833
-0.000685232
-0.000729863
-0.000580761
-0.000675897
-0.000483736
-0.000618309
-0.000394614
-0.000557565