/*--------------------------------*- C++ -*----------------------------------*\
  =========                 |
  \\      /  F ield         | OpenFOAM: The Open Source CFD Toolbox
   \\    /   O peration     | Website:  https://openfoam.org
    \\  /    A nd           | Version:  11
     \\/     M anipulation  |
\*---------------------------------------------------------------------------*/
FoamFile
{
    format      ascii;
    class       volVectorField;
    location    "7.5";
    object      U;
}
// * * * * * * * * * * * * * * * * * * * * * * * * * * * * * * * * * * * * * //

dimensions      [0 1 -1 0 0 0 0];

internalField   nonuniform List<vector> 
10100
(
(2.94473e-06 -3.03515e-06 0)
(1.4849e-05 -7.98162e-06 0)
(3.41363e-05 -9.32795e-06 0)
(5.24608e-05 -8.04784e-06 0)
(6.46117e-05 -5.43013e-06 0)
(6.81058e-05 -2.23064e-06 0)
(6.17518e-05 1.19357e-06 0)
(4.5019e-05 4.63787e-06 0)
(1.78254e-05 7.99956e-06 0)
(-1.96231e-05 1.12217e-05 0)
(-6.69595e-05 1.42569e-05 0)
(-0.000123685 1.70889e-05 0)
(-0.000189223 1.97147e-05 0)
(-0.000262969 2.21248e-05 0)
(-0.000344257 2.43181e-05 0)
(-0.000432415 2.62979e-05 0)
(-0.000526771 2.80574e-05 0)
(-0.000626635 2.96007e-05 0)
(-0.000731329 3.09384e-05 0)
(-0.000840185 3.20773e-05 0)
(-0.000952544 3.30184e-05 0)
(-0.00106775 3.37672e-05 0)
(-0.00118518 3.43305e-05 0)
(-0.0013042 3.47139e-05 0)
(-0.00142421 3.49203e-05 0)
(-0.00154464 3.49564e-05 0)
(-0.00166491 3.48301e-05 0)
(-0.00178447 3.45453e-05 0)
(-0.00190279 3.41078e-05 0)
(-0.00201937 3.35256e-05 0)
(-0.00213373 3.28073e-05 0)
(-0.00224539 3.19592e-05 0)
(-0.00235392 3.09858e-05 0)
(-0.00245891 2.98939e-05 0)
(-0.00255994 2.86916e-05 0)
(-0.00265664 2.73862e-05 0)
(-0.00274866 2.59815e-05 0)
(-0.00283566 2.44809e-05 0)
(-0.00291732 2.28916e-05 0)
(-0.00299335 2.12209e-05 0)
(-0.00306348 1.94743e-05 0)
(-0.00312745 1.76581e-05 0)
(-0.00318504 1.57792e-05 0)
(-0.00323603 1.38445e-05 0)
(-0.00328025 1.186e-05 0)
(-0.00331753 9.8303e-06 0)
(-0.00334772 7.76093e-06 0)
(-0.00337072 5.6598e-06 0)
(-0.00338643 3.53605e-06 0)
(-0.00339478 1.39684e-06 0)
(-0.00339572 -7.52004e-07 0)
(-0.00338924 -2.90375e-06 0)
(-0.00337534 -5.05191e-06 0)
(-0.00335405 -7.19016e-06 0)
(-0.00332542 -9.31009e-06 0)
(-0.00328953 -1.14027e-05 0)
(-0.0032465 -1.34602e-05 0)
(-0.00319645 -1.54749e-05 0)
(-0.00313955 -1.74383e-05 0)
(-0.00307598 -1.93426e-05 0)
(-0.00300598 -2.11812e-05 0)
(-0.00292977 -2.29481e-05 0)
(-0.00284762 -2.46364e-05 0)
(-0.00275983 -2.62377e-05 0)
(-0.00266671 -2.77427e-05 0)
(-0.00256862 -2.91424e-05 0)
(-0.00246594 -3.04285e-05 0)
(-0.00235906 -3.15925e-05 0)
(-0.00224844 -3.26266e-05 0)
(-0.00213451 -3.35236e-05 0)
(-0.00201778 -3.42759e-05 0)
(-0.00189874 -3.48755e-05 0)
(-0.00177794 -3.53153e-05 0)
(-0.00165591 -3.55897e-05 0)
(-0.00153325 -3.56929e-05 0)
(-0.00141054 -3.56183e-05 0)
(-0.0012884 -3.53592e-05 0)
(-0.00116746 -3.49093e-05 0)
(-0.00104837 -3.42633e-05 0)
(-0.000931795 -3.34163e-05 0)
(-0.000818403 -3.23645e-05 0)
(-0.000708879 -3.11053e-05 0)
(-0.000603908 -2.96365e-05 0)
(-0.000504179 -2.79567e-05 0)
(-0.000410376 -2.60645e-05 0)
(-0.000323175 -2.39594e-05 0)
(-0.000243241 -2.1643e-05 0)
(-0.000171214 -1.91202e-05 0)
(-0.0001077 -1.63997e-05 0)
(-5.32576e-05 -1.34934e-05 0)
(-8.38024e-06 -1.04186e-05 0)
(2.65353e-05 -7.20235e-06 0)
(5.12269e-05 -3.88802e-06 0)
(6.56305e-05 -5.47633e-07 0)
(6.99792e-05 2.69892e-06 0)
(6.49617e-05 5.64431e-06 0)
(5.19418e-05 7.92958e-06 0)
(3.34173e-05 8.91983e-06 0)
(1.43737e-05 7.53554e-06 0)
(2.78984e-06 2.79159e-06 0)
(7.27425e-06 -1.46449e-05 0)
(3.03363e-05 -3.1328e-05 0)
(6.17413e-05 -3.40416e-05 0)
(8.734e-05 -2.6258e-05 0)
(9.74198e-05 -1.21267e-05 0)
(8.63521e-05 5.57057e-06 0)
(5.07859e-05 2.50482e-05 0)
(-1.11103e-05 4.5213e-05 0)
(-0.000100003 6.53626e-05 0)
(-0.000215807 8.50172e-05 0)
(-0.000357853 0.000103883 0)
(-0.000525084 0.000121744 0)
(-0.000716182 0.000138466 0)
(-0.000929619 0.000153954 0)
(-0.00116374 0.000168166 0)
(-0.00141682 0.000181058 0)
(-0.00168703 0.000192615 0)
(-0.00197255 0.000202833 0)
(-0.00227154 0.000211725 0)
(-0.00258217 0.000219304 0)
(-0.00290259 0.000225591 0)
(-0.00323103 0.000230611 0)
(-0.00356569 0.000234391 0)
(-0.00390486 0.000236962 0)
(-0.00424682 0.000238357 0)
(-0.00458994 0.00023861 0)
(-0.00493262 0.00023776 0)
(-0.00527331 0.000235843 0)
(-0.00561051 0.000232898 0)
(-0.00594277 0.000228971 0)
(-0.00626873 0.000224104 0)
(-0.00658705 0.00021834 0)
(-0.00689647 0.000211719 0)
(-0.00719579 0.000204283 0)
(-0.00748386 0.000196078 0)
(-0.00775959 0.000187144 0)
(-0.00802196 0.000177522 0)
(-0.00827001 0.00016725 0)
(-0.00850282 0.000156373 0)
(-0.00871955 0.00014493 0)
(-0.00891942 0.000132966 0)
(-0.00910172 0.000120524 0)
(-0.00926578 0.000107651 0)
(-0.00941101 9.43909e-05 0)
(-0.00953688 8.07871e-05 0)
(-0.00964293 6.68809e-05 0)
(-0.00972877 5.27173e-05 0)
(-0.00979406 3.83445e-05 0)
(-0.00983854 2.38123e-05 0)
(-0.00986201 9.16992e-06 0)
(-0.00986436 -5.53555e-06 0)
(-0.00984552 -2.0257e-05 0)
(-0.00980551 -3.4946e-05 0)
(-0.00974443 -4.95527e-05 0)
(-0.00966242 -6.40254e-05 0)
(-0.00955974 -7.83099e-05 0)
(-0.00943669 -9.23525e-05 0)
(-0.00929366 -0.000106099 0)
(-0.00913111 -0.000119494 0)
(-0.0089496 -0.000132487 0)
(-0.00874974 -0.000145026 0)
(-0.00853222 -0.00015706 0)
(-0.00829782 -0.000168538 0)
(-0.00804739 -0.000179404 0)
(-0.00778185 -0.000189602 0)
(-0.00750221 -0.000199076 0)
(-0.00720956 -0.000207772 0)
(-0.00690504 -0.000215635 0)
(-0.0065899 -0.000222613 0)
(-0.00626544 -0.000228656 0)
(-0.00593304 -0.000233713 0)
(-0.00559414 -0.000237739 0)
(-0.00525024 -0.000240689 0)
(-0.00490291 -0.00024252 0)
(-0.00455378 -0.000243192 0)
(-0.00420454 -0.000242667 0)
(-0.0038569 -0.000240909 0)
(-0.00351264 -0.000237885 0)
(-0.00317358 -0.000233566 0)
(-0.00284154 -0.000227928 0)
(-0.00251841 -0.000220955 0)
(-0.00220605 -0.000212634 0)
(-0.00190635 -0.000202962 0)
(-0.00162119 -0.000191941 0)
(-0.00135241 -0.000179585 0)
(-0.00110182 -0.000165919 0)
(-0.000871181 -0.000150983 0)
(-0.000662139 -0.000134836 0)
(-0.000476231 -0.000117566 0)
(-0.000314821 -9.92944e-05 0)
(-0.000179043 -8.01889e-05 0)
(-6.97206e-05 -6.04881e-05 0)
(1.27461e-05 -4.05322e-05 0)
(6.85382e-05 -2.08154e-05 0)
(9.86454e-05 -2.06973e-06 0)
(0.000105178 1.46068e-05 0)
(9.17166e-05 2.75564e-05 0)
(6.388e-05 3.42779e-05 0)
(3.11293e-05 3.11375e-05 0)
(7.51949e-06 1.43609e-05 0)
(8.25121e-06 -3.27253e-05 0)
(3.17873e-05 -6.20586e-05 0)
(5.90533e-05 -6.18317e-05 0)
(7.34494e-05 -3.93959e-05 0)
(6.34376e-05 -2.20188e-06 0)
(2.17589e-05 4.40713e-05 0)
(-5.63165e-05 9.5475e-05 0)
(-0.000173564 0.000149272 0)
(-0.000331284 0.00020354 0)
(-0.000529573 0.000256972 0)
(-0.000767696 0.000308632 0)
(-0.0010443 0.000357858 0)
(-0.00135753 0.000404198 0)
(-0.00170521 0.000447333 0)
(-0.00208494 0.000487042 0)
(-0.0024941 0.000523189 0)
(-0.00292997 0.000555694 0)
(-0.00338978 0.000584509 0)
(-0.00387067 0.000609633 0)
(-0.0043698 0.000631087 0)
(-0.00488433 0.000648906 0)
(-0.00541143 0.000663149 0)
(-0.00594833 0.000673882 0)
(-0.00649229 0.000681184 0)
(-0.00704064 0.000685141 0)
(-0.00759076 0.000685849 0)
(-0.00814011 0.000683406 0)
(-0.00868624 0.000677915 0)
(-0.00922676 0.000669487 0)
(-0.00975939 0.000658239 0)
(-0.0102819 0.000644287 0)
(-0.0107922 0.000627748 0)
(-0.0112882 0.000608739 0)
(-0.011768 0.00058738 0)
(-0.0122298 0.000563792 0)
(-0.0126718 0.000538096 0)
(-0.0130923 0.000510409 0)
(-0.0134899 0.00048085 0)
(-0.013863 0.000449543 0)
(-0.0142104 0.00041661 0)
(-0.0145307 0.000382173 0)
(-0.0148227 0.000346361 0)
(-0.0150855 0.000309301 0)
(-0.0153181 0.000271124 0)
(-0.0155197 0.000231958 0)
(-0.0156894 0.000191928 0)
(-0.0158267 0.000151166 0)
(-0.015931 0.000109809 0)
(-0.016002 6.79963e-05 0)
(-0.0160392 2.58657e-05 0)
(-0.0160426 -1.64437e-05 0)
(-0.016012 -5.87914e-05 0)
(-0.0159475 -0.000101035 0)
(-0.0158492 -0.000143031 0)
(-0.0157174 -0.000184629 0)
(-0.0155524 -0.00022568 0)
(-0.0153548 -0.000266028 0)
(-0.0151252 -0.000305521 0)
(-0.0148644 -0.000344005 0)
(-0.0145732 -0.000381326 0)
(-0.0142526 -0.000417333 0)
(-0.0139038 -0.000451874 0)
(-0.0135279 -0.000484798 0)
(-0.0131264 -0.000515946 0)
(-0.0127008 -0.000545163 0)
(-0.0122527 -0.000572293 0)
(-0.0117837 -0.000597182 0)
(-0.0112958 -0.000619679 0)
(-0.010791 -0.000639637 0)
(-0.0102712 -0.000656914 0)
(-0.0097388 -0.000671372 0)
(-0.00919599 -0.000682878 0)
(-0.00864518 -0.000691307 0)
(-0.00808888 -0.000696541 0)
(-0.00752966 -0.000698469 0)
(-0.00697019 -0.000696987 0)
(-0.0064132 -0.000692002 0)
(-0.0058615 -0.000683428 0)
(-0.00531792 -0.000671196 0)
(-0.00478537 -0.000655251 0)
(-0.00426676 -0.000635555 0)
(-0.00376502 -0.000612088 0)
(-0.00328308 -0.000584855 0)
(-0.00282382 -0.000553886 0)
(-0.0023901 -0.000519242 0)
(-0.00198466 -0.000481025 0)
(-0.00161014 -0.000439383 0)
(-0.00126902 -0.000394524 0)
(-0.000963537 -0.000346739 0)
(-0.000695641 -0.000296418 0)
(-0.000466899 -0.000244095 0)
(-0.000278364 -0.000190495 0)
(-0.000130421 -0.000136609 0)
(-2.25814e-05 -8.38094e-05 0)
(4.67978e-05 -3.40071e-05 0)
(8.08589e-05 1.01207e-05 0)
(8.45819e-05 4.4838e-05 0)
(6.52553e-05 6.50221e-05 0)
(3.43713e-05 6.39055e-05 0)
(8.91485e-06 3.33916e-05 0)
(7.15538e-06 -4.95954e-05 0)
(2.41932e-05 -8.62788e-05 0)
(3.64215e-05 -7.58608e-05 0)
(2.7121e-05 -3.02362e-05 0)
(-1.56624e-05 3.97013e-05 0)
(-9.98694e-05 0.000125387 0)
(-0.000230848 0.000220457 0)
(-0.000411976 0.000320249 0)
(-0.000644852 0.000421388 0)
(-0.00092976 0.00052142 0)
(-0.00126595 0.000618544 0)
(-0.00165181 0.000711468 0)
(-0.00208516 0.000799242 0)
(-0.00256331 0.000881189 0)
(-0.00308325 0.000956827 0)
(-0.00364167 0.00102584 0)
(-0.00423511 0.00108801 0)
(-0.00485997 0.00114322 0)
(-0.00551256 0.00119142 0)
(-0.00618917 0.00123262 0)
(-0.00688607 0.00126686 0)
(-0.00759953 0.00129424 0)
(-0.00832588 0.00131487 0)
(-0.0090615 0.00132888 0)
(-0.00980282 0.00133643 0)
(-0.0105464 0.00133769 0)
(-0.0112887 0.00133285 0)
(-0.0120267 0.0013221 0)
(-0.0127569 0.00130565 0)
(-0.0134765 0.00128372 0)
(-0.0141823 0.00125651 0)
(-0.0148716 0.00122426 0)
(-0.0155416 0.0011872 0)
(-0.0161896 0.00114554 0)
(-0.0168133 0.00109953 0)
(-0.0174103 0.00104939 0)
(-0.0179783 0.000995358 0)
(-0.0185151 0.000937675 0)
(-0.019019 0.000876577 0)
(-0.019488 0.000812303 0)
(-0.0199204 0.000745096 0)
(-0.0203147 0.000675203 0)
(-0.0206694 0.000602876 0)
(-0.0209833 0.000528365 0)
(-0.0212552 0.000451921 0)
(-0.0214841 0.0003738 0)
(-0.0216692 0.000294261 0)
(-0.0218098 0.000213568 0)
(-0.0219053 0.00013199 0)
(-0.0219552 4.97967e-05 0)
(-0.0219594 -3.2738e-05 0)
(-0.0219177 -0.000115338 0)
(-0.0218301 -0.000197725 0)
(-0.021697 -0.000279612 0)
(-0.0215186 -0.000360711 0)
(-0.0212955 -0.000440731 0)
(-0.0210283 -0.000519374 0)
(-0.020718 -0.000596341 0)
(-0.0203655 -0.000671334 0)
(-0.0199721 -0.000744053 0)
(-0.019539 -0.000814199 0)
(-0.0190678 -0.000881474 0)
(-0.0185602 -0.000945576 0)
(-0.0180181 -0.00100621 0)
(-0.0174434 -0.00106306 0)
(-0.0168384 -0.00111584 0)
(-0.0162053 -0.00116425 0)
(-0.0155467 -0.00120801 0)
(-0.0148652 -0.00124682 0)
(-0.0141637 -0.00128043 0)
(-0.013445 -0.00130856 0)
(-0.0127123 -0.00133096 0)
(-0.0119687 -0.00134739 0)
(-0.0112177 -0.00135763 0)
(-0.0104626 -0.00136148 0)
(-0.00970701 -0.00135872 0)
(-0.00895457 -0.00134921 0)
(-0.008209 -0.00133278 0)
(-0.00747408 -0.00130932 0)
(-0.00675363 -0.00127873 0)
(-0.0060515 -0.00124096 0)
(-0.00537155 -0.00119599 0)
(-0.00471761 -0.00114386 0)
(-0.00409344 -0.00108464 0)
(-0.00350274 -0.0010185 0)
(-0.00294906 -0.000945659 0)
(-0.00243577 -0.000866445 0)
(-0.00196599 -0.000781308 0)
(-0.00154255 -0.000690852 0)
(-0.00116782 -0.000595881 0)
(-0.000843702 -0.00049746 0)
(-0.00057139 -0.000397003 0)
(-0.000351244 -0.00029639 0)
(-0.000182554 -0.000198134 0)
(-6.32612e-05 -0.000105605 0)
(1.03674e-05 -2.332e-05 0)
(4.40404e-05 4.26848e-05 0)
(4.58499e-05 8.45033e-05 0)
(2.79736e-05 9.20072e-05 0)
(7.98528e-06 5.20059e-05 0)
(4.92057e-06 -6.06959e-05 0)
(1.09611e-05 -9.51811e-05 0)
(4.86863e-07 -6.53156e-05 0)
(-4.1554e-05 1.26695e-05 0)
(-0.00012645 0.000124638 0)
(-0.00026216 0.00025927 0)
(-0.000454226 0.000407834 0)
(-0.000706092 0.000563739 0)
(-0.00101951 0.00072204 0)
(-0.00139479 0.000878983 0)
(-0.00183108 0.00103179 0)
(-0.0023266 0.00117838 0)
(-0.00287886 0.00131719 0)
(-0.00348477 0.00144707 0)
(-0.00414081 0.0015672 0)
(-0.00484311 0.00167699 0)
(-0.00558758 0.00177605 0)
(-0.00636992 0.00186412 0)
(-0.00718574 0.00194109 0)
(-0.00803056 0.00200692 0)
(-0.00889987 0.00206166 0)
(-0.00978916 0.00210541 0)
(-0.010694 0.00213833 0)
(-0.0116099 0.00216063 0)
(-0.0125325 0.00217253 0)
(-0.0134577 0.0021743 0)
(-0.0143811 0.00216622 0)
(-0.0152988 0.0021486 0)
(-0.0162068 0.00212176 0)
(-0.0171014 0.00208603 0)
(-0.0179788 0.00204176 0)
(-0.0188356 0.00198931 0)
(-0.0196683 0.00192904 0)
(-0.0204738 0.00186131 0)
(-0.0212488 0.0017865 0)
(-0.0219906 0.00170499 0)
(-0.0226963 0.00161715 0)
(-0.0233634 0.00152336 0)
(-0.0239894 0.00142403 0)
(-0.024572 0.00131953 0)
(-0.0251091 0.00121027 0)
(-0.0255988 0.00109664 0)
(-0.0260393 0.000979057 0)
(-0.0264291 0.000857925 0)
(-0.0267666 0.000733656 0)
(-0.0270507 0.000606667 0)
(-0.0272804 0.000477383 0)
(-0.0274547 0.000346234 0)
(-0.0275729 0.000213654 0)
(-0.0276346 8.00848e-05 0)
(-0.0276394 -5.40293e-05 0)
(-0.0275872 -0.000188237 0)
(-0.0274781 -0.000322081 0)
(-0.0273123 -0.000455098 0)
(-0.0270903 -0.00058682 0)
(-0.0268128 -0.000716771 0)
(-0.0264806 -0.000844475 0)
(-0.0260949 -0.000969445 0)
(-0.0256567 -0.0010912 0)
(-0.0251678 -0.00120925 0)
(-0.0246297 -0.0013231 0)
(-0.0240442 -0.00143229 0)
(-0.0234137 -0.0015363 0)
(-0.0227402 -0.00163467 0)
(-0.0220263 -0.0017269 0)
(-0.0212748 -0.00181251 0)
(-0.0204884 -0.00189104 0)
(-0.0196704 -0.00196202 0)
(-0.0188239 -0.002025 0)
(-0.0179525 -0.00207955 0)
(-0.0170598 -0.00212523 0)
(-0.0161495 -0.00216166 0)
(-0.0152257 -0.00218845 0)
(-0.0142923 -0.00220525 0)
(-0.0133538 -0.00221173 0)
(-0.0124143 -0.00220759 0)
(-0.0114785 -0.00219257 0)
(-0.0105507 -0.00216645 0)
(-0.00963573 -0.00212905 0)
(-0.00873813 -0.00208025 0)
(-0.00786259 -0.00201998 0)
(-0.00701379 -0.00194825 0)
(-0.00619633 -0.00186513 0)
(-0.00541478 -0.0017708 0)
(-0.00467352 -0.00166555 0)
(-0.0039768 -0.00154978 0)
(-0.0033286 -0.00142407 0)
(-0.0027326 -0.0012892 0)
(-0.00219208 -0.00114618 0)
(-0.0017098 -0.000996332 0)
(-0.00128791 -0.000841393 0)
(-0.000927757 -0.000683603 0)
(-0.000629727 -0.000525875 0)
(-0.000393029 -0.000371997 0)
(-0.00021544 -0.000226903 0)
(-9.30161e-05 -9.70106e-05 0)
(-1.98228e-05 9.36077e-06 0)
(1.24315e-05 8.15887e-05 0)
(1.55798e-05 0.000106251 0)
(5.81312e-06 6.53493e-05 0)
(2.07015e-06 -6.38124e-05 0)
(-5.64609e-06 -8.36888e-05 0)
(-4.40629e-05 -2.35312e-05 0)
(-0.000125202 9.67996e-05 0)
(-0.000258981 0.000260331 0)
(-0.000452942 0.000453157 0)
(-0.000712303 0.000664393 0)
(-0.00104036 0.000885567 0)
(-0.00143871 0.00111013 0)
(-0.00190756 0.00133304 0)
(-0.00244587 0.00155042 0)
(-0.00305165 0.00175931 0)
(-0.00372212 0.00195747 0)
(-0.00445383 0.00214319 0)
(-0.00524282 0.00231523 0)
(-0.00608476 0.00247267 0)
(-0.00697498 0.00261488 0)
(-0.0079086 0.00274144 0)
(-0.00888061 0.00285212 0)
(-0.00988587 0.0029468 0)
(-0.0109192 0.00302553 0)
(-0.0119753 0.00308841 0)
(-0.0130492 0.00313564 0)
(-0.0141356 0.00316749 0)
(-0.0152295 0.00318426 0)
(-0.0163259 0.00318632 0)
(-0.0174199 0.00317405 0)
(-0.0185069 0.0031479 0)
(-0.0195822 0.00310831 0)
(-0.0206413 0.00305577 0)
(-0.02168 0.00299076 0)
(-0.022694 0.00291379 0)
(-0.0236795 0.00282539 0)
(-0.0246326 0.00272608 0)
(-0.0255496 0.00261641 0)
(-0.0264272 0.00249693 0)
(-0.0272621 0.00236819 0)
(-0.0280512 0.00223075 0)
(-0.0287916 0.00208518 0)
(-0.0294806 0.00193205 0)
(-0.0301158 0.00177194 0)
(-0.0306948 0.00160545 0)
(-0.0312157 0.00143317 0)
(-0.0316764 0.00125569 0)
(-0.0320754 0.00107363 0)
(-0.0324111 0.000887589 0)
(-0.0326824 0.000698202 0)
(-0.0328882 0.000506096 0)
(-0.0330277 0.000311908 0)
(-0.0331003 0.000116284 0)
(-0.0331056 -8.01231e-05 0)
(-0.0330435 -0.00027665 0)
(-0.0329142 -0.000472625 0)
(-0.0327178 -0.000667371 0)
(-0.032455 -0.000860203 0)
(-0.0321265 -0.00105043 0)
(-0.0317334 -0.00123734 0)
(-0.031277 -0.00142024 0)
(-0.0307587 -0.00159842 0)
(-0.0301803 -0.00177116 0)
(-0.0295438 -0.00193776 0)
(-0.0288514 -0.00209751 0)
(-0.0281056 -0.00224968 0)
(-0.0273091 -0.00239358 0)
(-0.0264649 -0.00252851 0)
(-0.0255761 -0.00265376 0)
(-0.0246462 -0.00276865 0)
(-0.0236787 -0.00287253 0)
(-0.0226776 -0.00296473 0)
(-0.0216468 -0.00304463 0)
(-0.0205907 -0.00311162 0)
(-0.0195137 -0.00316513 0)
(-0.0184205 -0.00320462 0)
(-0.0173157 -0.00322957 0)
(-0.0162045 -0.00323953 0)
(-0.0150918 -0.00323409 0)
(-0.0139829 -0.00321287 0)
(-0.012883 -0.00317558 0)
(-0.0117975 -0.00312198 0)
(-0.0107319 -0.00305193 0)
(-0.00969143 -0.00296536 0)
(-0.00868157 -0.00286231 0)
(-0.00770763 -0.00274293 0)
(-0.0067748 -0.00260752 0)
(-0.00588814 -0.00245654 0)
(-0.00505246 -0.00229064 0)
(-0.00427229 -0.0021107 0)
(-0.00355179 -0.00191788 0)
(-0.00289463 -0.0017137 0)
(-0.00230392 -0.00150009 0)
(-0.00178207 -0.00127954 0)
(-0.0013306 -0.00105522 0)
(-0.000950031 -0.000831133 0)
(-0.000639642 -0.000612421 0)
(-0.000397275 -0.000405594 0)
(-0.000219098 -0.000218932 0)
(-9.93441e-05 -6.29275e-05 0)
(-2.9995e-05 4.92697e-05 0)
(-3.4999e-07 0.000101252 0)
(3.02742e-06 7.10443e-05 0)
(-1.04679e-06 -5.76986e-05 0)
(-2.41533e-05 -4.85282e-05 0)
(-9.3838e-05 5.40907e-05 0)
(-0.000218366 0.000227544 0)
(-0.000405794 0.000452389 0)
(-0.000662858 0.000712592 0)
(-0.000994177 0.000995246 0)
(-0.00140258 0.00129014 0)
(-0.00188933 0.0015892 0)
(-0.00245434 0.0018861 0)
(-0.00309633 0.00217585 0)
(-0.00381302 0.00245458 0)
(-0.0046013 0.0027193 0)
(-0.00545738 0.0029677 0)
(-0.00637691 0.00319804 0)
(-0.0073551 0.00340904 0)
(-0.00838682 0.00359979 0)
(-0.00946666 0.00376964 0)
(-0.010589 0.00391822 0)
(-0.0117482 0.00404535 0)
(-0.0129385 0.004151 0)
(-0.0141539 0.00423528 0)
(-0.0153887 0.00429843 0)
(-0.0166372 0.00434076 0)
(-0.0178936 0.00436266 0)
(-0.0191524 0.00436459 0)
(-0.020408 0.00434708 0)
(-0.021655 0.00431068 0)
(-0.0228883 0.004256 0)
(-0.0241028 0.00418367 0)
(-0.0252935 0.00409434 0)
(-0.0264559 0.0039887 0)
(-0.0275853 0.00386746 0)
(-0.0286775 0.00373132 0)
(-0.0297282 0.00358103 0)
(-0.0307336 0.00341732 0)
(-0.03169 0.00324096 0)
(-0.0325938 0.00305271 0)
(-0.0334417 0.00285334 0)
(-0.0342308 0.00264364 0)
(-0.0349581 0.0024244 0)
(-0.0356211 0.00219644 0)
(-0.0362174 0.00196056 0)
(-0.0367448 0.00171758 0)
(-0.0372014 0.00146833 0)
(-0.0375856 0.00121367 0)
(-0.037896 0.000954433 0)
(-0.0381314 0.000691494 0)
(-0.0382908 0.000425721 0)
(-0.0383736 0.000158001 0)
(-0.0383794 -0.000110769 0)
(-0.0383081 -0.000379683 0)
(-0.0381596 -0.000647823 0)
(-0.0379345 -0.000914262 0)
(-0.0376333 -0.00117806 0)
(-0.037257 -0.00143827 0)
(-0.0368068 -0.00169394 0)
(-0.036284 -0.0019441 0)
(-0.0356904 -0.0021878 0)
(-0.035028 -0.00242405 0)
(-0.0342992 -0.00265189 0)
(-0.0335063 -0.00287034 0)
(-0.0326523 -0.00307845 0)
(-0.0317403 -0.00327524 0)
(-0.0307735 -0.00345978 0)
(-0.0297557 -0.0036311 0)
(-0.0286907 -0.0037883 0)
(-0.0275827 -0.00393047 0)
(-0.0264359 -0.00405673 0)
(-0.0252551 -0.00416623 0)
(-0.0240451 -0.00425816 0)
(-0.0228108 -0.00433175 0)
(-0.0215576 -0.00438628 0)
(-0.0202909 -0.00442106 0)
(-0.0190163 -0.0044355 0)
(-0.0177395 -0.00442904 0)
(-0.0164664 -0.00440121 0)
(-0.0152029 -0.00435164 0)
(-0.0139552 -0.00428003 0)
(-0.0127291 -0.00418622 0)
(-0.0115308 -0.00407015 0)
(-0.0103664 -0.00393192 0)
(-0.00924173 -0.00377178 0)
(-0.00816262 -0.00359018 0)
(-0.00713467 -0.00338779 0)
(-0.00616323 -0.00316554 0)
(-0.00525331 -0.00292467 0)
(-0.0044095 -0.00266679 0)
(-0.00363587 -0.00239398 0)
(-0.00293586 -0.00210885 0)
(-0.00231214 -0.00181468 0)
(-0.00176651 -0.00151562 0)
(-0.00129971 -0.00121682 0)
(-0.000911234 -0.000924739 0)
(-0.000599214 -0.00064744 0)
(-0.000360186 -0.000394957 0)
(-0.00018887 -0.000179775 0)
(-7.78904e-05 -1.72835e-05 0)
(-1.82323e-05 7.35824e-05 0)
(-2.62805e-08 6.78176e-05 0)
(-4.24982e-06 -4.17295e-05 0)
(-4.35667e-05 1.22559e-05 0)
(-0.000146478 0.00017056 0)
(-0.000317148 0.000408504 0)
(-0.000561404 0.000704803 0)
(-0.000884936 0.00104154 0)
(-0.00129154 0.00140412 0)
(-0.00178336 0.00178073 0)
(-0.00236113 0.0021619 0)
(-0.00302433 0.00254005 0)
(-0.00377132 0.00290911 0)
(-0.00459947 0.0032643 0)
(-0.00550532 0.00360186 0)
(-0.0064847 0.00391884 0)
(-0.00753288 0.00421299 0)
(-0.00864465 0.00448261 0)
(-0.00981441 0.00472646 0)
(-0.0110363 0.00494368 0)
(-0.0123042 0.00513371 0)
(-0.013612 0.00529625 0)
(-0.0149532 0.00543122 0)
(-0.0163215 0.00553872 0)
(-0.0177105 0.00561899 0)
(-0.0191138 0.0056724 0)
(-0.0205253 0.00569943 0)
(-0.0219387 0.00570064 0)
(-0.0233479 0.00567668 0)
(-0.024747 0.00562825 0)
(-0.0261303 0.0055561 0)
(-0.0274921 0.00546104 0)
(-0.028827 0.00534391 0)
(-0.0301298 0.00520559 0)
(-0.0313954 0.00504697 0)
(-0.032619 0.00486898 0)
(-0.0337961 0.00467257 0)
(-0.0349223 0.0044587 0)
(-0.0359933 0.00422835 0)
(-0.0370054 0.00398252 0)
(-0.0379549 0.00372221 0)
(-0.0388383 0.00344844 0)
(-0.0396525 0.00316226 0)
(-0.0403947 0.00286471 0)
(-0.0410621 0.00255684 0)
(-0.0416523 0.00223974 0)
(-0.0421633 0.00191449 0)
(-0.0425932 0.00158218 0)
(-0.0429404 0.00124394 0)
(-0.0432036 0.000900885 0)
(-0.0433818 0.000554156 0)
(-0.0434743 0.00020491 0)
(-0.0434806 -0.000145684 0)
(-0.0434005 -0.000496442 0)
(-0.0432342 -0.00084617 0)
(-0.0429821 -0.00119366 0)
(-0.0426448 -0.00153768 0)
(-0.0422235 -0.00187701 0)
(-0.0417194 -0.0022104 0)
(-0.0411342 -0.0025366 0)
(-0.0404697 -0.00285436 0)
(-0.0397283 -0.00316241 0)
(-0.0389124 -0.00345949 0)
(-0.0380249 -0.00374435 0)
(-0.037069 -0.00401572 0)
(-0.036048 -0.00427237 0)
(-0.0349657 -0.00451306 0)
(-0.0338261 -0.00473657 0)
(-0.0326336 -0.00494173 0)
(-0.0313927 -0.00512735 0)
(-0.0301083 -0.00529231 0)
(-0.0287855 -0.00543552 0)
(-0.0274297 -0.00555594 0)
(-0.0260465 -0.00565258 0)
(-0.0246416 -0.00572452 0)
(-0.023221 -0.00577091 0)
(-0.0217911 -0.00579096 0)
(-0.020358 -0.005784 0)
(-0.0189283 -0.00574946 0)
(-0.0175085 -0.00568685 0)
(-0.0161052 -0.00559585 0)
(-0.0147252 -0.00547627 0)
(-0.013375 -0.00532808 0)
(-0.0120614 -0.00515145 0)
(-0.0107907 -0.00494675 0)
(-0.00956928 -0.00471462 0)
(-0.00840332 -0.00445596 0)
(-0.00729862 -0.00417202 0)
(-0.00626064 -0.00386445 0)
(-0.00529439 -0.00353534 0)
(-0.00440431 -0.00318736 0)
(-0.0035942 -0.00282384 0)
(-0.00286707 -0.0024489 0)
(-0.00222503 -0.00206766 0)
(-0.00166915 -0.00168642 0)
(-0.00119931 -0.00131291 0)
(-0.000814095 -0.000956644 0)
(-0.000510624 -0.000629271 0)
(-0.000284355 -0.000345038 0)
(-0.000128829 -0.000121239 0)
(-3.70624e-05 2.1171e-05 0)
(-3.15749e-06 5.50246e-05 0)
(-7.42937e-06 -1.56757e-05 0)
(-6.32686e-05 9.97056e-05 0)
(-0.000200428 0.000327577 0)
(-0.00041879 0.000641986 0)
(-0.000721831 0.00102017 0)
(-0.00111404 0.00144275 0)
(-0.00159819 0.00189366 0)
(-0.00217555 0.00235973 0)
(-0.00284621 0.0028302 0)
(-0.0036091 0.00329632 0)
(-0.00446208 0.00375101 0)
(-0.00540211 0.00418861 0)
(-0.00642533 0.00460456 0)
(-0.00752717 0.00499529 0)
(-0.00870249 0.00535802 0)
(-0.00994567 0.00569061 0)
(-0.0112507 0.00599148 0)
(-0.0126112 0.0062595 0)
(-0.0140207 0.00649392 0)
(-0.0154725 0.00669431 0)
(-0.0169597 0.00686052 0)
(-0.0184754 0.00699261 0)
(-0.0200128 0.00709085 0)
(-0.0215649 0.00715564 0)
(-0.0231251 0.00718754 0)
(-0.0246865 0.00718722 0)
(-0.0262426 0.00715547 0)
(-0.0277869 0.00709312 0)
(-0.0293132 0.00700109 0)
(-0.0308153 0.00688039 0)
(-0.0322873 0.00673204 0)
(-0.0337236 0.00655711 0)
(-0.0351186 0.00635674 0)
(-0.0364671 0.00613206 0)
(-0.0377641 0.00588427 0)
(-0.0390047 0.00561455 0)
(-0.0401846 0.00532414 0)
(-0.0412993 0.00501429 0)
(-0.0423449 0.00468625 0)
(-0.0433177 0.00434131 0)
(-0.0442142 0.00398077 0)
(-0.0450312 0.00360596 0)
(-0.0457659 0.00321819 0)
(-0.0464156 0.00281882 0)
(-0.0469781 0.00240922 0)
(-0.0474512 0.00199078 0)
(-0.0478333 0.00156488 0)
(-0.0481229 0.00113296 0)
(-0.048319 0.000696434 0)
(-0.0484207 0.00025677 0)
(-0.0484275 -0.000184565 0)
(-0.0483393 -0.000626084 0)
(-0.0481561 -0.00106628 0)
(-0.0478786 -0.00150364 0)
(-0.0475073 -0.00193663 0)
(-0.0470436 -0.00236369 0)
(-0.0464887 -0.00278327 0)
(-0.0458445 -0.00319379 0)
(-0.0451132 -0.00359369 0)
(-0.0442971 -0.00398138 0)
(-0.043399 -0.00435528 0)
(-0.042422 -0.00471383 0)
(-0.0413696 -0.00505543 0)
(-0.0402455 -0.00537855 0)
(-0.0390538 -0.00568165 0)
(-0.0377989 -0.0059632 0)
(-0.0364855 -0.00622172 0)
(-0.0351186 -0.00645576 0)
(-0.0337035 -0.00666393 0)
(-0.0322458 -0.00684486 0)
(-0.0307514 -0.00699727 0)
(-0.0292262 -0.00711994 0)
(-0.0276767 -0.00721173 0)
(-0.0261094 -0.00727159 0)
(-0.0245309 -0.00729858 0)
(-0.0229482 -0.00729187 0)
(-0.0213683 -0.00725077 0)
(-0.0197982 -0.00717472 0)
(-0.0182453 -0.00706334 0)
(-0.0167166 -0.00691644 0)
(-0.0152195 -0.00673402 0)
(-0.0137609 -0.00651634 0)
(-0.012348 -0.00626391 0)
(-0.0109876 -0.00597756 0)
(-0.00968624 -0.00565848 0)
(-0.00845024 -0.00530824 0)
(-0.0072855 -0.00492893 0)
(-0.00619742 -0.00452315 0)
(-0.00519087 -0.0040942 0)
(-0.00427001 -0.00364611 0)
(-0.00343825 -0.00318387 0)
(-0.00269809 -0.00271355 0)
(-0.00205105 -0.00224253 0)
(-0.0014975 -0.00177978 0)
(-0.00103664 -0.00133614 0)
(-0.000666335 -0.000924679 0)
(-0.00038297 -0.000561173 0)
(-0.000181186 -0.00026447 0)
(-5.6215e-05 -5.70695e-05 0)
(-6.26448e-06 3.2423e-05 0)
(-1.05329e-05 2.04691e-05 0)
(-8.29009e-05 0.000214169 0)
(-0.00025463 0.000526012 0)
(-0.000521401 0.000929233 0)
(-0.000884295 0.00140004 0)
(-0.00134645 0.00191792 0)
(-0.00190951 0.00246561 0)
(-0.0025738 0.00302875 0)
(-0.00333859 0.00359546 0)
(-0.00420215 0.00415593 0)
(-0.0051618 0.00470215 0)
(-0.00621397 0.00522757 0)
(-0.00735435 0.00572693 0)
(-0.00857794 0.00619602 0)
(-0.00987918 0.00663151 0)
(-0.011252 0.00703084 0)
(-0.01269 0.00739205 0)
(-0.0141864 0.00771376 0)
(-0.0157342 0.00799501 0)
(-0.0173263 0.00823522 0)
(-0.0189553 0.00843415 0)
(-0.0206139 0.00859184 0)
(-0.0222948 0.00870854 0)
(-0.0239905 0.00878471 0)
(-0.0256938 0.00882099 0)
(-0.0273976 0.00881815 0)
(-0.0290948 0.00877711 0)
(-0.0307783 0.00869886 0)
(-0.0324416 0.00858451 0)
(-0.034078 0.00843522 0)
(-0.0356811 0.00825225 0)
(-0.0372449 0.0080369 0)
(-0.0387634 0.0077905 0)
(-0.0402309 0.00751446 0)
(-0.0416422 0.0072102 0)
(-0.0429919 0.00687918 0)
(-0.0442752 0.0065229 0)
(-0.0454876 0.00614286 0)
(-0.0466246 0.00574062 0)
(-0.0476824 0.00531775 0)
(-0.0486571 0.00487581 0)
(-0.0495454 0.00441644 0)
(-0.050344 0.00394125 0)
(-0.0510503 0.00345189 0)
(-0.0516616 0.00295005 0)
(-0.0521759 0.00243741 0)
(-0.0525911 0.00191568 0)
(-0.0529059 0.00138659 0)
(-0.053119 0.000851917 0)
(-0.0532296 0.000313422 0)
(-0.053237 -0.000227092 0)
(-0.0531412 -0.000767807 0)
(-0.0529423 -0.00130688 0)
(-0.0526407 -0.00184247 0)
(-0.0522374 -0.00237268 0)
(-0.0517335 -0.00289563 0)
(-0.0511307 -0.00340942 0)
(-0.0504307 -0.00391214 0)
(-0.049636 -0.00440185 0)
(-0.0487491 -0.00487664 0)
(-0.0477731 -0.00533458 0)
(-0.0467112 -0.00577375 0)
(-0.0455672 -0.00619225 0)
(-0.0443452 -0.00658817 0)
(-0.0430495 -0.00695966 0)
(-0.0416849 -0.00730487 0)
(-0.0402565 -0.00762201 0)
(-0.0387695 -0.00790931 0)
(-0.0372299 -0.00816507 0)
(-0.0356434 -0.00838768 0)
(-0.0340165 -0.00857556 0)
(-0.0323556 -0.00872726 0)
(-0.0306675 -0.00884141 0)
(-0.0289593 -0.00891674 0)
(-0.0272382 -0.00895215 0)
(-0.0255115 -0.00894665 0)
(-0.0237868 -0.00889943 0)
(-0.0220716 -0.00880984 0)
(-0.0203738 -0.00867747 0)
(-0.0187009 -0.00850211 0)
(-0.0170607 -0.00828381 0)
(-0.0154609 -0.00802292 0)
(-0.0139089 -0.00772011 0)
(-0.012412 -0.00737643 0)
(-0.0109773 -0.00699334 0)
(-0.0096115 -0.00657279 0)
(-0.00832097 -0.00611729 0)
(-0.00711154 -0.00562999 0)
(-0.00598847 -0.00511479 0)
(-0.00495637 -0.00457647 0)
(-0.00401908 -0.00402083 0)
(-0.00317959 -0.00345486 0)
(-0.00243993 -0.00288699 0)
(-0.00180111 -0.00232731 0)
(-0.00126301 -0.00178783 0)
(-0.000824431 -0.00128291 0)
(-0.000482771 -0.00082958 0)
(-0.000233894 -0.000447925 0)
(-7.53091e-05 -0.000161566 0)
(-9.29517e-06 1.09128e-08 0)
(-1.35483e-05 6.65545e-05 0)
(-0.000102231 0.000355614 0)
(-0.000308428 0.000766076 0)
(-0.000623734 0.00127074 0)
(-0.00104683 0.00184519 0)
(-0.00157952 0.00246801 0)
(-0.0022222 0.00312099 0)
(-0.00297417 0.00378879 0)
(-0.0038338 0.00445855 0)
(-0.00479862 0.00511953 0)
(-0.00586529 0.00576284 0)
(-0.0070297 0.00638117 0)
(-0.008287 0.00696855 0)
(-0.00963171 0.00752014 0)
(-0.0110578 0.00803211 0)
(-0.0125589 0.00850147 0)
(-0.014128 0.0089259 0)
(-0.0157579 0.00930374 0)
(-0.0174414 0.00963381 0)
(-0.0191706 0.0099154 0)
(-0.020938 0.0101482 0)
(-0.0227357 0.0103321 0)
(-0.0245559 0.0104674 0)
(-0.0263909 0.0105547 0)
(-0.0282328 0.0105947 0)
(-0.0300741 0.0105881 0)
(-0.0319073 0.0105362 0)
(-0.0337251 0.01044 0)
(-0.0355201 0.0103007 0)
(-0.0372855 0.0101199 0)
(-0.0390146 0.00989897 0)
(-0.0407006 0.0096394 0)
(-0.0423375 0.00934281 0)
(-0.0439191 0.00901084 0)
(-0.0454396 0.0086452 0)
(-0.0468936 0.00824761 0)
(-0.0482759 0.00781985 0)
(-0.0495816 0.00736374 0)
(-0.050806 0.0068811 0)
(-0.0519449 0.00637381 0)
(-0.0529943 0.00584376 0)
(-0.0539506 0.00529287 0)
(-0.0548103 0.00472309 0)
(-0.0555705 0.0041364 0)
(-0.0562286 0.0035348 0)
(-0.0567821 0.00292031 0)
(-0.0572291 0.00229497 0)
(-0.057568 0.00166086 0)
(-0.0577975 0.00102009 0)
(-0.0579167 0.000374781 0)
(-0.0579249 -0.000272923 0)
(-0.0578221 -0.000920843 0)
(-0.0576083 -0.00156678 0)
(-0.0572841 -0.00220853 0)
(-0.0568504 -0.00284383 0)
(-0.0563085 -0.00347044 0)
(-0.0556601 -0.00408608 0)
(-0.0549073 -0.00468847 0)
(-0.0540523 -0.00527531 0)
(-0.0530982 -0.00584432 0)
(-0.052048 -0.0063932 0)
(-0.0509053 -0.00691966 0)
(-0.0496741 -0.00742144 0)
(-0.0483588 -0.00789627 0)
(-0.0469639 -0.00834194 0)
(-0.0454945 -0.00875626 0)
(-0.043956 -0.0091371 0)
(-0.0423543 -0.00948238 0)
(-0.0406952 -0.00979008 0)
(-0.0389853 -0.0100583 0)
(-0.0372312 -0.0102851 0)
(-0.0354398 -0.0104689 0)