/*--------------------------------*- C++ -*----------------------------------*\
  =========                 |
  \\      /  F ield         | OpenFOAM: The Open Source CFD Toolbox
   \\    /   O peration     | Website:  https://openfoam.org
    \\  /    A nd           | Version:  11
     \\/     M anipulation  |
\*---------------------------------------------------------------------------*/
FoamFile
{
    format      ascii;
    class       volScalarField;
    location    "2.5";
    object      p;
}
// * * * * * * * * * * * * * * * * * * * * * * * * * * * * * * * * * * * * * //

dimensions      [0 2 -2 0 0 0 0];

internalField   nonuniform List<scalar> 
10100
(
-1.14039e-08
0.00123785
0.00272849
0.00378818
0.00426443
0.00436639
0.00420699
0.00386671
0.00340803
0.00287761
0.00231144
0.00174328
0.00119883
0.000696483
0.000252699
-0.000116567
-0.000396427
-0.00057285
-0.000633746
-0.000569257
-0.000372948
-4.21283e-05
0.000426228
0.00103569
0.00178766
0.00268171
0.00371623
0.00488903
0.00619819
0.00764122
0.00921472
0.0109153
0.0127389
0.0146798
0.0167322
0.018892
0.0211553
0.0235178
0.0259751
0.0285216
0.0311492
0.0338482
0.0366108
0.0394318
0.0423066
0.0452267
0.048181
0.0511594
0.0541557
0.0571652
0.0601813
0.0631941
0.0661929
0.0691694
0.0721182
0.0750346
0.0779118
0.0807409
0.083512
0.0862173
0.0888509
0.091408
0.0938832
0.0962694
0.0985581
0.100741
0.102812
0.104764
0.106593
0.108292
0.109855
0.111274
0.112544
0.113657
0.114612
0.115407
0.116039
0.116509
0.116813
0.116952
0.116927
0.116741
0.116399
0.115909
0.115281
0.114526
0.113658
0.112691
0.111643
0.110532
0.109381
0.108215
0.107066
0.105967
0.104957
0.104078
0.103375
0.102895
0.102688
0.102743
0.0011453
0.00231031
0.00347073
0.00430289
0.00476372
0.00492876
0.00486807
0.00464465
0.0043101
0.00390398
0.00345981
0.00300629
0.00256874
0.00216735
0.00181801
0.00153601
0.00133497
0.00122732
0.00122508
0.00133744
0.00157091
0.00193051
0.00241909
0.00303852
0.00379067
0.0046758
0.00569288
0.00684159
0.00812036
0.00952452
0.0110501
0.0126961
0.01446
0.0163356
0.0183162
0.0203985
0.02258
0.0248569
0.0272243
0.029676
0.0322045
0.034801
0.0374587
0.0401733
0.0429397
0.0457493
0.0485911
0.051456
0.0543386
0.0572342
0.0601358
0.0630334
0.065917
0.0687795
0.0716162
0.0744224
0.0771909
0.0799126
0.0825782
0.0851804
0.087714
0.0901746
0.0925566
0.0948529
0.0970554
0.0991561
0.101149
0.103028
0.10479
0.106429
0.107939
0.109313
0.110545
0.111629
0.112563
0.113346
0.113977
0.114455
0.114779
0.11495
0.114968
0.114837
0.114562
0.114151
0.113613
0.11296
0.112205
0.111363
0.11045
0.109483
0.108484
0.107475
0.106486
0.105546
0.104686
0.103942
0.103345
0.102929
0.10274
0.102792
0.00306009
0.00385749
0.00458838
0.00515326
0.00550267
0.00564437
0.0056091
0.00543674
0.00516809
0.00483741
0.0044723
0.00409652
0.0037334
0.00340267
0.00312022
0.00290042
0.00275682
0.00270087
0.00274314
0.00289236
0.0031543
0.00353495
0.00403916
0.00466728
0.00541903
0.00629635
0.00730025
0.0084297
0.00968238
0.0110546
0.0125431
0.0141465
0.015862
0.0176835
0.0196052
0.0216249
0.0237406
0.0259485
0.0282431
0.0306178
0.0330655
0.0355789
0.0381521
0.0407807
0.0434588
0.0461779
0.0489279
0.051701
0.0544918
0.0572952
0.0601035
0.0629071
0.0656971
0.0684674
0.0712135
0.0739304
0.0766104
0.0792444
0.081824
0.0843425
0.0867952
0.0891774
0.0914836
0.0937067
0.0958389
0.0978727
0.0998024
0.101623
0.103332
0.104923
0.10639
0.107728
0.108929
0.109991
0.110909
0.111684
0.112314
0.1128
0.11314
0.113334
0.113386
0.113298
0.113076
0.112726
0.112259
0.111684
0.111016
0.110267
0.109453
0.10859
0.1077
0.106802
0.105923
0.105088
0.104325
0.103661
0.103123
0.102737
0.102546
0.102577
0.00508731
0.00552599
0.00592745
0.00624902
0.00644939
0.00651207
0.00644724
0.00627793
0.00603122
0.00573576
0.00541516
0.00508917
0.00477614
0.00449399
0.00425863
0.00408271
0.00397981
0.00396245
0.00403861
0.00421559
0.00450064
0.00489875
0.00541317
0.0060458
0.00679785
0.00767012
0.00866229
0.00977385
0.0110038
0.0123491
0.0138068
0.015375
0.0170498
0.0188252
0.0206968
0.0226638
0.0247249
0.0268753
0.029108
0.031417
0.0337967
0.0362408
0.0387432
0.0412986
0.0439013
0.0465437
0.0492168
0.0519128
0.0546259
0.0573507
0.0600797
0.0628042
0.0655159
0.0682088
0.0708783
0.0735192
0.076124
0.0786842
0.0811918
0.0836403
0.086025
0.0883412
0.0905833
0.0927445
0.0948173
0.096795
0.0986721
0.100445
0.102108
0.103659
0.105091
0.106398
0.107575
0.108617
0.109523
0.110292
0.110922
0.111414
0.111766
0.111981
0.11206
0.112007
0.111827
0.111526
0.111113
0.110599
0.109997
0.109318
0.108578
0.107792
0.106978
0.106156
0.10535
0.104583
0.103876
0.103253
0.102736
0.102349
0.102126
0.102089
0.00697521
0.00718272
0.00735301
0.00747983
0.00753308
0.00749858
0.00737989
0.0071878
0.00694008
0.00665811
0.00636131
0.0060672
0.00579029
0.00554497
0.00534649
0.00520716
0.0051376
0.00514966
0.00525321
0.0054544
0.00575831
0.00617
0.00669282
0.00732825
0.00807825
0.00894447
0.00992584
0.0110208
0.0122288
0.0135485
0.0149772
0.0165123
0.0181489
0.0198815
0.0217072
0.0236264
0.0256373
0.0277339
0.0299092
0.032158
0.0344757
0.036856
0.0392924
0.0417797
0.044313
0.0468855
0.0494882
0.052113
0.0547536
0.057405
0.0600609
0.062713
0.065353
0.0679745
0.0705727
0.0731428
0.0756781
0.0781707
0.0806124
0.0829967
0.0853187
0.0875738
0.0897568
0.0918612
0.0938801
0.0958068
0.097636
0.099364
0.100987
0.102501
0.103901
0.10518
0.106335
0.107361
0.108256
0.109018
0.109648
0.110145
0.110508
0.110741
0.110844
0.110822
0.110678
0.110418
0.110051
0.109589
0.109042
0.108421
0.107741
0.107015
0.10626
0.105496
0.104743
0.10402
0.103346
0.102741
0.102222
0.101811
0.101528
0.101384
0.00883748
0.00883687
0.00881909
0.00878212
0.00870018
0.00856389
0.00837558
0.00814286
0.00787679
0.00759215
0.00730379
0.00702499
0.00676973
0.00655074
0.00637884
0.0062662
0.00622413
0.00626106
0.00638499
0.0066039
0.00692318
0.00734594
0.00787449
0.00851078
0.00925753
0.0101165
0.0110863
0.0121653
0.0133535
0.0146499
0.0160511
0.0175541
0.0191548
0.0208486
0.0226333
0.024509
0.0264735
0.0285206
0.0306437
0.0328381
0.0350992
0.0374207
0.0397964
0.0422218
0.0446924
0.0472014
0.0497396
0.0522986
0.0548726
0.0574572
0.0600467
0.062633
0.0652074
0.0677632
0.0702959
0.0728013
0.0752735
0.0777047
0.0800865
0.0824121
0.0846765
0.0868758
0.0890054
0.0910591
0.0930299
0.0949111
0.0966974
0.0983853
0.0999715
0.101452
0.102823
0.104078
0.105213
0.106224
0.107109
0.107866
0.108495
0.108996
0.109369
0.109616
0.10974
0.109743
0.109628
0.109403
0.109075
0.108655
0.108152
0.107578
0.106945
0.106265
0.105555
0.104832
0.104113
0.103415
0.102754
0.102146
0.101607
0.101152
0.100789
0.100512
0.010696
0.0104923
0.0103047
0.0101214
0.00991486
0.00967727
0.00941051
0.00912494
0.00882697
0.00852427
0.00823005
0.00795521
0.0077093
0.00750345
0.00734838
0.00725415
0.00723045
0.00728516
0.00742523
0.00765751
0.00798681
0.00841616
0.0089481
0.00958453
0.0103274
0.0111779
0.0121353
0.0131991
0.0143697
0.0156447
0.0170202
0.0184934
0.0200615
0.0217205
0.0234683
0.0253046
0.0272273
0.0292303
0.0313068
0.033452
0.0356616
0.0379301
0.0402516
0.0426219
0.0450363
0.0474878
0.0499672
0.0524666
0.0549808
0.0575059
0.060036
0.0625628
0.0650774
0.0675736
0.0700474
0.0724951
0.0749112
0.0772874
0.0796152
0.0818877
0.0841004
0.08625
0.0883323
0.0903415
0.0922703
0.0941117
0.0958603
0.0975126
0.0990658
0.100517
0.101861
0.103095
0.104212
0.105211
0.106087
0.106839
0.107467
0.10797
0.108351
0.108611
0.108751
0.108773
0.108683
0.108485
0.108188
0.107802
0.107334
0.106796
0.106198
0.105551
0.104871
0.104173
0.103472
0.102783
0.102118
0.101491
0.100914
0.100402
0.0999427
0.0995187
0.0125475
0.0121459
0.0117962
0.0114769
0.0111503
0.0108137
0.0104686
0.0101209
0.00977922
0.00944841
0.00913585
0.00885202
0.00860563
0.00840393
0.00825573
0.00817062
0.00815744
0.00822328
0.00837399
0.00861485
0.00894984
0.00938223
0.00991496
0.0105496
0.0112874
0.0121293
0.013075
0.0141244
0.015278
0.016533
0.0178851
0.0193316
0.0208704
0.0224981
0.0242128
0.0260144
0.0279002
0.0298638
0.0318983
0.0339992
0.0361628
0.0383844
0.0406582
0.0429795
0.0453435
0.047743
0.0501694
0.0526156
0.0550768
0.0575491
0.0600263
0.0624995
0.0649603
0.067403
0.0698246
0.0722216
0.0745882
0.0769155
0.0791949
0.0814198
0.0835868
0.085693
0.0877346
0.0897054
0.0915979
0.0934046
0.09512
0.0967411
0.0982654
0.0996903
0.101012
0.102227
0.103329
0.104316
0.105184
0.105931
0.106558
0.107064
0.107451
0.10772
0.107872
0.10791
0.107838
0.107662
0.10739
0.10703
0.106589
0.106076
0.105502
0.104878
0.104216
0.10353
0.102834
0.102138
0.101456
0.100795
0.100169
0.0995871
0.0990227
0.0984443
0.0143832
0.0137882
0.0132828
0.0128329
0.0123899
0.0119548
0.0115303
0.0111177
0.010724
0.0103553
0.0100161
0.00971358
0.00945542
0.0092481
0.00909886
0.00901565
0.0090059
0.00907588
0.00923088
0.00947548
0.00981278
0.0102455
0.0107763
0.0114068
0.0121382
0.0129715
0.0139062
0.0149421
0.0160797
0.0173161
0.0186468
0.0200692
0.021582
0.0231823
0.0248682
0.0266392
0.0284924
0.0304207
0.0324176
0.0344794
0.0366031
0.0387839
0.0410157
0.0432934
0.0456121
0.0479653
0.0503451
0.0527447
0.0551593
0.0575848
0.0600146
0.06244
0.0648532
0.0672493
0.0696255
0.0719784
0.0743016
0.0765858
0.0788224
0.0810058
0.0831331
0.0852022
0.0872093
0.0891476
0.091009
0.0927857
0.0944725
0.0960665
0.0975659
0.0989685
0.100271
0.10147
0.10256
0.103537
0.104398
0.105141
0.105766
0.106274
0.106665
0.10694
0.107102
0.107152
0.107095
0.106935
0.106681
0.106339
0.105917
0.105422
0.104863
0.104251
0.103597
0.102913
0.102209
0.101497
0.100784
0.10008
0.0993937
0.0987339
0.098058
0.0973226
0.0161906
0.0154056
0.0147506
0.0141758
0.0136199
0.0130869
0.0125797
0.0120995
0.0116498
0.0112361
0.0108626
0.0105335
0.0102546
0.0100327
0.00987485
0.00978678
0.00977393
0.0098419
0.0099957
0.0102394
0.0105753
0.0110057
0.0115325
0.0121572
0.012881
0.0137053
0.0146294
0.015653
0.0167758
0.0179949
0.019306
0.0207071
0.0221975
0.0237743
0.0254354
0.0271795
0.0290034
0.0309006
0.0328649
0.0348933
0.0369828
0.0391282
0.0413231
0.0435621
0.0458409
0.0481538
0.0504933
0.0528527
0.0552269
0.0576111
0.059999
0.0623826
0.0647546
0.0671109
0.0694486
0.0717637
0.0740492
0.076296
0.0784958
0.0806437
0.0827376
0.0847758
0.086754
0.0886651
0.0905002
0.0922516
0.093914
0.0954851
0.0969638
0.0983483
0.0996355
0.100821
0.101901
0.102869
0.103724
0.104463
0.105086
0.105594
0.105988
0.106269
0.106438
0.106497
0.106451
0.106304
0.106062
0.105733
0.105322
0.104836
0.104285
0.103676
0.103021
0.102329
0.101609
0.100869
0.100118
0.0993606
0.0986069
0.097863
0.0970721
0.0961804
0.0179547
0.0169858
0.0161851
0.0154905
0.0148251
0.0141951
0.0136047
0.0130537
0.0125441
0.0120803
0.0116658
0.0113033
0.0109972
0.0107543
0.0105807
0.0104807
0.0104588
0.0105198
0.0106681
0.0109069
0.0112379
0.0116631
0.0121842
0.0128019
0.0135176
0.0143327
0.0152466
0.0162583
0.0173673
0.0185707
0.0198646
0.0212477
0.0227193
0.0242762
0.0259154
0.0276358
0.0294343
0.031305
0.0332419
0.0352421
0.0373025
0.0394173
0.0415799
0.0437854
0.04603
0.0483086
0.050614
0.0529391
0.0552783
0.0576268
0.0599787
0.0623266
0.0646642
0.0669873
0.0692927
0.071576
0.0738296
0.0760446
0.0782136
0.0803324
0.0823992
0.0844121
0.0863666
0.088255
0.0900683
0.0917985
0.0934408
0.0949933
0.0964556
0.097826
0.0991014
0.100277
0.101348
0.10231
0.103158
0.103893
0.104514
0.105023
0.105419
0.105703
0.105878
0.105944
0.105906
0.105766
0.105532
0.105208
0.104802
0.104319
0.103768
0.103156
0.102492
0.101784
0.101039
0.100265
0.0994662
0.0986495
0.0978224
0.0969903
0.096083
0.0950373
0.0196639
0.0185169
0.0175728
0.0167618
0.0159912
0.0152648
0.014591
0.0139677
0.0133957
0.0128774
0.0124159
0.0120143
0.0116766
0.0114078
0.0112123
0.0110942
0.0110582
0.0111083
0.0112477
0.0114782
0.0118013
0.0122187
0.0127323
0.0133425
0.0140501
0.0148562
0.0157598
0.0167599
0.0178563
0.0190462
0.020326
0.0216944
0.0231502
0.0246899
0.0263103
0.0280105
0.0297879
0.0316368
0.0335514
0.0355281
0.0375635
0.0396521
0.0417874
0.0439649
0.0461812
0.0484313
0.0507082
0.0530043
0.0553138
0.0576322
0.059954
0.0622728
0.0645825
0.0668787
0.0691578
0.0714147
0.0736421
0.0758314
0.0779757
0.0800714
0.0821168
0.0841097
0.0860452
0.0879152
0.0897107
0.0914238
0.0930502
0.0945886
0.0960387
0.097399
0.0986658
0.0998342
0.100898
0.101854
0.102697
0.103428
0.104047
0.104555
0.104952
0.10524
0.105419
0.10549
0.105456
0.10532
0.105088
0.104764
0.104356
0.10387
0.103313
0.102691
0.102012
0.101281
0.100504
0.0996876
0.0988366
0.097955
0.0970504
0.0961275
0.0951038
0.093908
0.0213031
0.0199869
0.0189039
0.0179771
0.0171034
0.0162833
0.0155254
0.0148289
0.0141924
0.0136165
0.0131043
0.0126598
0.0122864
0.0119867
0.0117644
0.0116242
0.0115706
0.0116066
0.0117334
0.0119527
0.0122657
0.0126741
0.0131793
0.0137815
0.0144806
0.0152774
0.0161709
0.0171605
0.0182462
0.0194253
0.0206938
0.0220502
0.0234928
0.0250181
0.0266231
0.0283071
0.0300679
0.0318997
0.033796
0.0357533
0.0377681
0.0398351
0.0419481
0.044103
0.0462965
0.0485238
0.0507773
0.0530495
0.0553347
0.0576287
0.0599268
0.0622229
0.064511
0.0667862
0.0690444
0.0712805
0.0734873
0.0756569
0.0777827
0.079861
0.0818904
0.0838683
0.0857892
0.087645
0.0894267
0.0911269
0.0927416
0.0942701
0.0957122
0.097066
0.0983275
0.0994907
0.10055
0.1015
0.102338
0.103065
0.103682
0.104189
0.104588
0.104877
0.105059
0.105132
0.1051
0.104963
0.104728
0.104401
0.103986
0.103491
0.102922
0.102284
0.101582
0.100822
0.100007
0.0991434
0.0982349
0.0972844
0.0962993
0.0952841
0.0941452
0.0928034
0.0228568
0.0213823
0.0201668
0.0191259
0.0181499
0.0172385
0.0163968
0.0156255
0.0149225
0.0142876
0.0137232
0.013233
0.0128193
0.0124845
0.0122326
0.0120682
0.0119945
0.0120128
0.012124
0.0123299
0.0126319
0.0130309
0.0135274
0.0141205
0.0148104
0.0155978
0.0164823
0.0174634
0.0185408
0.0197115
0.0209709
0.0223174
0.0237494
0.0252636
0.026857
0.0285291
0.0302775
0.032096
0.033978
0.0359199
0.0379185
0.0399688
0.0420648
0.0442023
0.0463782
0.0485875
0.0508227
0.0530763
0.0553427
0.0576185
0.0598991
0.0621788
0.0644512
0.0667109
0.0689538
0.0711746
0.0733669
0.0755228
0.0776359
0.0797026
0.0817211
0.0836886
0.0855994
0.0874452
0.0892172
0.0909085
0.0925158
0.0940387
0.0954767
0.0968275
0.0980862
0.0992462
0.100301
0.101247
0.102082
0.102806
0.103421
0.103927
0.104326
0.104616
0.104798
0.104871
0.104837
0.104696
0.104455
0.104119
0.103693
0.103184
0.102597
0.101937
0.101207
0.100411
0.0995531
0.0986374
0.0976673
0.0966448
0.0955772
0.0944689
0.0932164
0.0917335
0.0243131
0.0226901
0.0213492
0.0201977
0.0191205
0.0181184
0.0171944
0.0163477
0.0155771
0.0148823
0.0142645
0.0137258
0.0132688
0.0128967
0.0126139
0.0124233
0.0123266
0.0123245
0.0124184
0.0126102
0.0129008
0.0132897
0.0137764
0.0143597
0.0150401
0.0158192
0.0166964
0.017671
0.018742
0.019906
0.0211584
0.0224973
0.0239218
0.0254285
0.0270144
0.0286786
0.0304183
0.032227
0.0340985
0.0360292
0.0380163
0.040055
0.042139
0.0442641
0.0464272
0.0486235
0.0508455
0.0530859
0.0553396
0.0576033
0.0598727
0.0621418
0.0644041
0.0666539
0.0688869
0.0710984
0.0732819
0.07543
0.0775363
0.0795969
0.0816096
0.0835715
0.0854766
0.0873167
0.0890832
0.0907699
0.0923741
0.0938954
0.0953329
0.0966837
0.0979419
0.0991006
0.100154
0.101097
0.101929
0.10265
0.103264
0.103769
0.104167
0.104456
0.104637
0.104707
0.104668
0.10452
0.104269
0.10392
0.103479
0.102952
0.102342
0.101653
0.10089
0.100053
0.0991476
0.0981759
0.097141
0.096044
0.0948923
0.093691
0.0923273
0.090708
0.0256646
0.0238998
0.0224398
0.0211818
0.0200052
0.0189131
0.0179083
0.0169869
0.0161483
0.0153924
0.0147194
0.0141307
0.0136294
0.0132194
0.0129041
0.0126848
0.0125627
0.012539
0.0126155
0.0127933
0.0130717
0.0134491
0.0139248
0.0144981
0.0151702
0.0159425
0.0168143
0.0177838
0.0188497
0.0200085
0.0212558
0.0225902
0.0240107
0.0255137
0.0270956
0.0287551
0.0304894
0.0322921
0.0341571
0.0360812
0.0380618
0.0400936
0.0421705
0.044288
0.0464431
0.0486313
0.0508454
0.0530785
0.0553256
0.0575833
0.0598474
0.0621117
0.0643693
0.0666147
0.0688436
0.0710515
0.0732322
0.0753784
0.0774834
0.0795432
0.0815552
0.0835161
0.08542
0.0872586
0.0890241
0.0907107
0.0923159
0.0938394
0.0952798
0.0966331
0.0978931
0.0990526
0.100106
0.101048
0.101879
0.102599
0.103211
0.103715
0.104111
0.104399
0.104576
0.104641
0.104594
0.104436
0.104172
0.103807
0.103347
0.102796
0.102159
0.101437
0.100635
0.0997546
0.0987972
0.0977661
0.0966635
0.0954901
0.0942537
0.0929601
0.0914879
0.0897369
0.026906
0.0250033
0.0234285
0.0220692
0.0207957
0.0196147
0.0185294
0.0175344
0.0166279
0.0158098
0.0150804
0.0144415
0.013896
0.0134473
0.0130976
0.0128478
0.0126994
0.0126543
0.0127135
0.0128766
0.0131413
0.0135059
0.0139702
0.0145345
0.0151999
0.0159672
0.0168346
0.0177999
0.0188619
0.0200172
0.0212621
0.0225952
0.0240151
0.0255175
0.0270984
0.0287565
0.0304888
0.0322894
0.0341524
0.0360746
0.0380533
0.040083
0.0421574
0.044272
0.046424
0.0486094
0.0508215
0.0530531
0.0552995
0.0575572
0.0598218
0.0620868
0.0643452
0.0665917
0.0688222
0.0710323
0.0732159
0.0753657
0.0774749
0.079539
0.0815552
0.0835197
0.0854268
0.0872685
0.0890374
0.0907284
0.0923389
0.0938682
0.0953145
0.0966732
0.0979375
0.0991003
0.100156
0.1011
0.101932
0.102653
0.103264
0.103766
0.10416
0.104443
0.104615
0.104673
0.104616
0.104446
0.104166
0.103782
0.103299
0.102721
0.102052
0.101295
0.100451
0.0995219
0.0985098
0.0974167
0.0962444
0.0949934
0.0936721
0.0922873
0.0907093
0.0888307
0.0280329
0.0259949
0.0243078
0.0228513
0.0214843
0.0202154
0.0190494
0.0179813
0.0170073
0.0161269
0.0153411
0.0146519
0.0140619
0.0135733
0.0131878
0.0129071
0.0127331
0.012667
0.0127082
0.0128549
0.0131045
0.013456
0.0139101
0.014467
0.0151271
0.0158902
0.0167539
0.0177159
0.0187754
0.0199298
0.0211753
0.0225102
0.0239324
0.0254369
0.0270196
0.0286793
0.0304134
0.0322162
0.0340817
0.0360067
0.037988
0.0400202
0.0420967
0.0442132
0.0463675
0.0485558
0.0507716
0.0530079
0.0552595
0.0575227
0.0597932
0.0620643
0.0643292
0.0665824
0.0688202
0.0710382
0.0732303
0.0753889
0.0775073
0.0795807
0.0816058
0.0835787
0.0854934
0.0873429
0.0891201
0.09082
0.09244
0.0939789
0.0954343
0.0968013
0.0980729
0.099242
0.100303
0.101251
0.102086
0.102809
0.103421
0.103922
0.104313
0.104593
0.104758
0.104807
0.104738
0.104553
0.104255
0.10385
0.103341
0.102734
0.102031
0.101234
0.100345
0.0993652
0.098296
0.0971389
0.0958953
0.0945658
0.0931597
0.0916846
0.090003
0.0880002
0.0290404
0.0268703
0.0250726
0.0235203
0.0220626
0.0207074
0.0194612
0.01832
0.0172789
0.0163366
0.0154946
0.014755
0.0141197
0.0135904
0.0131691
0.0128582
0.0126592
0.0125715
0.012593
0.0127218
0.0129561
0.0132956
0.0137411
0.014292
0.0149475
0.0157069
0.0165675
0.0175277
0.0185872
0.0197434
0.0209924
0.0223317
0.0237585
0.0252677
0.0268553
0.0285202
0.0302603
0.0320696
0.0339422
0.0358743
0.0378627
0.0399019
0.0419853
0.0441092
0.0462714
0.0484686
0.0506941
0.0529407
0.0552031
0.0574774
0.0597592
0.062042
0.064319
0.0665848
0.0688355
0.0710669
0.0732728
0.0754456
0.0775782
0.0796655
0.0817041
0.0836899
0.0856172
0.0874793
0.0892697
0.0909834
0.0926173
0.0941697
0.0956377
0.0970163
0.0982986
0.0994772
0.100546
0.101502
0.102343
0.10307
0.103684
0.104186
0.104575
0.10485
0.105009
0.105048
0.104965
0.104764
0.104446
0.104017
0.103481
0.102842
0.102103
0.101264
0.100328
0.0992956
0.0981673
0.0969445
0.0956284
0.0942198
0.0927287
0.091164
0.08938
0.0872551
0.0299225
0.027624
0.0257175
0.0240697
0.0225227
0.0210831
0.0197582
0.0185436
0.0174353
0.0164317
0.0155335
0.0147431
0.0140621
0.0134924
0.0130362
0.0126956
0.0124709
0.0123602
0.0123608
0.0124714
0.0126914
0.0130205
0.0134588
0.0140044
0.0146557
0.0154119
0.0162708
0.0172315
0.0182939
0.0194549
0.0207099
0.0220558
0.0234896
0.0250065
0.0266025
0.0282767
0.030027
0.0318473
0.0337312
0.0356749
0.0376749
0.0397258
0.0418216
0.0439585
0.0461347
0.0483467
0.0505877
0.0528504
0.0551291
0.05742
0.0597186
0.0620188
0.0643137
0.066598
0.0688673
0.0711176
0.0733426
0.0755345
0.0776861
0.0797921
0.0818488
0.0838522
0.0857971
0.087677
0.0894858
0.091218
0.0928704
0.0944404
0.0959249
0.0973187
0.098615
0.0998065
0.100887
0.101853
0.102702
0.103435
0.104054
0.104558
0.104947
0.105219
0.10537
0.105398
0.105302
0.105082
0.104744
0.10429
0.103726
0.103054
0.102277
0.101395
0.100411
0.0993232
0.0981338
0.0968437
0.095454
0.0939655
0.092389
0.0907344
0.0888485
0.0866023
0.0306726
0.0282499
0.0262368
0.0244948
0.0228589
0.0213363
0.0199333
0.0186454
0.0174696
0.0164047
0.0154507
0.0146093
0.0138828
0.0132734
0.012783
0.0124124
0.0121607
0.0120256
0.0120052
0.0120989
0.0123062
0.0126263
0.0130579
0.0135984
0.0142461
0.0150006
0.0158603
0.0168245
0.0178925
0.0190608
0.020324
0.0216788
0.0231226
0.0246505
0.026259
0.027947
0.0297118
0.0315472
0.0334468
0.0354064
0.0374229
0.0394909
0.0416047
0.0437607
0.0459571
0.0481899
0.0504523
0.0527366
0.0550371
0.0573502
0.0596715
0.0619949
0.0643138
0.0666223
0.068916
0.0711905
0.0734398
0.0756559
0.0778314
0.0799607
0.0820403
0.0840663
0.0860338
0.0879369
0.089769
0.0915247
0.0932
0.0947919
0.0962969
0.0977096
0.0990232
0.10023
0.101325
0.102304
0.103164
0.103907
0.104533
0.105042
0.105432
0.105701
0.105845
0.105862
0.105751
0.105514
0.105154
0.104676
0.104083
0.103377
0.10256
0.101634
0.100599
0.0994552
0.0982031
0.0968441
0.0953793
0.0938096
0.0921468
0.0904017
0.0884132
0.0860458
0.0312859
0.0287419
0.0266255
0.0247911
0.0230663
0.0214603
0.0199794
0.0186187
0.0173756
0.0162492
0.0152395
0.0143477
0.0135761
0.0129274
0.0124026
0.0120011
0.0117213
0.0115619
0.0115217
0.0116002
0.0117963
0.012108
0.0125331
0.013069
0.0137146
0.0144699
0.0153334
0.0163038
0.01738
0.0185578
0.0198316
0.0211984
0.0226556
0.0241987
0.0258241
0.0275301
0.0293137
0.0311686
0.0330881
0.0350684
0.0371065
0.0391972
0.0413351
0.0435164
0.0457389
0.0479985
0.0502879
0.0525994
0.0549275
0.0572686
0.0596186
0.0619714
0.0643201
0.0666587
0.0689824
0.0712867
0.0735654
0.0758106
0.078015
0.0801727
0.0822801
0.0843338
0.0863293
0.0882606
0.0901211
0.091905
0.0936076
0.0952256
0.0967549
0.0981901
0.0995241
0.10075
0.101862
0.102856
0.10373
0.104486
0.105121
0.105636
0.106029
0.106296
0.106434
0.106441
0.106316
0.106061
0.105681
0.105178
0.104555
0.103815
0.102958
0.101986
0.100899
0.0996969
0.0983803
0.0969504
0.0954086
0.093756
0.0920054
0.0901685
0.0880764
0.0855872
0.0317603
0.0290961
0.0268784
0.024953
0.0231395
0.0214493
0.0198902
0.0184573
0.0171472
0.0159593
0.0148939
0.0139522
0.0131362
0.0124481
0.0118882
0.0114552
0.0111478
0.0109654
0.0109071
0.0109719
0.0111573
0.0114608
0.01188
0.0124128
0.0130587
0.0138177
0.0146879
0.0156673
0.016754
0.0179436
0.019231
0.0206133
0.0220882
0.023651
0.0252976
0.0270259
0.0288325
0.030711
0.0326552
0.0346613
0.0367265
0.0388459
0.0410139
0.0432266
0.0454811
0.0477731
0.0500951
0.0524395
0.0548009
0.0571761
0.0595609
0.0619492
0.0643338
0.0667081
0.0690674
0.0714069
0.0737203
0.0759999
0.0782383
0.0804296
0.0825703
0.0846571
0.0866857
0.0886504
0.0905443
0.0923609
0.0940952
0.0957432
0.0973005
0.0987615
0.100119
0.101366
0.102498
0.103511
0.104402
0.105172
0.10582
0.106343
0.10674
0.107006
0.107139
0.107137
0.106999
0.106728
0.106327
0.105799
0.105147
0.104371
0.103473
0.102454
0.101314
0.100052
0.0986685
0.0971655
0.0955443
0.0938068
0.0919665
0.0900362
0.0878394
0.0852278
0.0320946
0.02931
0.0269903
0.024974
0.0230726
0.021298
0.0196606
0.0181557
0.0167788
0.0155293
0.0144083
0.013417
0.012557
0.0118293
0.0112339
0.0107698
0.0104364
0.0102329
0.010158
0.0102097
0.0103849
0.0106807
0.0110956
0.0116279
0.0122771
0.0130428
0.0139223
0.0149129
0.0160124
0.0172168
0.0185214
0.0199236
0.0214205
0.0230073
0.0246792
0.0264337
0.0282674
0.0301742
0.0321479
0.0341852
0.0362832
0.0384372
0.0406414
0.0428911
0.0451832
0.047513
0.0498732
0.0522563
0.0546572
0.0570727
0.0594986
0.0619283
0.0643545
0.0667704
0.0691708
0.0715509
0.0739047
0.0762244
0.0785025
0.0807333
0.082913
0.0850384
0.0871056
0.0891087
0.0910407
0.0928945
0.0946647
0.0963466
0.0979356
0.0994257
0.10081
0.102082
0.103237
0.104271
0.105182
0.105968
0.10663
0.107163
0.107565
0.107833
0.107962
0.107953
0.107804
0.107517
0.107096
0.106543
0.10586
0.105049
0.104109
0.103041
0.101846
0.100522
0.0990701
0.0974915
0.0957887
0.0939639
0.0920321
0.0900069
0.0877046
0.08497
0.0322859
0.0293798
0.0269564
0.0248487
0.0228599
0.0210017
0.0192857
0.017708
0.0162643
0.0149536
0.0137771
0.0127365
0.0118325
0.0110654
0.0104351
0.00994133
0.00958366
0.00936069
0.00927009
0.00930921
0.00947493
0.00976493
0.0101781
0.0107129
0.0113685
0.0121434
0.0130344
0.0140387
0.0151539
0.0163766
0.0177025
0.0191287
0.020652
0.0222666
0.0239677
0.0257526
0.0276177
0.0295574
0.0315659
0.0336399
0.0357765
0.0379709
0.0402166
0.0425087
0.0448437
0.0472167
0.0496207
0.0520485
0.0544951
0.0569571
0.0594301
0.0619074
0.0643809
0.0668439
0.069291
0.0717177
0.0741177
0.0764835
0.0788076
0.0810841
0.083309
0.085479
0.0875902
0.0896368
0.0916116
0.0935072
0.0953175
0.0970374
0.0986619
0.100185
0.1016
0.1029
0.104081
0.105139
0.106072
0.106878
0.107554
0.108099
0.108509
0.108779
0.108907
0.108892
0.108733
0.108432
0.107991
0.107413
0.106699
0.105851
0.104869
0.103752
0.102499
0.101111
0.0995877
0.0979314
0.0961449
0.0942311
0.0922061
0.090085
0.0876766
0.0848185
0.0323294
0.029301
0.0267734
0.0245733
0.0224965
0.0205549
0.0187598
0.0171083
0.0155976
0.0142261
0.0129947
0.0119048
0.010957
0.0101512
0.00948747
0.00896585
0.00858548
0.00834407
0.00823849
0.00826598
0.00842398
0.00871077
0.00912529
0.00966573
0.0103301
0.0111165
0.0120213
0.0130419
0.0141764
0.0154215
0.0167729
0.0182272
0.0197804
0.0214268
0.023161
0.0249802
0.0268813
0.028859
0.0309077
0.0330241
0.0352049
0.0374448
0.0397371
0.0420766
0.0444596
0.0468813
0.049335
0.0518135
0.0543119
0.0568265
0.0593526
0.0618831
0.0644096
0.0669253
0.0694249
0.0719041
0.0743567
0.0767752
0.079152
0.0814807
0.0837572
0.0859781
0.0881391
0.0902345
0.0922569
0.0941989
0.0960537
0.0978161
0.0994803
0.10104
0.10249
0.103822
0.105033
0.106119
0.107076
0.107903
0.108597
0.109155
0.109574
0.10985
0.109979
0.10996
0.109791
0.109476
0.109016
0.108413
0.107668
0.106783
0.105757
0.104588
0.103278
0.101823
0.100227
0.0984909
0.0966192
0.0946149
0.0924958
0.0902782
0.0877631
0.0847804
0.0322213
0.0290699
0.0264378
0.0241441
0.0219775
0.0199513
0.0180766
0.0163513
0.0147732
0.0133412
0.0120553
0.0109164
0.00992511
0.00908165
0.00838617
0.00783816
0.00743605
0.00717689
0.00705737
0.00707507
0.00722803
0.00751469
0.00793356
0.00848205
0.00915752
0.00995747
0.0108788
0.011919
0.0130766
0.0143482
0.0157289
0.017215
0.0188018
0.0204834
0.0222546
0.0241126
0.0260546
0.0280754
0.0301698
0.032334
0.0345641
0.0368543
0.039198
0.0415899
0.0440261
0.0465021
0.0490113
0.0515466
0.0541029
0.056676
0.0592609
0.0618502
0.0644354
0.0670096
0.0695677
0.0721056
0.0746175
0.0770956
0.0795319
0.0819199
0.0842547
0.0865327
0.0887496
0.0908994
0.0929748
0.094968
0.0968723
0.0986819
0.100391
0.101993
0.103482
0.104851
0.106096
0.107212
0.108197
0.109048
0.109762
0.110337
0.110768
0.111051
0.111183
0.111161
0.110985
0.110656
0.110177
0.109549
0.108774
0.107851
0.10678
0.105559
0.104188
0.102667
0.100996
0.0991792
0.0972211
0.0951256
0.0929117
0.0905967
0.0879734
0.0848639
0.0319596
0.0286832
0.0259453
0.0235567
0.0212981
0.0191853
0.0172308
0.0154317
0.0137861
0.0122932
0.0109528
0.00976511
0.00873094
0.00785094
0.00712497
0.00655157
0.0061284
0.00585243
0.00572068
0.00573118
0.00588213
0.00617156
0.00659717
0.00715577
0.00784443
0.0086607
0.00960174
0.0106654
0.0118501
0.0131518
0.0145656
0.0160868
0.0177107
0.0194312
0.0212436
0.0231451
0.0251329
0.0272023
0.0293477
0.0315647
0.0338489
0.0361941
0.0385939
0.0410431
0.043538
0.0460741
0.0486447
0.0512428
0.053863
0.0565005
0.0591499
0.0618036
0.0644533
0.067092
0.0697149
0.0723181
0.0748959
0.0774406
0.0799435
0.0823975
0.0847973
0.0871389
0.0894178
0.091628
0.093762
0.095812
0.0977712
0.0996336
0.101393
0.103043
0.104576
0.105987
0.10727
0.108421
0.109437
0.110316
0.111054
0.111648
0.112094
0.112388
0.112524
0.112502
0.11232
0.111979
0.111482
0.11083
0.110024
0.109062
0.107946
0.106672
0.10524
0.10365
0.101905
0.100007
0.0979619
0.0957745
0.0934645
0.0910504
0.0883159
0.0850754
0.0315433
0.0281372
0.0252903
0.0228052
0.0204532
0.0182523
0.0162173
0.0143443
0.0126306
0.0110762
0.00968083
0.00844461
0.00736837
0.00645273
0.00569699
0.00509884
0.00465549
0.00436417
0.00422244
0.0042285
0.00438015
0.00467466
0.00510904
0.00567982
0.00638424
0.00722008
0.00818467
0.00927572
0.0104911
0.0118266
0.0132768
0.0148368
0.0165015
0.0182651
0.0201232
0.0220733
0.0241126
0.026236
0.0284375
0.0307121
0.0330549
0.0354598
0.0379207
0.0404328
0.0429921
0.0455941
0.0482321
0.050899
0.0535888
0.0562965
0.0590162
0.0617401
0.0644602
0.0671696
0.0698638
0.0725389
0.0751894
0.0778072
0.0803835
0.0829101
0.0853815
0.087793
0.0901402
0.0924169
0.0946157
0.0967286
0.0987487
0.10067
0.102485
0.104188
0.105772
0.10723
0.108557
0.109748
0.1108
0.11171
0.112475
0.113093
0.113557
0.113863
0.114008
0.113987
0.113801
0.11345
0.112936
0.112261
0.111424
0.110424
0.109262
0.107935
0.106442
0.104784
0.102962
0.100983
0.0988506
0.0965699
0.0941618
0.0916451
0.0887945
0.0854171
0.0309701
0.0274287
0.0244685
0.021885
0.019439
0.017149
0.0150318
0.0130835
0.0113009
0.00968406
0.00823311
0.0069486
0.00583102
0.0048803
0.0040951
0.00347274
0.00301046
0.00270577
0.00255647
0.00256048
0.00271494
0.00301644
0.00346165
0.00404722
0.00477063
0.00562975
0.00662179
0.00774405
0.0089938
0.0103666
0.0118568
0.0134593
0.015169
0.0169805
0.0188897
0.020894
0.0229903
0.0251729
0.0274354
0.0297723
0.0321785
0.0346484
0.037176
0.0397567
0.0423866
0.0450605
0.0477718
0.0505132
0.0532785
0.0560623
0.0588581
0.0616584
0.0644551
0.0672418
0.070014
0.0727677
0.0754973
0.0781947
0.0808506
0.0834564
0.0860057
0.0884936
0.0909155
0.0932651
0.095535
0.0977172
0.0998045
0.10179
0.103668
0.10543
0.10707
0.108581
0.109957
0.111194
0.112286
0.113233
0.11403
0.114673
0.115159
0.115481
0.115636
0.11562
0.115432
0.115073
0.114544
0.113846
0.112979
0.111942
0.110734
0.109353
0.107799
0.106072
0.104175
0.102114
0.0998924
0.0975161
0.095006
0.0923817
0.0894089
0.0858878
0.0302363
0.0265551
0.0234775
0.0207932
0.0182519
0.0158713
0.0136692