/*--------------------------------*- C++ -*----------------------------------*\
  =========                 |
  \\      /  F ield         | OpenFOAM: The Open Source CFD Toolbox
   \\    /   O peration     | Website:  https://openfoam.org
    \\  /    A nd           | Version:  11
     \\/     M anipulation  |
\*---------------------------------------------------------------------------*/
FoamFile
{
    format      ascii;
    class       surfaceScalarField;
    location    "2.5";
    object      phi;
}
// * * * * * * * * * * * * * * * * * * * * * * * * * * * * * * * * * * * * * //

dimensions      [0 3 -1 0 0 0 0];

internalField   nonuniform List<scalar> 
19980
(
6.20007e-07
-6.19801e-07
1.33128e-06
-7.11156e-07
2.44837e-06
-1.1172e-06
3.03752e-06
-5.88991e-07
2.94318e-06
9.43043e-08
2.06376e-06
8.79499e-07
3.63318e-07
1.70043e-06
-2.14541e-06
2.50873e-06
-5.43217e-06
3.28674e-06
-9.45573e-06
4.02365e-06
-1.41694e-05
4.71368e-06
-1.95196e-05
5.35017e-06
-2.54533e-05
5.93377e-06
-3.19195e-05
6.4662e-06
-3.88703e-05
6.95089e-06
-4.62565e-05
7.38629e-06
-5.40281e-05
7.77154e-06
-6.21345e-05
8.10636e-06
-7.05256e-05
8.39105e-06
-7.915e-05
8.62433e-06
-8.79563e-05
8.80629e-06
-9.6896e-05
8.93974e-06
-0.000105923
9.02689e-06
-0.000114991
9.06849e-06
-0.000124056
9.06478e-06
-0.000133076
9.01952e-06
-0.000142014
8.93846e-06
-0.000150835
8.82145e-06
-0.000159502
8.6665e-06
-0.000167979
8.47735e-06
-0.000176237
8.25833e-06
-0.000184247
8.00932e-06
-0.000191978
7.73121e-06
-0.000199407
7.42869e-06
-0.000206512
7.10478e-06
-0.00021327
6.75865e-06
-0.00021966
6.39016e-06
-0.000225662
6.00168e-06
-0.000231256
5.59463e-06
-0.000236425
5.16861e-06
-0.00024115
4.72472e-06
-0.000245417
4.26694e-06
-0.000249216
3.79907e-06
-0.000252538
3.32189e-06
-0.000255372
2.83461e-06
-0.00025771
2.33793e-06
-0.000259545
1.83468e-06
-0.000260873
1.32759e-06
-0.00026169
8.17359e-07
-0.000261994
3.03612e-07
-0.000261781
-2.12977e-07
-0.00026105
-7.30084e-07
-0.000259806
-1.24488e-06
-0.00025805
-1.75557e-06
-0.000255788
-2.26164e-06
-0.000253026
-2.76252e-06
-0.000249769
-3.25663e-06
-0.000246028
-3.74165e-06
-0.000241812
-4.21544e-06
-0.000237135
-4.67689e-06
-0.000232009
-5.12579e-06
-0.000226448
-5.5619e-06
-0.000220463
-5.9843e-06
-0.000214072
-6.39122e-06
-0.000207292
-6.78047e-06
-0.000200142
-7.15004e-06
-0.000192643
-7.49818e-06
-0.00018482
-7.82314e-06
-0.000176697
-8.12309e-06
-0.000168301
-8.39597e-06
-0.000159662
-8.63917e-06
-0.000150813
-8.84942e-06
-0.000141789
-9.02332e-06
-0.000132631
-9.15799e-06
-0.00012338
-9.25146e-06
-0.000114077
-9.30249e-06
-0.000104768
-9.30971e-06
-9.54967e-05
-9.2711e-06
-8.63126e-05
-9.18405e-06
-7.72667e-05
-9.04592e-06
-6.84123e-05
-8.8544e-06
-5.98046e-05
-8.60774e-06
-5.15e-05
-8.30467e-06
-4.35556e-05
-7.94436e-06
-3.60293e-05
-7.52639e-06
-2.89785e-05
-7.05083e-06
-2.24602e-05
-6.51827e-06
-1.65307e-05
-5.92953e-06
-1.1245e-05
-5.2857e-06
-6.65622e-06
-4.58872e-06
-2.81374e-06
-3.84241e-06
2.3971e-07
-3.05347e-06
2.47214e-06
-2.23248e-06
3.86765e-06
-1.39551e-06
4.43462e-06
-5.66976e-07
4.22045e-06
2.14105e-07
3.3368e-06
8.83603e-07
2.00472e-06
1.33218e-06
6.48928e-07
1.35606e-06
6.49211e-07
1.88786e-06
-2.50756e-06
3.89817e-06
-2.72152e-06
5.08744e-06
-2.30642e-06
5.10572e-06
-6.07324e-07
3.40658e-06
1.79344e-06
-2.57391e-07
4.54338e-06
-5.999e-06
7.44207e-06
-1.38475e-05
1.03572e-05
-2.37641e-05
1.32034e-05
-3.56696e-05
1.59291e-05
-4.94592e-05
1.85032e-05
-6.50104e-05
2.09015e-05
-8.21891e-05
2.31123e-05
-0.000100857
2.51337e-05
-0.000120872
2.6966e-05
-0.00014209
2.86047e-05
-0.000164369
3.00505e-05
-0.000187566
3.13038e-05
-0.000211539
3.23635e-05
-0.000236145
3.32308e-05
-0.00026125
3.39111e-05
-0.000286719
3.44093e-05
-0.000312421
3.47289e-05
-0.000338229
3.48767e-05
-0.000364027
3.48623e-05
-0.0003897
3.46925e-05
-0.000415136
3.43743e-05
-0.00044023
3.39157e-05
-0.000464886
3.33228e-05
-0.00048901
3.26014e-05
-0.000512511
3.17586e-05
-0.000535304
3.08024e-05
-0.000557313
2.9741e-05
-0.000578466
2.85817e-05
-0.000598693
2.73311e-05
-0.000617928
2.59945e-05
-0.000636115
2.4577e-05
-0.000653197
2.30833e-05
-0.00066912
2.15176e-05
-0.000683836
1.98842e-05
-0.000697301
1.81898e-05
-0.000709476
1.64423e-05
-0.000720326
1.46491e-05
-0.000729819
1.28151e-05
-0.000737929
1.09445e-05
-0.000744633
9.04216e-06
-0.000749912
7.11371e-06
-0.000753749
5.16457e-06
-0.000756131
3.1992e-06
-0.000757049
1.22177e-06
-0.0007565
-7.62543e-07
-0.000754482
-2.74768e-06
-0.000751
-4.72761e-06
-0.000746058
-6.69694e-06
-0.000739669
-8.65069e-06
-0.000731848
-1.05834e-05
-0.000722616
-1.24887e-05
-0.000711998
-1.43602e-05
-0.000700021
-1.61922e-05
-0.000686718
-1.79802e-05
-0.000672123
-1.97198e-05
-0.000656279
-2.14066e-05
-0.000639228
-2.30348e-05
-0.000621022
-2.45981e-05
-0.000601712
-2.60897e-05
-0.00058136
-2.75029e-05
-0.000560027
-2.88306e-05
-0.000537785
-3.00654e-05
-0.000514708
-3.11996e-05
-0.000490879
-3.22252e-05
-0.000466385
-3.31334e-05
-0.00044132
-3.39146e-05
-0.000415784
-3.4559e-05
-0.000389884
-3.50577e-05
-0.000363733
-3.54028e-05
-0.000337448
-3.55876e-05
-0.000311152
-3.56057e-05
-0.000284974
-3.54496e-05
-0.000259046
-3.51118e-05
-0.000233507
-3.45846e-05
-0.000208501
-3.38613e-05
-0.000184172
-3.29364e-05
-0.000160671
-3.18055e-05
-0.00013815
-3.04656e-05
-0.000116761
-2.89152e-05
-9.66575e-05
-2.71543e-05
-7.79905e-05
-2.51853e-05
-6.09075e-05
-2.30125e-05
-4.55497e-05
-2.06434e-05
-3.20488e-05
-1.80896e-05
-2.05217e-05
-1.53696e-05
-1.10633e-05
-1.25119e-05
-3.73645e-06
-9.55929e-06
1.44263e-06
-6.57458e-06
4.525e-06
-3.64942e-06
5.6594e-06
-9.20316e-07
5.1361e-06
1.40682e-06
3.44426e-06
3.02357e-06
1.34151e-06
3.45829e-06
1.9909e-06
1.41201e-06
-3.91967e-06
3.34496e-06
-4.65438e-06
3.84984e-06
-2.81133e-06
2.28213e-06
9.60477e-07
-1.89151e-06
5.96697e-06
-9.01667e-06
1.16687e-05
-1.92718e-05
1.76971e-05
-3.27114e-05
2.37969e-05
-4.93025e-05
2.97945e-05
-6.89506e-05
3.55774e-05
-9.15088e-05
4.10614e-05
-0.000116804
4.61969e-05
-0.00014464
5.09486e-05
-0.000174804
5.52975e-05
-0.000207075
5.92368e-05
-0.00024123
6.27594e-05
-0.00027704
6.58604e-05
-0.000314278
6.85422e-05
-0.000352723
7.08085e-05
-0.000392156
7.26642e-05
-0.000432362
7.41162e-05
-0.000473128
7.51757e-05
-0.000514255
7.58563e-05
-0.000555549
7.61699e-05
-0.000596815
7.61293e-05
-0.000637875
7.5752e-05
-0.000678556
7.50557e-05
-0.000718693
7.4053e-05
-0.000758127
7.27566e-05
-0.000796709
7.11829e-05
-0.000834298
6.93482e-05
-0.000870763
6.7267e-05
-0.000905976
6.49539e-05
-0.000939819
6.24247e-05
-0.000972182
5.96943e-05
-0.00100296
5.67751e-05
-0.00103206
5.36785e-05
-0.0010594
5.04161e-05
-0.00108488
4.69994e-05
-0.00110843
4.34402e-05
-0.00113
3.97511e-05
-0.0011495
3.59455e-05
-0.00116689
3.20367e-05
-0.00118211
2.80368e-05
-0.00119512
2.39566e-05
-0.00120588
1.98069e-05
-0.00121437
1.55986e-05
-0.00122055
1.13429e-05
-0.0012244
7.0507e-06
-0.00122591
2.73278e-06
-0.00122507
-1.59963e-06
-0.00122189
-5.93467e-06
-0.00121635
-1.02604e-05
-0.00120849
-1.4565e-05
-0.0011983
-1.88366e-05
-0.00118582
-2.30628e-05
-0.00117108
-2.72305e-05
-0.00115411
-3.13269e-05
-0.00113496
-3.53398e-05
-0.00111369
-3.92576e-05
-0.00109034
-4.30685e-05
-0.00106498
-4.676e-05
-0.0010377
-5.03189e-05
-0.00100857
-5.37314e-05
-0.000977674
-5.69828e-05
-0.000945119
-6.00585e-05
-0.000911007
-6.29428e-05
-0.000875452
-6.56198e-05
-0.000838579
-6.80728e-05
-0.000800519
-7.02848e-05
-0.000761415
-7.22379e-05
-0.000721415
-7.39139e-05
-0.00068068
-7.52943e-05
-0.000639376
-7.63615e-05
-0.00059768
-7.70989e-05
-0.000555777
-7.74912e-05
-0.000513859
-7.75236e-05
-0.000472128
-7.7181e-05
-0.000430791
-7.64488e-05
-0.000390062
-7.53128e-05
-0.000350163
-7.37607e-05
-0.000311318
-7.17819e-05
-0.000273755
-6.9368e-05
-0.000237707
-6.65136e-05
-0.000203406
-6.32161e-05
-0.000171084
-5.94769e-05
-0.000140967
-5.53021e-05
-0.000113276
-5.07035e-05
-8.82185e-05
-4.57006e-05
-6.5985e-05
-4.03231e-05
-4.67396e-05
-3.46151e-05
-3.06102e-05
-2.86413e-05
-1.76745e-05
-2.2495e-05
-7.9406e-06
-1.63086e-05
-1.32094e-06
-1.02691e-05
2.40186e-06
-4.64294e-06
3.61938e-06
1.89504e-07
2.94839e-06
3.69478e-06
1.29059e-06
5.11583e-06
3.28156e-06
1.02218e-06
-4.94173e-06
1.72391e-06
-5.35618e-06
4.1633e-07
-1.50368e-06
-3.7259e-06
5.10253e-06
-1.1272e-05
1.35132e-05
-2.26035e-05
2.3e-05
-3.79285e-05
3.30223e-05
-5.73264e-05
4.31948e-05
-8.07699e-05
5.32379e-05
-0.000108148
6.29552e-05
-0.000139294
7.22073e-05
-0.000173993
8.08966e-05
-0.000212003
8.89581e-05
-0.000253057
9.63515e-05
-0.000296869
0.000103049
-0.000343149
0.000109039
-0.000391603
0.000114314
-0.000441937
0.000118877
-0.000493856
0.000122728
-0.000547071
0.000125878
-0.0006013
0.000128345
-0.000656269
0.000130145
-0.000711706
0.000131293
-0.000767351
0.000131815
-0.000822956
0.000131735
-0.000878281
0.000131077
-0.000933091
0.000129866
-0.000987165
0.000128126
-0.00104029
0.000125885
-0.00109228
0.000123167
-0.00114293
0.000119998
-0.00119206
0.000116402
-0.00123951
0.000112406
-0.00128512
0.000108035
-0.00132874
0.000103312
-0.00137023
9.82611e-05
-0.00140945
9.29033e-05
-0.0014463
8.72596e-05
-0.00148065
8.13504e-05
-0.0015124
7.51967e-05
-0.00154147
6.882e-05
-0.00156777
6.22422e-05
-0.00159122
5.54843e-05
-0.00161175
4.85664e-05
-0.0016293
4.1508e-05
-0.00164382
3.43282e-05
-0.00165527
2.70465e-05
-0.00166361
1.96821e-05
-0.00166881
1.22537e-05
-0.00167086
4.78065e-06
-0.00166974
-2.71758e-06
-0.00166545
-1.02209e-05
-0.00165801
-1.77089e-05
-0.00164741
-2.51613e-05
-0.00163369
-3.25572e-05
-0.00161688
-3.98753e-05
-0.00159701
-4.70936e-05
-0.00157415
-5.41905e-05
-0.00154835
-6.1144e-05
-0.00151967
-6.79328e-05
-0.0014882
-7.45347e-05
-0.00145404
-8.09268e-05
-0.00141727
-8.70857e-05
-0.00137801
-9.29868e-05
-0.00133639
-9.86049e-05
-0.00129254
-0.000103914
-0.00124659
-0.000108888
-0.00119871
-0.000113499
-0.00114907
-0.000117718
-0.00109783
-0.000121518
-0.0010452
-0.00012487
-0.000991374
-0.000127742
-0.000936562
-0.000130106
-0.00088099
-0.000131934
-0.000824891
-0.000133197
-0.000768513
-0.00013387
-0.000712111
-0.000133926
-0.00065595
-0.000133342
-0.000600305
-0.000132094
-0.000545458
-0.00013016
-0.000491697
-0.000127521
-0.000439317
-0.000124161
-0.000388617
-0.000120068
-0.000339896
-0.000115234
-0.000293456
-0.000109657
-0.000249592
-0.000103341
-0.000208594
-9.62996e-05
-0.000170741
-8.85567e-05
-0.000136292
-8.01496e-05
-0.000105481
-7.11337e-05
-7.8508e-05
-6.15885e-05
-5.55226e-05
-5.16267e-05
-3.66125e-05
-4.14052e-05
-2.17805e-05
-3.11407e-05
-1.09187e-05
-2.1131e-05
-3.77688e-06
-1.17849e-05
7.68547e-08
-3.66424e-06
1.29889e-06
2.47303e-06
8.24101e-07
5.59051e-06
4.10567e-06
3.51106e-07
-5.2929e-06
-5.854e-07
-4.4197e-06
-4.36376e-06
2.27454e-06
-1.17649e-05
1.25038e-05
-2.33329e-05
2.50811e-05
-3.94371e-05
3.91042e-05
-6.02876e-05
5.3873e-05
-8.59629e-05
6.88701e-05
-0.00011643
8.37056e-05
-0.000151566
9.80906e-05
-0.000191181
0.000111822
-0.000235035
0.000124751
-0.000282847
0.000136769
-0.000334303
0.000147807
-0.000389073
0.00015782
-0.000446816
0.000166781
-0.000507178
0.000174676
-0.000569802
0.000181501
-0.000634341
0.000187266
-0.000700447
0.000191985
-0.000767774
0.000195673
-0.000835986
0.000198357
-0.000904759
0.000200066
-0.000973776
0.000200832
-0.00104273
0.000200688
-0.00111132
0.000199671
-0.00117928
0.000197817
-0.00124631
0.000195164
-0.00131218
0.000191749
-0.00137662
0.000187611
-0.00143941
0.000182788
-0.00150033
0.000177317
-0.00155916
0.000171236
-0.0016157
0.000164583
-0.00166978
0.000157392
-0.00172122
0.0001497
-0.00176986
0.00014154
-0.00181554
0.000132944
-0.00185814
0.000123945
-0.00189752
0.000114575
-0.00193356
0.000104866
-0.00196617
9.485e-05
-0.00199524
8.45585e-05
-0.0020207
7.40217e-05
-0.00204246
6.32697e-05
-0.00206047
5.2332e-05
-0.00207466
4.12384e-05
-0.00208499
3.00179e-05
-0.00209144
1.86998e-05
-0.00209397
7.31359e-06
-0.00209258
-4.11081e-06
-0.00208726
-1.5543e-05
-0.00207801
-2.69523e-05
-0.00206487
-3.83076e-05
-0.00204785
-4.95771e-05
-0.00202699
-6.07284e-05
-0.00200236
-7.17285e-05
-0.00197401
-8.25442e-05
-0.00194201
-9.3142e-05
-0.00190645
-0.000103488
-0.00186744
-0.000113547
-0.00182508
-0.000123284
-0.00177951
-0.000132662
-0.00173085
-0.000141644
-0.00167926
-0.000150191
-0.00162491
-0.000158264
-0.00156798
-0.000165822
-0.00150865
-0.000172824
-0.00144715
-0.000179227
-0.00138367
-0.000184991
-0.00131847
-0.00019007
-0.00125179
-0.000194423
-0.00118389
-0.000198006
-0.00111505
-0.000200778
-0.00104555
-0.000202697
-0.000975692
-0.000203725
-0.000905794
-0.000203824
-0.000836176
-0.000202959
-0.000767173
-0.000201097
-0.000699127
-0.000198206
-0.000632388
-0.000194261
-0.00056731
-0.000189239
-0.000504253
-0.000183126
-0.000443575
-0.000175911
-0.000385636
-0.000167596
-0.000330787
-0.00015819
-0.000279369
-0.000147717
-0.000231708
-0.000136218
-0.000188106
-0.000123752
-0.000148831
-0.000110408
-0.000114112
-9.63083e-05
-8.41169e-05
-8.16214e-05
-5.89454e-05
-6.65766e-05
-3.86034e-05
-5.14826e-05
-2.29819e-05
-3.67524e-05
-1.18292e-05
-2.29377e-05
-4.71976e-06
-1.07738e-05
-1.0201e-06
-1.22651e-06
1.50907e-07
4.41944e-06
4.25655e-06
-4.27331e-07
-4.86553e-06
-3.3054e-06
-1.54177e-06
-9.95237e-06
8.92163e-06
-2.10517e-05
2.36029e-05
-3.70758e-05
4.11053e-05
-5.83469e-05
6.03752e-05
-8.50477e-05
8.05738e-05
-0.000117232
0.000101055
-0.000154853
0.000121326
-0.000197772
0.000141009
-0.000245775
0.000159826
-0.000298591
0.000177568
-0.000355911
0.000194089
-0.000417388
0.000209285
-0.00048265
0.000223082
-0.000551305
0.000235437
-0.00062296
0.00024633
-0.000697211
0.000255753
-0.000773654
0.000263709
-0.000851886
0.000270217
-0.000931516
0.000275302
-0.00101216
0.000278996
-0.00109342
0.000281335
-0.00117496
0.000282363
-0.00125639
0.000282125
-0.00133739
0.00028067
-0.00141762
0.000278046
-0.00149676
0.000274306
-0.00157451
0.000269501
-0.00165058
0.000263683
-0.0017247
0.000256905
-0.0017966
0.000249219
-0.00186604
0.000240676
-0.00193279
0.000231328
-0.00199662
0.000221225
-0.00205734
0.000210416
-0.00211475
0.000198949
-0.00216867
0.000186869
-0.00221895
0.000174222
-0.00226543
0.000161055
-0.00230797
0.000147411
-0.00234646
0.000133336
-0.00238077
0.000118871
-0.00241081
0.000104062
-0.00243649
8.89485e-05
-0.00245773
7.35738e-05
-0.00247447
5.79792e-05
-0.00248666
4.2206e-05
-0.00249426
2.62955e-05
-0.00249723
1.02895e-05
-0.00249557
-5.76993e-06
-0.00248928
-2.18401e-05
-0.00247835
-3.78778e-05
-0.00246282
-5.38394e-05
-0.00244271
-6.96802e-05
-0.00241809
-8.53548e-05
-0.002389
-0.000100817
-0.00235552
-0.00011602
-0.00231775
-0.000130916
-0.00227578
-0.000145457
-0.00222974
-0.000159593
-0.00217975
-0.000173274
-0.00212596
-0.000186448
-0.00206854
-0.000199061
-0.00200767
-0.000211061
-0.00194355
-0.000222391
-0.00187637
-0.000232995
-0.00180638
-0.000242816
-0.00173381
-0.000251795
-0.00165893
-0.000259874
-0.00158201
-0.000266994
-0.00150333
-0.000273097
-0.00142322
-0.000278123
-0.00134198
-0.000282017
-0.00125995
-0.000284722
-0.00117749
-0.000286186
-0.00109496
-0.000286358
-0.00101273
-0.000285189
-0.00093119
-0.000282636
-0.000850737
-0.000278659
-0.000771774
-0.000273224
-0.000694709
-0.000266304
-0.000619954
-0.000257881
-0.000547921
-0.000247945
-0.000479016
-0.000236501
-0.000413639
-0.000223567
-0.000352174
-0.000209181
-0.000294989
-0.000193403
-0.000242419
-0.000176322
-0.000194766
-0.000158061
-0.000152281
-0.000138793
-0.000115156
-0.000118747
-8.35057e-05
-9.82271e-05
-5.73514e-05
-7.76369e-05
-3.66016e-05
-5.75022e-05
-2.10298e-05
-3.85096e-05
-1.02523e-05
-2.15513e-05
-3.70464e-06
-7.77423e-06
-6.19498e-07
1.33429e-06
3.63702e-06
-1.24847e-06
-3.6171e-06
-6.22682e-06
3.43655e-06
-1.59722e-05
1.86669e-05
-3.10368e-05
3.86676e-05
-5.17896e-05
6.18582e-05
-7.84807e-05
8.70662e-05
-0.000111243
0.000113336
-0.000150096
0.000139908
-0.000194959
0.000166189
-0.000245666
0.000191717
-0.000301981
0.000216141
-0.00036361
0.000239196
-0.000430207
0.000260686
-0.00050139
0.000280468
-0.000576757
0.000298448
-0.000655883
0.000314562
-0.000738325
0.000328773
-0.000823639
0.000341066
-0.000911378
0.000351448
-0.0010011
0.000359936
-0.00109235
0.000366559
-0.00118471
0.000371356
-0.00127775
0.000374376
-0.00137106
0.00037567
-0.00146423
0.000375297
-0.00155688
0.000373317
-0.00164863
0.000369796
-0.00173912
0.000364799
-0.00182802
0.000358393
-0.00191498
0.000350647
-0.0019997
0.000341628
-0.00208189
0.000331405
-0.00216126
0.000320045
-0.00223755
0.000307615
-0.0023105
0.000294182
-0.00237989
0.000279809
-0.00244551
0.000264559
-0.00250713
0.000248496
-0.00256459
0.00023168
-0.00261771
0.000214171
-0.00266632
0.000196029
-0.0027103
0.000177312
-0.00274951
0.000158078
-0.00278383
0.000138383
-0.00281316
0.000118284
-0.00283743
9.7837e-05
-0.00285655
7.70973e-05
-0.00287046
5.61199e-05
-0.00287912
3.49603e-05
-0.00288251
1.36741e-05
-0.0028806
-7.68272e-06
-0.00287338
-2.90533e-05
-0.00286088
-5.03802e-05
-0.00284311
-7.16053e-05
-0.00282013
-9.2669e-05
-0.00279197
-0.000113511
-0.00275872
-0.00013407
-0.00272045
-0.000154285
-0.00267728
-0.00017409
-0.00262931
-0.000193422
-0.00257669
-0.000212214
-0.00251957
-0.000230398
-0.00245811
-0.000247906
-0.0023925
-0.000264667
-0.00232295
-0.000280609
-0.00224968
-0.00029566
-0.00217293
-0.000309744
-0.00209296
-0.000322786
-0.00201005
-0.00033471
-0.00192448
-0.00034544
-0.00183658
-0.000354898
-0.00174667
-0.000363008
-0.0016551
-0.000369696
-0.00156223
-0.000374886
-0.00146844
-0.00037851
-0.00137413
-0.000380496
-0.00127971
-0.000380781
-0.00118559
-0.000379302
-0.00109222
-0.000376006
-0.00100004
-0.000370841
-0.000909497
-0.000363768
-0.000821048
-0.000354754
-0.000735151
-0.000343778
-0.000652263
-0.000330833
-0.000572835
-0.000315929
-0.000497307
-0.000299095
-0.000426103
-0.000280385
-0.000359624
-0.000259882
-0.00029824
-0.000237706
-0.000242281
-0.000214021
-0.000192024
-0.00018905
-0.000147687
-0.000163084
-0.000109408
-0.000136506
-7.72356e-05
-0.000109809
-5.11133e-05
-8.36245e-05
-3.08616e-05
-5.87612e-05
-1.6165e-05
-3.6248e-05
-6.55923e-06
-1.738e-05
-1.42533e-06
-3.79964e-06
2.21165e-06
-2.08501e-06
-1.53212e-06
-9.22048e-06
1.05719e-05
-2.21751e-05
3.16216e-05
-4.13405e-05
5.7833e-05
-6.69707e-05
8.74883e-05
-9.92288e-05
0.000119324
-0.000138179
0.000152287
-0.000183789
0.000185517
-0.000235936
0.000218336
-0.000294424
0.000250205
-0.000358982
0.000280699
-0.000429284
0.000309499
-0.000504959
0.000336361
-0.000585597
0.000361106
-0.000670756
0.000383607
-0.000759975
0.000403782
-0.000852782
0.000421579
-0.000948693
0.000436977
-0.00104722
0.000449976
-0.00114788
0.000460595
-0.00125019
0.000468867
-0.00135367
0.000474839
-0.00145786
0.000478567
-0.00156231
0.000480115
-0.00166656
0.000479554
-0.0017702
0.000476959
-0.00187282
0.000472409
-0.00197401
0.000465987
-0.00207339
0.000457776
-0.0021706
0.00044786
-0.0022653
0.000436326
-0.00235715
0.000423258
-0.00244585
0.000408743
-0.0025311
0.000392863
-0.00261262
0.000375703
-0.00269016
0.000357344
-0.00276346
0.000337867
-0.00283232
0.000317351
-0.00289651
0.000295873
-0.00295585
0.000273511
-0.00301016
0.000250341
-0.00305929
0.000226436
-0.00310308
0.00020187
-0.00314141
0.000176716
-0.00317418
0.000151046
-0.00320127
0.000124931
-0.00322261
9.84419e-05
-0.00323814
7.16498e-05
-0.00324781
4.46254e-05
-0.00325157
1.74399e-05
-0.00324942
-9.83498e-06
-0.00324135
-3.71268e-05
-0.00322737
-6.43621e-05
-0.00320751
-9.14663e-05
-0.00318181
-0.000118364
-0.00315035
-0.000144977
-0.00311319
-0.000171229
-0.00307043
-0.00019704
-0.00302219
-0.000222327
-0.00296861
-0.000247009
-0.00290982
-0.000270999
-0.00284601
-0.000294213
-0.00277735
-0.000316562
-0.00270406
-0.000337955
-0.00262637
-0.000358302
-0.00254452
-0.00037751
-0.00245878
-0.000395485
-0.00236944
-0.00041213
-0.0022768
-0.00042735
-0.00218119
-0.000441049
-0.00208295
-0.00045313
-0.00198246
-0.000463498
-0.0018801
-0.00047206
-0.00177626
-0.000478723
-0.00167137
-0.000483399
-0.00156587
-0.000486002
-0.00146019
-0.000486453
-0.00135482
-0.000484676
-0.00125022
-0.000480604
-0.00114689
-0.000474178
-0.00104531
-0.000465349
-0.000945978
-0.000454081
-0.000849405
-0.000440351
-0.000756081
-0.000424156
-0.000666498
-0.000405512
-0.000581132
-0.000384461
-0.000500443
-0.000361074
-0.000424864
-0.000335461
-0.000354797
-0.000307772
-0.000290602
-0.000278217
-0.000232585
-0.000247067
-0.000180992
-0.000214677
-0.000135996
-0.000181502
-9.76835e-05
-0.000148121
-6.6046e-05
-0.000115262
-4.09682e-05
-8.3839e-05
-2.22216e-05
-5.49947e-05
-9.46104e-06
-3.01405e-05
-2.23108e-06
-1.10297e-05
-1.9448e-08
-2.91097e-06
1.37882e-06
-1.22058e-05
1.98666e-05
-2.83968e-05
4.78126e-05
-5.17094e-05
8.11455e-05
-8.22766e-05
0.000118056
-0.000120163
0.000157211
-0.000165353
0.000197476
-0.000217754
0.000237919
-0.000277193
0.000277774
-0.000343426
0.000316438
-0.000416153
0.000353425
-0.000495012
0.000388357
-0.000579597
0.000420946
-0.000669468
0.000450976
-0.000764153
0.000478293
-0.00086316
0.000502789
-0.000965979
0.000524399
-0.00107209
0.000543092
-0.00118098
0.000558865
-0.00129212
0.000571735
-0.00140499
0.000581739
-0.00151909
0.000588932
-0.0016339
0.000593378
-0.00174894
0.000595152
-0.00186372
0.000594339
-0.00197779
0.000591029
-0.0020907
0.000585316
-0.00220201
0.0005773
-0.00231132
0.00056708
-0.00241822
0.000554761
-0.00252234
0.000540446
-0.00262332
0.000524239
-0.00272082
0.000506244
-0.00281452
0.000486564
-0.00290412
0.000465301
-0.00298933
0.000442555
-0.00306989
0.000418426
-0.00314555
0.000393012
-0.00321608
0.000366409
-0.00328128
0.000338711
-0.00334096
0.000310012
-0.00339492
0.000280405
-0.00344303
0.000249979
-0.00348514
0.000218825
-0.00352113
0.000187032
-0.00355089
0.000154688
-0.00357433
0.000121882
-0.00359138
8.87009e-05
-0.00360199
5.52328e-05
-0.00360611
2.15659e-05
-0.00360374
-1.22108e-05
-0.00359485
-4.60075e-05
-0.00357948
-7.97332e-05
-0.00355765
-0.000113296
-0.00352942
-0.000146601
-0.00349484
-0.000179555
-0.00345401
-0.00021206
-0.00340703
-0.000244017
-0.00335403
-0.000275326
-0.00329516
-0.000305884
-0.00323057
-0.000335586
-0.00316046
-0.000364325
-0.00308503
-0.000391993
-0.0030045
-0.000418478
-0.00291914
-0.000443668
-0.0028292
-0.000467449
-0.00273498
-0.000489704
-0.00263679
-0.000510317
-0.00253497
-0.00052917
-0.00242988
-0.000546145
-0.00232188
-0.000561126
-0.00221138
-0.000573997
-0.0020988
-0.000584643
-0.00198457
-0.000592954
-0.00186914
-0.000598823
-0.001753
-0.000602146
-0.00163663
-0.000602828
-0.00152052
-0.000600779
-0.00140521
-0.00059592
-0.0012912
-0.000588182
-0.00117904
-0.000577509
-0.00106926
-0.00056386
-0.0009624
-0.000547213
-0.00085899
-0.000527566
-0.000759558
-0.000504945
-0.000664614
-0.000479404
-0.000574653
-0.000451036
-0.00049014
-0.000419974
-0.000411507
-0.000386405
-0.000339147
-0.000350577
-0.0002734
-0.000312814
-0.000214545
-0.000273531
-0.000162797
-0.000233251
-0.000118289
-0.000192629
-8.10735e-05
-0.000152478
-5.11101e-05
-0.000113802
-2.82694e-05
-7.78354e-05
-1.23345e-05
-4.60753e-05
-3.01663e-06
-2.03476e-05
-3.03608e-06
-3.71485e-06
5.09369e-06
-1.5134e-05
3.12859e-05
-3.45293e-05
6.72078e-05
-6.19751e-05
0.000108591
-9.74773e-05
0.000153558
-0.000140992
0.000200726
-0.000192421
0.000248906
-0.0002516
0.000297097
-0.000318302
0.000344476
-0.000392233
0.000390369
-0.000473047
0.000434239
-0.000560347
0.000475658
-0.000653695
0.000514293
-0.000752615
0.000549896
-0.000856603
0.000582281
-0.000965136
0.000611321
-0.00107767
0.000636936
-0.00119366
0.000659083
-0.00131255
0.000677755
-0.00143379
0.000692968
-0.00155681
0.000704765
-0.00168109
0.000713203
-0.00180607
0.000718359
-0.00193123
0.000720318
-0.00205607
0.000719178
-0.00218009
0.000715044
-0.0023028
0.000708029
-0.00242375
0.000698247
-0.00254248
0.000685818
-0.00265859
0.000670865
-0.00277165
0.000653509
-0.00288129
0.000633877
-0.00298713
0.00061209
-0.00308884
0.000588272
-0.00318609
0.000562546
-0.00327856
0.000535031
-0.00336598
0.000505848
-0.00344808
0.000475113
-0.00352462
0.000442943
-0.00359536
0.000409452
-0.0036601
0.000374752
-0.00371865
0.000338954
-0.00377084
0.000302168
-0.00381651
0.000264503
-0.00385555
0.000226067
-0.00388783
0.000186965
-0.00391325
0.000147305
-0.00393174
0.000107193
-0.00394324
6.67344e-05
-0.00394771
2.60369e-05
-0.00394513
-1.47925e-05
-0.00393549
-5.56449e-05
-0.00391882
-9.64105e-05
-0.00389513
-0.000136978
-0.0038645
-0.000177234
-0.00382699
-0.000217065
-0.0037827
-0.000256352
-0.00373174
-0.000294977
-0.00367425
-0.000332819
-0.00361038
-0.000369752
-0.00354031
-0.000405651
-0.00346425
-0.000440387
-0.00338242
-0.000473829
-0.00329505
-0.000505843
-0.00320243
-0.000536293
-0.00310483
-0.000565043
-0.00300258
-0.000591954
-0.00289601
-0.000616885
-0.00278548
-0.000639696
-0.00267138
-0.000660247
-0.00255411
-0.000678399
-0.0024341
-0.000694012
-0.00231178
-0.000706954
-0.00218765
-0.000717091
-0.00206217
-0.000724297
-0.00193587
-0.000728452
-0.00180925
-0.000729443
-0.00168287
-0.000727165
-0.00155726
-0.000721527
-0.00143299
-0.000712449
-0.00131064
-0.000699868
-0.00119076
-0.000683739
-0.00107393
-0.00066404
-0.000960724
-0.000640773
-0.000851696
-0.000613973
-0.000747393
-0.000583708
-0.00064834
-0.000550089
-0.000555036
-0.000513278
-0.000467947
-0.000473494
-0.000387498
-0.000431026
-0.000314066
-0.000386246
-0.000247974
-0.000339624
-0.000189479
-0.000291745
-0.000138774
-0.000243334
-9.5977e-05
-0.000195275
-6.11318e-05
-0.000148648
-3.42134e-05
-0.000104754
-1.51358e-05
-6.51531e-05
-3.77158e-06
-3.17118e-05
-6.80765e-06
-4.48837e-06
9.58199e-06
-1.79737e-05
4.47711e-05
-4.05161e-05
8.97503e-05
-7.20358e-05
0.000140111
-0.000112421
0.000193943
-0.000161521
0.000249826
-0.00021915
0.000306534
-0.000285065
0.000363012
-0.000358974
0.000418386
-0.000440535
0.00047193
-0.000529352
0.000523056
-0.000624987
0.000571293
-0.000726963
0.00061627
-0.000834771
0.000657704
-0.000947874
0.000695384
-0.00106572
0.000729163
-0.00118772
0.000758945
-0.00131332
0.000784678
-0.00144191
0.000806348
-0.00157292
0.000823974
-0.00170575
0.0008376
-0.00183984
0.00084729
-0.00197461
0.000853131
-0.00210951
0.000855219
-0.002244
0.000853666
-0.00237755
0.000848593
-0.00250965
0.000840129
-0.00263981
0.000828408
-0.00276756
0.000813569
-0.00289245
0.000795753
-0.00301405
0.000775104
-0.00313194
0.000751766
-0.00324573
0.000725885
-0.00335506
0.000697604
-0.00345958
0.000667068
-0.00355897
0.000634417
-0.00365292
0.000599793
-0.00374114
0.000563334
-0.00382337
0.000525176
-0.00389937
0.000485455
-0.00396893
0.000444304
-0.00403182
0.000401853
-0.00408789
0.000358233
-0.00413696
0.000313572
-0.00417889
0.000267998
-0.00421356
0.000221636
-0.00424087
0.000174614
-0.00426073
0.000127057
-0.00427309
7.90914e-05
-0.0042779
3.08428e-05
-0.00427513
-1.75609e-05
-0.00426478
-6.5991e-05
-0.00424688
-0.000114317
-0.00422145
-0.000162408
-0.00418855
-0.00021013
-0.00414827
-0.000257346
-0.0041007
-0.000303919
-0.00404597
-0.000349707
-0.00398422
-0.000394567
-0.00391562
-0.000438351
-0.00384036
-0.000480911
-0.00375866
-0.000522093
-0.00367074
-0.000561744
-0.00357688
-0.000599705
-0.00347736
-0.000635818
-0.00337248
-0.00066992
-0.00326259
-0.000701848
-0.00314803
-0.000731437
-0.00302921
-0.000758523
-0.00290651
-0.000782941
-0.00278038
-0.000804529
-0.00265127
-0.000823126
-0.00251965
-0.000838573
-0.00238602
-0.000850718
-0.00225091
-0.000859414
-0.00211484
-0.000864522
-0.00197837
-0.00086591
-0.00184208
-0.00086346
-0.00170654
-0.000857066
-0.00157234
-0.000846639
-0.0014401
-0.000832109
-0.00131042
-0.000813425
-0.00118389
-0.000790566
-0.00106112
-0.000763539
-0.000942711
-0.000732386
-0.00082923
-0.000697189
-0.000721237
-0.000658081
-0.000619268
-0.000615247
-0.000523822
-0.000568939
-0.000435363
-0.000519485
-0.000354308
-0.000467301
-0.000281024
-0.000412907
-0.000215823
-0.000356946
-0.000158957
-0.0003002
-0.000110618
-0.000243614
-7.09387e-05
-0.000188327
-3.99996e-05
-0.000135693
-1.78424e-05
-8.73102e-05
-4.49214e-06
-4.50621e-05
-1.12998e-05
-5.23153e-06
1.48135e-05
-2.07137e-05
6.02533e-05
-4.6319e-05
0.000115356
-8.18313e-05
0.000175623
-0.00012702
0.000239131
-0.000181634
0.00030444
-0.000245391
0.00037029
-0.000317974
0.000435596
-0.000399023
0.000499435
-0.000488136
0.000561043
-0.000584867
0.000619787
-0.000688734
0.000675159
-0.00079922
0.000726755
-0.000915776
0.000774261
-0.00103783
0.000817442
-0.0011648
0.000856131
-0.00129608
0.00089022
-0.00143105
0.000919648
-0.0015691
0.000944397
-0.00170961
0.000964485
-0.00185197
0.000979959
-0.00199557
0.000990892
-0.00213982
0.000997377
-0.00228412
0.000999526
-0.00242792
0.000997465
-0.00257066
0.00099133
-0.0027118
0.000981267
-0.00285082
0.00096743
-0.00298723
0.000949977
-0.00312055
0.000929072
-0.00325032
0.000904877
-0.00337611
0.000877561
-0.00349752
0.00084729
-0.00361415
0.000814231
-0.00372563
0.000778549
-0.00383162
0.000740408
-0.0039318
0.000699971
-0.00402586
0.0006574
-0.00411354
0.000612852
-0.00419457
0.000566484
-0.00426871
0.00051845
-0.00433576
0.000468905
-0.00439553
0.000417998
-0.00444784
0.000365879
-0.00449253
0.000312696
-0.00452949
0.000258597
-0.00455861
0.00020373
-0.00457979
0.000148239
-0.00459297
9.22733e-05
-0.00459811
3.59788e-05
-0.00459518
-2.04956e-05
-0.00458417
-7.7e-05
-0.0045651
-0.000133383
-0.00453802
-0.000189491
-0.00450298
-0.000245168
-0.00446007
-0.000300256
-0.00440939
-0.000354595
-0.00435108
-0.000408019
-0.00428529
-0.000460361
-0.00421219
-0.000511451
-0.00413198
-0.000561115
-0.0040449
-0.000609176
-0.00395119
-0.000655455
-0.00385113
-0.000699768
-0.00374501
-0.00074193
-0.00363318
-0.000781754
-0.00351598
-0.000819051
-0.00339378
-0.00085363
-0.00326701
-0.000885302
-0.00313607
-0.000913876
-0.00300144
-0.000939164
-0.00286358
-0.000960982
-0.002723
-0.000979149
-0.00258023
-0.000993489
-0.00243581
-0.00100383
-0.00229031
-0.00101002
-0.00214431
-0.00101191
-0.00199842
-0.00100936
-0.00185324
-0.00100225
-0.0017094
-0.00099048
-0.00156753
-0.000973976
-0.00142827
-0.000952684
-0.00129226
-0.000926578
-0.00116013
-0.000895671
-0.0010325
-0.000860013
-0.000909988
-0.000819701
-0.000793186
-0.000774884
-0.000682661
-0.000725772
-0.000578951
-0.000672649
-0.00048256
-0.000615876
-0.00039395