/*--------------------------------*- C++ -*----------------------------------*\
  =========                 |
  \\      /  F ield         | OpenFOAM: The Open Source CFD Toolbox
   \\    /   O peration     | Website:  https://openfoam.org
    \\  /    A nd           | Version:  11
     \\/     M anipulation  |
\*---------------------------------------------------------------------------*/
FoamFile
{
    format      ascii;
    class       volScalarField;
    location    "3";
    object      p;
}
// * * * * * * * * * * * * * * * * * * * * * * * * * * * * * * * * * * * * * //

dimensions      [0 2 -2 0 0 0 0];

internalField   nonuniform List<scalar> 
10100
(
-2.34006e-07
8.22769e-06
-0.000288555
-0.00094334
-0.00187282
-0.00299854
-0.00425858
-0.00560047
-0.00697885
-0.00836003
-0.00971385
-0.0110103
-0.0122259
-0.0133437
-0.0143491
-0.0152319
-0.0159839
-0.0165959
-0.0170618
-0.017379
-0.0175436
-0.0175528
-0.0174061
-0.0171041
-0.0166468
-0.0160338
-0.0152655
-0.0143434
-0.0132695
-0.0120467
-0.0106788
-0.00916988
-0.00752422
-0.00574531
-0.00383793
-0.00180888
0.000334845
0.00258713
0.00494252
0.00739503
0.00993753
0.0125624
0.0152615
0.0180262
0.0208474
0.0237171
0.0266276
0.0295715
0.032541
0.0355269
0.0385194
0.0415092
0.0444878
0.0474465
0.0503761
0.0532673
0.0561116
0.0589018
0.0616308
0.0642898
0.0668687
0.0693569
0.0717457
0.0740286
0.0762004
0.0782554
0.0801864
0.0819855
0.0836459
0.0851622
0.0865303
0.0877475
0.0888113
0.0897204
0.0904736
0.0910705
0.0915106
0.0917943
0.0919235
0.0919014
0.0917324
0.0914211
0.0909722
0.0903907
0.0896824
0.0888547
0.0879176
0.0868845
0.0857725
0.0846016
0.0833936
0.0821726
0.0809668
0.0798104
0.0787447
0.077817
0.0770775
0.0765778
0.076367
0.0764235
-6.73822e-05
-0.000162741
-0.000498559
-0.00110212
-0.00191347
-0.00287778
-0.00395533
-0.00510658
-0.00629655
-0.00749474
-0.00867315
-0.0098074
-0.010875
-0.0118564
-0.012739
-0.013513
-0.0141685
-0.014698
-0.0150949
-0.0153541
-0.0154721
-0.0154461
-0.0152749
-0.0149583
-0.0144961
-0.0138885
-0.0131359
-0.0122391
-0.0111986
-0.0100158
-0.00869456
-0.00723957
-0.00565513
-0.00394459
-0.00211231
-0.000164748
0.00189183
0.00405223
0.00631083
0.00866153
0.0110982
0.013614
0.0162008
0.0188496
0.0215514
0.0242987
0.0270854
0.029905
0.0327493
0.0356089
0.0384745
0.0413374
0.0441894
0.0470224
0.0498271
0.0525947
0.0553176
0.0579896
0.0606035
0.0631506
0.0656204
0.0680032
0.0702915
0.0724798
0.0745628
0.0765347
0.0783885
0.0801171
0.0817142
0.083175
0.0844961
0.0856747
0.0867089
0.0875973
0.0883391
0.0889342
0.0893826
0.0896847
0.0898422
0.0898583
0.0897376
0.0894855
0.089107
0.0886072
0.0879914
0.0872672
0.0864449
0.0855385
0.0845646
0.0835415
0.0824891
0.081429
0.0803866
0.0793916
0.078479
0.0776873
0.0770545
0.0766176
0.0764225
0.0764796
8.88773e-05
-7.66242e-05
-0.000438621
-0.00101822
-0.00176245
-0.00262938
-0.003589
-0.00461301
-0.00567327
-0.00673966
-0.0077902
-0.00880368
-0.009758
-0.0106364
-0.0114254
-0.012114
-0.0126944
-0.0131584
-0.0134993
-0.0137123
-0.0137931
-0.0137388
-0.0135485
-0.0132207
-0.0127543
-0.0121503
-0.0114097
-0.0105322
-0.00951786
-0.00836796
-0.00708549
-0.00567467
-0.0041395
-0.00248398
-0.000712773
0.00116863
0.00315459
0.00524027
0.00742038
0.00968867
0.0120393
0.0144663
0.0169618
0.0195161
0.0221204
0.0247681
0.0274542
0.0301726
0.0329152
0.0356724
0.0384348
0.0411944
0.0439438
0.0466747
0.0493777
0.0520448
0.0546696
0.0572464
0.0597677
0.0622241
0.0646055
0.0669033
0.0691108
0.0712232
0.0732354
0.0751413
0.0769336
0.0786057
0.080152
0.0815685
0.0828518
0.0839996
0.0850096
0.0858811
0.0866136
0.0872074
0.0876623
0.0879786
0.088158
0.0882037
0.088121
0.087915
0.0875909
0.0871533
0.0866075
0.0859616
0.0852266
0.0844165
0.0835465
0.0826327
0.0816924
0.0807453
0.0798144
0.0789261
0.0781106
0.0774004
0.0768265
0.0764197
0.0762256
0.07627
0.000453509
0.000214348
-0.000182675
-0.000753153
-0.00146326
-0.00227395
-0.00315988
-0.00410042
-0.00507007
-0.00604482
-0.00700285
-0.007924
-0.00879167
-0.00959004
-0.0103059
-0.0109281
-0.0114485
-0.0118597
-0.0121552
-0.0123299
-0.0123798
-0.0123026
-0.0120966
-0.0117597
-0.011291
-0.0106905
-0.00995882
-0.00909587
-0.00810215
-0.00697931
-0.00572975
-0.00435681
-0.00286364
-0.00125405
0.000466196
0.00229155
0.00421781
0.00624052
0.00835425
0.0105531
0.0128313
0.0151829
0.0176004
0.0200741
0.0225955
0.025159
0.0277605
0.0303936
0.0330497
0.0357196
0.0383951
0.0410682
0.043731
0.0463751
0.0489923
0.0515753
0.0541182
0.0566152
0.0590586
0.0614389
0.0637465
0.0659733
0.0681138
0.0701635
0.0721174
0.0739686
0.0757101
0.0773357
0.0788405
0.0802207
0.0814731
0.082595
0.0835849
0.0844425
0.0851678
0.0857609
0.0862212
0.0865486
0.0867448
0.0868139
0.0867611
0.0865915
0.0863093
0.0859188
0.0854261
0.0848401
0.0841723
0.0834356
0.0826432
0.0818088
0.0809474
0.0800773
0.0792196
0.0783979
0.0776386
0.0769696
0.076418
0.0760109
0.075788
0.0757746
0.00101192
0.000676718
0.000228953
-0.000351374
-0.00104567
-0.00182358
-0.00266184
-0.00354129
-0.00444384
-0.00534822
-0.00623328
-0.00708155
-0.00787798
-0.00860904
-0.0092625
-0.00982845
-0.0102975
-0.0106628
-0.0109187
-0.01106
-0.0110828
-0.0109851
-0.0107643
-0.0104189
-0.00994823
-0.00935173
-0.00862875
-0.00777897
-0.00680345
-0.00570476
-0.00448499
-0.00314636
-0.00169196
-0.000125406
0.00154799
0.00332227
0.00519346
0.00715808
0.00921063
0.0113453
0.013557
0.0158397
0.0181845
0.0205828
0.0230276
0.0255142
0.028038
0.0305922
0.0331684
0.0357584
0.0383538
0.0409468
0.0435298
0.0460944
0.0486329
0.0511389
0.0536072
0.0560315
0.0584034
0.0607135
0.0629533
0.0651159
0.0671961
0.0691892
0.0710897
0.0728908
0.0745859
0.0761696
0.0776374
0.0789852
0.0802093
0.0813073
0.0822785
0.0831234
0.0838423
0.0844346
0.0848991
0.0852354
0.0854458
0.0855348
0.0855075
0.0853684
0.0851212
0.0847701
0.0843223
0.0837871
0.0831756
0.0824991
0.0817684
0.0809956
0.0801944
0.0793813
0.0785754
0.0777976
0.077071
0.0764194
0.0758663
0.0754354
0.0751544
0.0750401
0.00174481
0.00129644
0.000779317
0.000170811
-0.000527573
-0.00129341
-0.0021055
-0.0029463
-0.00380113
-0.00465272
-0.00548291
-0.00627586
-0.00701709
-0.00769416
-0.00829644
-0.00881513
-0.0092418
-0.00956861
-0.00979056
-0.00990374
-0.00990429
-0.0097889
-0.00955528
-0.00920238
-0.00872977
-0.00813622
-0.00742072
-0.00658348
-0.00562534
-0.00454822
-0.00335461
-0.00204657
-0.000627049
0.000899909
0.00252998
0.00425832
0.00608005
0.00799118
0.00998774
0.0120646
0.014216
0.0164349
0.0187133
0.021043
0.0234179
0.0258341
0.028287
0.0307696
0.0332732
0.0357899
0.0383124
0.0408327
0.0433427
0.0458346
0.0483016
0.0507384
0.0531396
0.0554979
0.0578044
0.0600504
0.0622289
0.0643339
0.0663601
0.0683022
0.0701542
0.0719099
0.0735633
0.0751098
0.0765448
0.0778637
0.0790621
0.0801383
0.0810927
0.0819264
0.0826393
0.0832298
0.0836966
0.0840398
0.0842622
0.084368
0.0843618
0.0842474
0.0840286
0.0837102
0.0832997
0.0828063
0.0822397
0.0816093
0.0809249
0.0801971
0.0794388
0.0786648
0.077892
0.0771388
0.0764249
0.0757703
0.0751952
0.0747201
0.0743577
0.0741125
0.0026175
0.00204394
0.00144457
0.000790447
6.86579e-05
-0.000702596
-0.0015072
-0.00232956
-0.0031557
-0.00397116
-0.00476177
-0.00551389
-0.00621396
-0.00684968
-0.00741226
-0.00789298
-0.00828464
-0.00858052
-0.00877501
-0.00886481
-0.00884664
-0.00871676
-0.00847313
-0.00811463
-0.00764018
-0.00704862
-0.00633912
-0.00551266
-0.00457049
-0.00351291
-0.00234191
-0.00106106
0.000326862
0.00181888
0.00341038
0.0050966
0.00687377
0.00873797
0.0106846
0.0127091
0.014806
0.0169676
0.0191858
0.0214535
0.023766
0.0261194
0.0285085
0.030926
0.033364
0.0358154
0.0382725
0.0407269
0.0431708
0.0455973
0.0480009
0.0503762
0.0527175
0.0550163
0.0572639
0.0594526
0.0615766
0.0636305
0.0656084
0.0675046
0.0693133
0.0710287
0.0726458
0.07416
0.0755662
0.076859
0.0780344
0.0790915
0.0800315
0.0808554
0.0815623
0.0821501
0.0826175
0.0829658
0.0831977
0.083317
0.0833275
0.0832326
0.0830366
0.0827446
0.0823636
0.0819019
0.081368
0.0807705
0.0801178
0.07942
0.0786887
0.0779375
0.0771811
0.0764354
0.0757167
0.0750411
0.0744263
0.07389
0.073429
0.0730341
0.00359055
0.00288664
0.00219616
0.00148193
0.000721739
-7.03651e-05
-0.000882559
-0.00170217
-0.00251565
-0.00331083
-0.00407593
-0.00479907
-0.00546901
-0.00607462
-0.0066067
-0.00705822
-0.00742226
-0.0076933
-0.00786635
-0.0079377
-0.00790393
-0.00776196
-0.00751055
-0.00714812
-0.00667213
-0.00608201
-0.00537825
-0.00456105
-0.00363168
-0.00259138
-0.00144112
-0.000183917
0.00117622
0.0026365
0.00419377
0.00584319
0.00758035
0.00940216
0.0113051
0.0132838
0.0153316
0.0174409
0.019605
0.021818
0.0240754
0.0263725
0.0287042
0.0310634
0.0334432
0.0358363
0.0382346
0.0406296
0.0430143
0.045383
0.0477306
0.0500517
0.0523393
0.0545848
0.0567797
0.0589177
0.060994
0.0630027
0.0649374
0.0667921
0.068562
0.0702425
0.0718286
0.0733147
0.0746952
0.0759649
0.0771203
0.078161
0.0790885
0.0799032
0.0806039
0.0811884
0.0816557
0.0820072
0.0822458
0.0823752
0.0823985
0.082319
0.0821408
0.0818688
0.0815093
0.0810698
0.0805578
0.0799813
0.0793482
0.0786674
0.0779497
0.0772071
0.0764528
0.0757
0.0749614
0.0742499
0.073581
0.0729703
0.0723988
0.071844
0.00463252
0.00379264
0.0030049
0.00222406
0.00141197
0.000585125
-0.000247009
-0.00107538
-0.00188924
-0.00267778
-0.00342972
-0.00413483
-0.00478413
-0.00536862
-0.00587861
-0.00630816
-0.00665148
-0.00690353
-0.00706025
-0.00711728
-0.0070714
-0.00692049
-0.00666272
-0.00629648
-0.0058196
-0.00523104
-0.0045321
-0.00372348
-0.00280502
-0.00177828
-0.000646164
0.000588785
0.00192438
0.00335776
0.00488481
0.00650102
0.0082031
0.00998847
0.0118531
0.0137909
0.0157948
0.0178579
0.0199743
0.0221393
0.0243479
0.0265952
0.028876
0.0311839
0.0335122
0.0358536
0.0381995
0.0405415
0.0428738
0.045192
0.047491
0.0497643
0.0520042
0.054202
0.0563505
0.0584445
0.060479
0.0624477
0.0643438
0.0661617
0.0678979
0.0695483
0.0711074
0.072569
0.0739271
0.0751767
0.0763149
0.0773415
0.0782578
0.0790641
0.0797587
0.0803397
0.080806
0.0811592
0.0814022
0.0815385
0.0815712
0.081503
0.0813375
0.081079
0.0807334
0.0803076
0.0798086
0.0792436
0.0786196
0.0779447
0.0772289
0.076483
0.0757183
0.0749454
0.0741743
0.0734147
0.0726805
0.0719859
0.0712967
0.0705773
0.00571638
0.0047367
0.00384927
0.00299502
0.00212295
0.00125037
0.000387094
-0.000460788
-0.00128573
-0.00207791
-0.00282705
-0.0035242
-0.00416178
-0.00473228
-0.00522798
-0.00564236
-0.00597106
-0.00620962
-0.00635432
-0.00640087
-0.00634621
-0.00618923
-0.00592717
-0.00555707
-0.00507885
-0.00449285
-0.00379845
-0.00299589
-0.00208659
-0.00107244
4.41084e-05
0.00126045
0.00257444
0.00398373
0.00548453
0.00707245
0.00874456
0.0104985
0.0123297
0.0142315
0.0161969
0.0182196
0.020295
0.0224185
0.0245845
0.0267881
0.0290244
0.0312879
0.0335716
0.0358678
0.0381674
0.0404629
0.0427499
0.0450248
0.0472818
0.0495132
0.0517109
0.0538672
0.0559758
0.0580318
0.0600299
0.0619635
0.0638257
0.065612
0.0673193
0.0689438
0.0704796
0.0719201
0.0732589
0.0744912
0.0756146
0.0766292
0.0775361
0.0783351
0.0790243
0.0796014
0.080066
0.0804196
0.0806654
0.0808062
0.0808447
0.0807832
0.0806247
0.0803735
0.0800353
0.0796165
0.0791233
0.0785617
0.077938
0.0772596
0.0765356
0.0757758
0.0749897
0.0741858
0.0733715
0.0725543
0.0717465
0.0709616
0.0701511
0.0692664
0.00682142
0.00570067
0.00470837
0.00377629
0.0028398
0.00191365
0.0010091
0.000131524
-0.000712944
-0.00151701
-0.00227206
-0.00296989
-0.0036039
-0.00416744
-0.00465498
-0.00506079
-0.00538105
-0.00561118
-0.00574726
-0.00578717
-0.0057278
-0.00556609
-0.00530029
-0.00492858
-0.00445004
-0.00386517
-0.00317419
-0.00237713
-0.00147547
-0.000471889
0.000631073
0.00183136
0.00312712
0.00451592
0.00599417
0.00755811
0.00920521
0.0109327
0.0127353
0.0146058
0.0165378
0.0185265
0.0205674
0.0226554
0.0247846
0.0269506
0.0291493
0.0313752
0.0336208
0.0358776
0.0381371
0.0403931
0.0426421
0.0448805
0.0471013
0.0492963
0.0514576
0.0535786
0.0556536
0.0576774
0.0596444
0.0615478
0.063381
0.0651404
0.0668235
0.0684264
0.0699427
0.0713653
0.0726875
0.0739051
0.075016
0.0760208
0.0769203
0.0777135
0.078398
0.0789715
0.079434
0.0797875
0.0800346
0.0801775
0.0802179
0.0801582
0.0800015
0.0797526
0.0794167
0.0789995
0.0785061
0.0779412
0.0773102
0.07662
0.0758791
0.0750962
0.0742794
0.0734353
0.0725695
0.0716876
0.0708007
0.0699216
0.0689884
0.0679403
0.007931
0.00666791
0.00556684
0.00455404
0.00354804
0.00256255
0.00160941
0.000694112
-0.000177944
-0.00100123
-0.0017693
-0.0024752
-0.00311245
-0.00367612
-0.00416164
-0.00456481
-0.00488139
-0.0051078
-0.00524022
-0.00527654
-0.00521452
-0.00505034
-0.00478195
-0.00440926
-0.00393156
-0.00334786
-0.00265861
-0.00186552
-0.000970792
2.34067e-05
0.00111509
0.00230229
0.00358291
0.00495449
0.00641406
0.00795859
0.00958548
0.011291
0.0130691
0.0149131
0.0168176
0.0187783
0.0207905
0.0228485
0.0249468
0.0270817
0.0292496
0.0314445
0.0336579
0.0358813
0.0381072
0.0403307
0.0425486
0.0447566
0.0469468
0.0491107
0.0512414
0.0533332
0.0553806
0.057378
0.0593192
0.0611972
0.0630062
0.0647436
0.0664073
0.0679928
0.0694931
0.0709003
0.0722086
0.0734141
0.0745154
0.0755128
0.0764067
0.0771956
0.0778763
0.078447
0.0789078
0.0792608
0.0795078
0.07965
0.0796886
0.0796264
0.0794676
0.0792172
0.07888
0.0784601
0.0779612
0.0773868
0.0767419
0.0760328
0.0752673
0.0744536
0.0735986
0.0727074
0.0717839
0.070832
0.0698623
0.0688869
0.0678314
0.0666233
0.00902708
0.00762313
0.00641351
0.00531509
0.00423519
0.00318593
0.00217904
0.00121988
0.00031298
-0.000536714
-0.00132403
-0.0020439
-0.00269097
-0.00326117
-0.00375067
-0.00415654
-0.00447419
-0.00470049
-0.00483359
-0.00487028
-0.00480682
-0.00464105
-0.00437233
-0.00399996
-0.00352245
-0.00293908
-0.00225125
-0.00146168
-0.000572717
0.000414013
0.00149677
0.00267333
0.00394147
0.00529929
0.00674452
0.00827418
0.0098849
0.0115722
0.0133302
0.0151529
0.0170358
0.0189741
0.0209627
0.0229961
0.0250696
0.02718
0.0293237
0.0314935
0.0336805
0.0358766
0.0380757
0.0402736
0.0424669
0.0446502
0.046815
0.0489532
0.0510591
0.0531278
0.0551536
0.05713
0.0590503
0.0609078
0.0626979
0.0644184
0.0660674
0.0676394
0.0691265
0.070521
0.071818
0.0730145
0.0741092
0.0751016
0.0759915
0.0767768
0.077455
0.078024
0.078484
0.0788363
0.0790816
0.0792205
0.0792544
0.079187
0.0790235
0.0787691
0.0784274
0.0780008
0.0774916
0.0769023
0.0762374
0.0755031
0.0747069
0.0738564
0.0729574
0.0720138
0.0710279
0.0700021
0.0689472
0.0678748
0.0666984
0.0653345
0.0100937
0.00855316
0.00723432
0.00604773
0.00489009
0.00377319
0.00270858
0.00170043
0.000753159
-0.000129044
-0.000941968
-0.00168126
-0.00234406
-0.00292681
-0.00342595
-0.00383837
-0.00416165
-0.0043928
-0.00452921
-0.00456772
-0.00450508
-0.00434
-0.00407219
-0.00370006
-0.00322198
-0.00263858
-0.00195237
-0.00116597
-0.000281231
0.0007002
0.00177613
0.00294421
0.00420273
0.00555054
0.00698561
0.00850435
0.0101025
0.0117754
0.0135179
0.0153248
0.0171914
0.0191122
0.0210822
0.0230966
0.0251516
0.0272441
0.0293697
0.0315201
0.0336863
0.0358615
0.0380408
0.0402199
0.0423947
0.0445584
0.0467029
0.0488211
0.0509085
0.0529604
0.0549701
0.0569304
0.0588347
0.060677
0.0624536
0.0641626
0.0658012
0.067363
0.0688397
0.0702245
0.0715135
0.0727042
0.0737949
0.0747843
0.0756713
0.0764545
0.0771313
0.0777
0.0781599
0.0785109
0.0787531
0.078887
0.0789148
0.078841
0.0786714
0.0784107
0.0780613
0.077624
0.0770998
0.0764906
0.0758007
0.0750363
0.0742048
0.0733129
0.0723655
0.0713651
0.0703126
0.0692101
0.0680684
0.0668991
0.0656036
0.0640888
0.0111201
0.00944415
0.00801645
0.00674058
0.00550239
0.00431424
0.00318795
0.0021268
0.00113463
0.000215191
-0.000628685
-0.00139365
-0.00207742
-0.00267721
-0.00319058
-0.00361449
-0.0039473
-0.00418653
-0.00432847
-0.00437026
-0.00431045
-0.00414809
-0.0038816
-0.00350903
-0.00303016
-0.00244706
-0.00176244
-0.000978254
-9.61392e-05
0.000881733
0.00195268
0.00311465
0.0043668
0.00570842
0.00713704
0.00864818
0.0102372
0.0119
0.013632
0.0154282
0.0172831
0.0191911
0.0211475
0.0231489
0.025192
0.0272729
0.0293858
0.031522
0.0336735
0.0358348
0.0380013
0.0401681
0.0423295
0.0444788
0.0466085
0.0487131
0.0507887
0.0528296
0.0548283
0.0567774
0.0586709
0.0605039
0.0622728
0.0639751
0.0656071
0.0671619
0.0686317
0.0700105
0.0712952
0.0724834
0.0735724
0.0745603
0.075446
0.0762283
0.0769053
0.0774747
0.0779347
0.0782842
0.0785227
0.0786511
0.0786724
0.078592
0.0784153
0.078146
0.0777852
0.0773328
0.076789
0.0761557
0.0754372
0.0746395
0.0737692
0.0728323
0.0718323
0.0707708
0.0696484
0.0684669
0.0672375
0.0659718
0.0645593
0.0628983
0.0120953
0.0102842
0.00874853
0.00738261
0.00606228
0.00479976
0.00360812
0.0024907
0.00144964
0.000488166
-0.000391119
-0.00118676
-0.00189618
-0.00251742
-0.00304856
-0.00348829
-0.00383433
-0.00408341
-0.00423247
-0.00427994
-0.00422492
-0.00406566
-0.00379995
-0.00342693
-0.00294799
-0.0023656
-0.00168182
-0.000898339
-1.73984e-05
0.000958171
0.0020259
0.0031846
0.00443399
0.00577296
0.00719819
0.00870475
0.0102884
0.0119458
0.0136723
0.0154623
0.0173098
0.0192094
0.021158
0.0231529
0.0251902
0.0272648
0.0293699
0.0314976
0.0336411
0.0357957
0.0379562
0.0401162
0.0422696
0.04441
0.0465314
0.0486292
0.050699
0.0527345
0.0547272
0.0566702
0.0585587
0.0603885
0.0621552
0.0638553
0.0654843
0.0670358
0.0685028
0.06988
0.0711645
0.0723532
0.0734426
0.0744308
0.0753169
0.0761002
0.0767787
0.0773494
0.0778098
0.0781579
0.078393
0.0785164
0.0785317
0.0784442
0.078259
0.0779783
0.0776024
0.0771307
0.0765634
0.0759028
0.0751532
0.0743199
0.0734083
0.0724228
0.0713661
0.0702397
0.0690444
0.0677823
0.0664649
0.0651031
0.0635757
0.061773
0.0130079
0.011064
0.00941986
0.00796301
0.00655937
0.00522123
0.00396138
0.00278361
0.00169019
0.000682824
-0.000236526
-0.00106667
-0.00180545
-0.002452
-0.00300513
-0.00346367
-0.00382478
-0.0040853
-0.00424373
-0.00429922
-0.00424974
-0.0040928
-0.00382755
-0.00345502
-0.00297691
-0.00239479
-0.00171038
-0.000926199
-4.54192e-05
0.000929186
0.00199609
0.00315486
0.00440491
0.00574415
0.0071687
0.00867409
0.0102569
0.0119136
0.013639
0.0154266
0.0172707
0.0191673
0.0211143
0.0231088
0.0251457
0.0272186
0.0293212
0.0314465
0.033589
0.0357436
0.0379038
0.0400623
0.0422132
0.0443512
0.0464713
0.0485686
0.0506384
0.0526734
0.0546653
0.0566082
0.0584979
0.06033
0.0620994
0.0638015
0.0654317
0.0669843
0.0684532
0.0698336
0.0711218
0.072314
0.0734063
0.0743968
0.0752853
0.0760713
0.0767524
0.077325
0.077786
0.0781332
0.0783659
0.0784853
0.078495
0.0783998
0.078204
0.077909
0.0775145
0.07702
0.0764265
0.0757366
0.0749541
0.0740831
0.0731274
0.0720896
0.0709724
0.0697779
0.0685077
0.0671641
0.0657584
0.064301
0.0626604
0.0607195
0.0138501
0.0117733
0.0100209
0.00847268
0.00698411
0.00556855
0.00423897
0.00299795
0.00184825
0.00079144
-0.000171444
-0.00103897
-0.00181093
-0.00248642
-0.00306473
-0.00354383
-0.00392126
-0.00419545
-0.00436553
-0.00442971
-0.00438507
-0.00423021
-0.00396636
-0.00359524
-0.00311756
-0.00253428
-0.00184791
-0.00106222
-0.000180527
0.000795339
0.00186465
0.00302677
0.00428015
0.00562211
0.00704919
0.00855765
0.0101441
0.0118044
0.0135321
0.0153211
0.0171667
0.0190663
0.0210177
0.0230169
0.0250576
0.0271335
0.0292392
0.0313688
0.0335169
0.0356773
0.0378424
0.0400046
0.042159
0.0443014
0.0464269
0.0485299
0.0506048
0.0526444
0.0546413
0.0565901
0.0584869
0.0603266
0.0621031
0.0638115
0.0654475
0.0670061
0.0684819
0.0698698
0.0711655
0.0723643
0.0734623
0.0744575
0.0753504
0.0761407
0.0768257
0.077401
0.0778631
0.07821
0.0784411
0.0785574
0.0785616
0.0784577
0.078249
0.077937
0.0775213
0.077002
0.0763807
0.0756599
0.0748426
0.0739312
0.0729279
0.0718345
0.0706538
0.0693892
0.0680431
0.0666172
0.0651228
0.06357
0.0618174
0.0597414
0.0146132
0.0124042
0.0105435
0.00890286
0.00732817
0.00583294
0.00443156
0.00312533
0.00191634
0.00080704
-0.000201943
-0.00111018
-0.00191851
-0.00262576
-0.00323063
-0.0037316
-0.0041276
-0.00441765
-0.00459995
-0.00467189
-0.00463164
-0.00447988
-0.00421861
-0.00384852
-0.00336959
-0.00278367
-0.00209472
-0.0013068
-0.000422201
0.000558091
0.00163305
0.00280104
0.00405999
0.00540758
0.00684112
0.00835705
0.00995118
0.0116182
0.0133517
0.0151465
0.0169994
0.0189078
0.0208685
0.0228766
0.0249253
0.0270093
0.0291242
0.0312645
0.0334237
0.0355949
0.0377698
0.0399414
0.0421058
0.0442593
0.0463963
0.0485105
0.0505958
0.0526456
0.0546535
0.0566143
0.0585237
0.0603758
0.0621639
0.0638831
0.0655298
0.0670996
0.0685871
0.0699867
0.0712934
0.0725021
0.0736085
0.0746114
0.0755112
0.0763077
0.0769977
0.0775765
0.0780404
0.0783876
0.0786177
0.0787312
0.0787297
0.078616
0.078393
0.0780621
0.0776237
0.0770786
0.0764283
0.075675
0.0748203
0.0738652
0.0728107
0.0716587
0.0704128
0.0690771
0.0676542
0.0661452
0.0645613
0.0629128
0.0610491
0.0588405
0.0152883
0.0129485
0.0109793
0.00924538
0.00758343
0.0060067
0.00453067
0.00315705
0.00188716
0.000723045
-0.000334709
-0.00128707
-0.00213367
-0.00287387
-0.00350642
-0.00403117
-0.0044478
-0.00475423
-0.00494774
-0.00502679
-0.0049918
-0.00484434
-0.00458534
-0.00421456
-0.00373288
-0.00314377
-0.00245168
-0.00165972
-0.000769257
0.000218548
0.0013016
0.00247759
0.00374474
0.00510161
0.00654583
0.00807306
0.00967796
0.0113549
0.0130983
0.0149042
0.01677
0.0186922
0.0206665
0.0226873
0.0247486
0.0268463
0.0289764
0.0311329
0.0333083
0.0354949
0.0376848
0.0398719
0.0420528
0.0442235
0.0463778
0.0485084
0.0506097
0.0526758
0.0547007
0.0566795
0.0586069
0.0604762
0.0622805
0.0640154
0.0656779
0.067264
0.0687678
0.070183
0.0715042
0.0727261
0.0738445
0.0748584
0.0757681
0.076573
0.0772696
0.077853
0.0783196
0.0786678
0.0788972
0.0790077
0.0790001
0.0788761
0.078638
0.0782876
0.077826
0.077254
0.0765733
0.0757851
0.0748899
0.0738875
0.0727789
0.0715666
0.0702545
0.0688469
0.0673462
0.0657528
0.0640783
0.0623336
0.0603595
0.0580201
0.0158688
0.0133977
0.0113195
0.00949164
0.00774085
0.00608101
0.00452836
0.0030855
0.00175314
0.000532022
-0.000577229
-0.00157517
-0.00246103
-0.00323499
-0.00389699
-0.0044473
-0.00488467
-0.00520629
-0.00541039
-0.00549745
-0.00546886
-0.0053253
-0.00506677
-0.00469382
-0.00420898
-0.00361635
-0.00291954
-0.00212067
-0.00122127
-0.000223635
0.000869389
0.0020558
0.00333471
0.00470499
0.00616361
0.00770511
0.00932362
0.0110142
0.0127725
0.0145952
0.016479
0.0184191
0.0204106
0.0224484
0.0245278
0.026645
0.0287959
0.0309735
0.0331694
0.0353762
0.0375868
0.0397956
0.0419993
0.0441931
0.0463698
0.0485224
0.0506456
0.0527343
0.0547826
0.056785
0.0587356
0.0606271
0.0624527
0.0642085
0.0658921
0.0674994
0.0690237
0.0704584
0.0717977
0.0730366
0.0741713
0.0752003
0.0761235
0.0769397
0.0776449
0.0782342
0.0787045
0.0790546
0.0792838
0.0793915
0.0793775
0.0792431
0.0789901
0.0786203
0.0781348
0.0775347
0.0768213
0.0759953
0.0750563
0.0740041
0.0728395
0.0715656
0.0701863
0.0687057
0.0671255
0.0654461
0.06368
0.0618385
0.0597545
0.0572857
0.0163473
0.0137443
0.0115558
0.00963201
0.0077912
0.00604733
0.00441718
0.00290328
0.00150612
0.000226384
-0.000935621
-0.00197926
-0.0029054
-0.00371467
-0.00440756
-0.00498343
-0.00544028
-0.00577639
-0.0059919
-0.00608814
-0.00606567
-0.00592429
-0.00566471
-0.00528927
-0.00480123
-0.00420381
-0.00349952
-0.00269069
-0.0017801
-0.000770905
0.000334368
0.00153467
0.00282946
0.00421689
0.00569278
0.00725118
0.00888678
0.0105958
0.0123746
0.0142193
0.0161253
0.0180869
0.0200997
0.0221596
0.0242627
0.0264052
0.0285819
0.0307849
0.0330059
0.0352381
0.0374752
0.0397119
0.0419441
0.0441662
0.0463707
0.0485509
0.0507023
0.05282
0.0548978
0.0569294
0.0589083
0.0608272
0.0626796
0.064462
0.066172
0.0678051
0.0693541
0.0708121
0.0721737
0.0734342
0.0745898
0.0756386
0.0765795
0.0774103
0.0781265
0.0787236
0.0791991
0.0795521
0.0797821
0.0798876
0.0798679
0.0797233
0.0794557
0.0790665
0.0785565
0.0779266
0.0771779
0.076311
0.0753258
0.074222
0.0730004
0.0716638
0.0702159
0.0686603
0.0669989
0.0652322
0.0633734
0.0614349
0.0592411
0.0566434
0.0167157
0.0139805
0.0116803
0.00965862
0.0077267
0.005898
0.00418923
0.00260258
0.00113902
-0.000200114
-0.00141479
-0.0025051
-0.0034728
-0.00431849
-0.00504211
-0.00564245
-0.00611835
-0.00646983
-0.00669787
-0.00680307
-0.00678517
-0.00664462
-0.00638389
-0.00600612
-0.00551379
-0.00490895
-0.00419426
-0.00337335
-0.00244996
-0.00142699
-0.000306008
0.000912353
0.00222682
0.00363427
0.00512996
0.00670855
0.0083659
0.0100988
0.0119033
0.0137744
0.0157062
0.0176933
0.0197321
0.0218199
0.0239525
0.0261252
0.0283321
0.0305649
0.032816
0.0350792
0.0373488
0.039619
0.0418848
0.0441402
0.0463778
0.0485916
0.0507775
0.0529305
0.0550436
0.0571098
0.0591223
0.0610742
0.0629593
0.064774
0.0665156
0.068179
0.0697568
0.0712425
0.0726309
0.073918
0.0750998
0.0761732
0.0771359
0.0779846
0.0787147
0.0793221
0.0798048
0.0801627
0.080395
0.0804997
0.0804751
0.0803212
0.0800391
0.07963
0.0790946
0.0784334
0.0776476
0.0767378
0.0757046
0.0745479
0.0732681
0.0718673
0.0703489
0.0687166
0.0669724
0.0651175
0.0631652
0.0611289
0.0588246
0.0560974
0.0169666
0.0140981
0.0116857
0.00956533
0.00754045
0.00562542
0.00383662
0.00217632
0.000646182
-0.000752814
-0.00202073
-0.0031593
-0.0041694
-0.00505135
-0.0058047
-0.00642919
-0.00692521
-0.00729329
-0.00753371
-0.00764645
-0.00763196
-0.00749233
-0.0072308
-0.00684974
-0.00635054
-0.00573545
-0.00500838
-0.00417393
-0.0032356
-0.00219536
-0.00105444
0.000185822
0.00152285
0.0029528
0.00447146
0.00607475
0.00775925
0.00952135
0.0113558
0.0132567
0.0152182
0.0172355
0.0193061
0.0214274
0.0235947
0.0258022
0.0280434
0.0303108
0.0325973
0.0348976
0.0372053
0.0395141
0.0418183
0.044112
0.0463883
0.0486418
0.0508685
0.0530626
0.0552164
0.0573224
0.0593741
0.0613651
0.0632891
0.065142
0.0669203
0.0686186
0.0702298
0.0717479
0.0731685
0.0744875
0.0757005
0.076803
0.0777914
0.0786616
0.0794088
0.0800296
0.0805226
0.0808879
0.0811245
0.0812301
0.0812019
0.0810393
0.0807429
0.0803137
0.0797522
0.0790589
0.0782351
0.0772818
0.0761996
0.0749884
0.0736485
0.0721814
0.0705906
0.0688802
0.0670525
0.0651081
0.0630611
0.0609255
0.058509
0.0556508
0.0170947
0.0140909
0.0115654
0.00934558
0.00722586
0.00522277
0.00335321
0.00161905
2.18534e-05
-0.00143782
-0.00276049
-0.00394798
-0.00500046
-0.00591814
-0.00670128
-0.00735099
-0.0078682
-0.00825279
-0.00850445
-0.00862381
-0.00861287
-0.00847457
-0.00821138
-0.00782458
-0.00731577
-0.00668851
-0.00594773
-0.00509774
-0.00414104
-0.00307926
-0.00191451
-0.000649509
0.000712436
0.00216794
0.003714
0.00534735
0.00706424
0.00885984
0.0107279
0.0126622
0.0146578
0.0167109
0.0188192
0.0209794
0.0231859
0.0254324
0.0277127
0.0300201
0.0323481
0.034691
0.0370421
0.0393942
0.0417418
0.0440793
0.0464004
0.0486998
0.050973
0.0532136
0.0554133
0.0575646
0.0596617
0.0616981
0.0636674
0.0655644
0.0673849
0.0691232
0.0707728
0.0723286
0.0737869
0.0751433
0.0763922
0.0775281
0.0785459
0.0794412
0.0802095
0.0808477
0.0813548
0.0817307
0.0819743
0.0820824
0.0820519
0.0818813
0.081571
0.0811219
0.0805344
0.0798094
0.0789478
0.0779507
0.0768184
0.0755509
0.0741484
0.0726128
0.0709483
0.0691589
0.0672465
0.0652109
0.063067
0.0608295
0.0582982
0.0553064
0.0170966
0.0139543
0.0113135
0.00899291
0.0067775
0.00468513
0.00273406
0.000925556
-0.000740062
-0.00226182
-0.00364042
-0.00487655
-0.0059712
-0.00692503
-0.00773921
-0.00841527
-0.0089536
-0.0093537
-0.00961593
-0.0097422
-0.00973522
-0.00959741
-0.00933024
-0.00893512
-0.00841495
-0.00777437
-0.00701803
-0.00614922
-0.00516999
-0.00408287
-0.00289151
-0.00159948
-0.000209642
0.00127577
0.00285455
0.00452318
0.00627682
0.00810951
0.0100147
0.0119871
0.0140224
0.0161173
0.0182687
0.0204727
0.0227229
0.0250132
0.0273381
0.0296915
0.0320669
0.0344581
0.0368576
0.0392581
0.0416545
0.0440419
0.0464142
0.0487656
0.0510908
0.0533829
0.0556337
0.0578364
0.0599852
0.0620737
0.0640946
0.0660417
0.0679101
0.069694
0.0713879
0.0729874
0.074489
0.0758878
0.0771771
0.0783501
0.0794012
0.0803259
0.0811199
0.0817802
0.0823057
0.082696
0.0829491
0.0830615
0.0830296
0.0828519
0.0825289
0.0820611
0.081449
0.080693
0.079794
0.0787524
0.0775686
0.0762426
0.0747754
0.0731699
0.0714305
0.0695609
0.0675616
0.0654322
0.0631882
0.0608458
0.0581967
0.0550679
0.0169683
0.0136841
0.0109252
0.0085023
0.0061906
0.00400814
0.00197407
8.939e-05
-0.00164597
-0.00323099
-0.00466582
-0.00595088
-0.00708822
-0.00807931
-0.00892561
-0.00962807
-0.0101868
-0.0106019
-0.0108751
-0.0110087
-0.0110049
-0.0108654
-0.0105918
-0.0101868
-0.00965432
-0.00899877
-0.00822375
-0.00733208
-0.00632671
-0.00521168
-0.00399157
-0.00266961
-0.00124754
0.000273141
0.00188994
0.00359826
0.00539226
0.00726574
0.00921279
0.0112288
0.01331
0.0154524
0.0176521
0.0199044
0.0222033
0.024543
0.0269188
0.0293244
0.0317531
0.0341979
0.0366512
0.0391059
0.0415575
0.0440014
0.0464311
0.0488402
0.0512227
0.0535715
0.0558792
0.0581394
0.0603466
0.0624937
0.0645724
0.0665755
0.0684977
0.0703336
0.0720781
0.0737273
0.0752775
0.0767234
0.0780571
0.0792712
0.0803599
0.0813187
0.0821434
0.0828308
0.0833792
0.0837872
0.0840523
0.0841707
0.084139
0.0839559
0.083622
0.0831376
0.0825026
0.0817167
0.0807799
0.0796926
0.0784554
0.0770693
0.0755364
0.0738601
0.0720444
0.0700921
0.0680026
0.0657758
0.0634284
0.0609781
0.058208
0.0549381
0.0167051
0.0132761
0.0103966
0.00786956
0.00545994
0.00318576
0.00106671
-0.000896238
-0.00270246
-0.00435132
-0.00584262
-0.00717784
-0.00835907
-0.00938825
-0.0102667
-0.010995
-0.0115738
-0.0120044
-0.0122888
-0.0124289
-0.0124263
-0.0122828
-0.0120013
-0.0115856
-0.0110394
-0.010366
-0.00956839
-0.00865034
-0.00761638
-0.00647149
-0.0052199
-0.00386375
-0.0024041
-0.000842792
0.000816524
0.00256824
0.0044063
0.00632518
0.00831974
0.0103857
0.0125186
0.0147138
0.0169667
0.0192725
0.0216257
0.0240212
0.0264543
0.0289183
0.0314059
0.0339099
0.0364229
0.0389385
0.0414522
0.0439593
0.0464526
0.048925
0.05137
0.0537811
0.0561516
0.0584758
0.0607479
0.0629597
0.0651021
0.0671673
0.0691496
0.071044
0.0728456
0.0745505
0.0761546
0.0776517
0.0790338
0.0802932
0.0814241
0.082422
0.0832826
0.0840018
0.084577
0.0850057
0.0852853
0.0854118
0.0853824
0.0851962
0.0848539
0.0843553
0.083699
0.0828835
0.0819083
0.080774
0.0794822
0.0780352
0.0764363
0.0746883
0.0727941