/*--------------------------------*- C++ -*----------------------------------*\
  =========                 |
  \\      /  F ield         | OpenFOAM: The Open Source CFD Toolbox
   \\    /   O peration     | Website:  https://openfoam.org
    \\  /    A nd           | Version:  11
     \\/     M anipulation  |
\*---------------------------------------------------------------------------*/
FoamFile
{
    format      ascii;
    class       surfaceScalarField;
    location    "3";
    object      phi;
}
// * * * * * * * * * * * * * * * * * * * * * * * * * * * * * * * * * * * * * //

dimensions      [0 3 -1 0 0 0 0];

internalField   nonuniform List<scalar> 
19980
(
6.11619e-07
-6.10927e-07
2.24474e-06
-1.6332e-06
4.20301e-06
-1.95824e-06
5.76213e-06
-1.55902e-06
6.54121e-06
-7.79157e-07
6.39199e-06
1.49269e-07
5.27359e-06
1.11847e-06
3.19618e-06
2.07734e-06
1.99541e-07
2.9967e-06
-3.67093e-06
3.87037e-06
-8.35509e-06
4.6842e-06
-1.37881e-05
5.43298e-06
-1.99039e-05
6.11585e-06
-2.66354e-05
6.73157e-06
-3.39168e-05
7.28146e-06
-4.16838e-05
7.76691e-06
-4.98729e-05
8.18922e-06
-5.84261e-05
8.55311e-06
-6.72869e-05
8.8608e-06
-7.64006e-05
9.11381e-06
-8.57159e-05
9.31521e-06
-9.51821e-05
9.46622e-06
-0.000104751
9.5688e-06
-0.000114377
9.62606e-06
-0.000124018
9.64071e-06
-0.00013363
9.61252e-06
-0.000143173
9.54292e-06
-0.000152608
9.43486e-06
-0.000161898
9.28988e-06
-0.000171008
9.10941e-06
-0.000179902
8.89415e-06
-0.000188548
8.64632e-06
-0.000196916
8.36769e-06
-0.000204974
8.05818e-06
-0.000212694
7.71975e-06
-0.000220049
7.35513e-06
-0.000227015
6.96603e-06
-0.000233569
6.55391e-06
-0.000239689
6.12027e-06
-0.000245356
5.66658e-06
-0.00025055
5.19419e-06
-0.000255255
4.70474e-06
-0.000259455
4.20018e-06
-0.000263137
3.68237e-06
-0.000266291
3.15342e-06
-0.000268906
2.61507e-06
-0.000270974
2.06796e-06
-0.000272487
1.51297e-06
-0.000273439
9.5224e-07
-0.000273827
3.88048e-07
-0.000273649
-1.77753e-07
-0.000272906
-7.43251e-07
-0.000271599
-1.30706e-06
-0.00026973
-1.86856e-06
-0.000267304
-2.42646e-06
-0.000264326
-2.97796e-06
-0.000260806
-3.5202e-06
-0.000256754
-4.05204e-06
-0.00025218
-4.57345e-06
-0.000247097
-5.08312e-06
-0.000241519
-5.57777e-06
-0.000235466
-6.0538e-06
-0.000228957
-6.50861e-06
-0.000222016
-6.94078e-06
-0.000214667
-7.34937e-06
-0.000206934
-7.73318e-06
-0.000198843
-8.09014e-06
-0.000190426
-8.41713e-06
-0.000181716
-8.71054e-06
-0.000172748
-8.96747e-06
-0.000163562
-9.18631e-06
-0.000154196
-9.36607e-06
-0.00014469
-9.50567e-06
-0.000135086
-9.60387e-06
-0.000125427
-9.65956e-06
-0.000115755
-9.67164e-06
-0.000106116
-9.63883e-06
-9.65567e-05
-9.55972e-06
-8.71235e-05
-9.43322e-06
-7.78646e-05
-9.25884e-06
-6.88284e-05
-9.03611e-06
-6.00645e-05
-8.76392e-06
-5.1624e-05
-8.44047e-06
-4.35602e-05
-8.06379e-06
-3.59281e-05
-7.63216e-06
-2.8784e-05
-7.14407e-06
-2.21856e-05
-6.59836e-06
-1.61907e-05
-5.9949e-06
-1.08555e-05
-5.33514e-06
-6.23374e-06
-4.6218e-06
-2.37525e-06
-3.85852e-06
6.75529e-07
-3.05074e-06
2.88324e-06
-2.20764e-06
4.22881e-06
-1.34558e-06
4.72114e-06
-4.92312e-07
4.41367e-06
3.07578e-07
3.43157e-06
9.82156e-07
2.01971e-06
1.4117e-06
6.32487e-07
1.38684e-06
6.32123e-07
9.98395e-07
-1.60939e-06
3.09909e-06
-3.73377e-06
5.39004e-06
-4.24939e-06
6.75877e-06
-2.92765e-06
6.4652e-06
-4.8577e-07
4.09896e-06
2.51562e-06
-5.39359e-07
5.75671e-06
-7.50746e-06
9.04539e-06
-1.6781e-05
1.22701e-05
-2.82762e-05
1.53655e-05
-4.18819e-05
1.82899e-05
-5.74648e-05
2.10158e-05
-7.48737e-05
2.35248e-05
-9.39536e-05
2.58114e-05
-0.000114543
2.78703e-05
-0.000136478
2.97022e-05
-0.000159601
3.13126e-05
-0.000183754
3.27061e-05
-0.000208782
3.3888e-05
-0.000234534
3.48665e-05
-0.000260867
3.56483e-05
-0.000287638
3.62371e-05
-0.000314711
3.66418e-05
-0.000341955
3.687e-05
-0.000369242
3.69279e-05
-0.000396451
3.68211e-05
-0.000423464
3.65564e-05
-0.00045017
3.6141e-05
-0.000476461
3.55811e-05
-0.000502235
3.48832e-05
-0.000527394
3.40532e-05
-0.000551845
3.30966e-05
-0.000575497
3.20204e-05
-0.00059827
3.08304e-05
-0.000620082
2.95319e-05
-0.000640859
2.81319e-05
-0.00066053
2.66379e-05
-0.000679033
2.50563e-05
-0.000696306
2.3393e-05
-0.000712293
2.16539e-05
-0.000726944
1.98451e-05
-0.000740212
1.79724e-05
-0.000752054
1.60427e-05
-0.000762435
1.40629e-05
-0.00077132
1.2039e-05
-0.000778682
9.97683e-06
-0.000784496
7.88223e-06
-0.000788743
5.76015e-06
-0.000791407
3.6163e-06
-0.000792478
1.45852e-06
-0.00079195
-7.05269e-07
-0.000789825
-2.86929e-06
-0.000786102
-5.0292e-06
-0.000780791
-7.17971e-06
-0.000773904
-9.31355e-06
-0.000765459
-1.14228e-05
-0.000755479
-1.35004e-05
-0.00074399
-1.55404e-05
-0.000731027
-1.75371e-05
-0.000716626
-1.94838e-05
-0.000700832
-2.13722e-05
-0.000683693
-2.31931e-05
-0.000665264
-2.49376e-05
-0.000645606
-2.65982e-05
-0.000624787
-2.81688e-05
-0.000602877
-2.96429e-05
-0.000579954
-3.10126e-05
-0.000556104
-3.22679e-05
-0.000531415
-3.33991e-05
-0.000505985
-3.43975e-05
-0.000479916
-3.52557e-05
-0.000453314
-3.59674e-05
-0.000426293
-3.65267e-05
-0.000398969
-3.6928e-05
-0.000371463
-3.7166e-05
-0.000343899
-3.72352e-05
-0.000316408
-3.71299e-05
-0.000289123
-3.68451e-05
-0.000262179
-3.63763e-05
-0.000235718
-3.57199e-05
-0.000209882
-3.48721e-05
-0.000184817
-3.3829e-05
-0.000160671
-3.25861e-05
-0.000137596
-3.11395e-05
-0.000115742
-2.94859e-05
-9.52621e-05
-2.76237e-05
-7.63071e-05
-2.55533e-05
-5.90234e-05
-2.32786e-05
-4.3551e-05
-2.08075e-05
-3.00195e-05
-1.81533e-05
-1.85427e-05
-1.53352e-05
-9.21124e-06
-1.23822e-05
-2.081e-06
-9.33787e-06
2.84201e-06
-6.26863e-06
5.62454e-06
-3.27485e-06
6.43826e-06
-5.06109e-07
5.60498e-06
1.81562e-06
3.65489e-06
3.36247e-06
1.38931e-06
3.65324e-06
2.0212e-06
6.85971e-07
-2.29533e-06
1.87656e-06
-4.92459e-06
2.68436e-06
-5.05722e-06
1.97546e-06
-2.21859e-06
-1.1036e-06
2.59329e-06
-7.09755e-06
8.50958e-06
-1.63103e-05
1.49696e-05
-2.88738e-05
2.16088e-05
-4.47991e-05
2.81954e-05
-6.4011e-05
3.45774e-05
-8.63752e-05
4.06541e-05
-0.000111717
4.63583e-05
-0.00013984
5.16471e-05
-0.000170522
5.64938e-05
-0.000203536
6.08843e-05
-0.000238646
6.48124e-05
-0.000275613
6.8279e-05
-0.000314197
7.12904e-05
-0.000354164
7.38546e-05
-0.000395278
7.59808e-05
-0.000437312
7.76818e-05
-0.000480043
7.89684e-05
-0.000523256
7.98542e-05
-0.00056674
8.03541e-05
-0.000610292
8.04805e-05
-0.000653719
8.02474e-05
-0.000696831
7.96685e-05
-0.000739449
7.87589e-05
-0.000781401
7.7533e-05
-0.000822521
7.6004e-05
-0.000862654
7.41862e-05
-0.000901652
7.20937e-05
-0.000939371
6.974e-05
-0.00097568
6.71388e-05
-0.00101045
6.43039e-05
-0.00104357
6.12494e-05
-0.00107492
5.79901e-05
-0.00110441
5.45402e-05
-0.00113193
5.09128e-05
-0.00115739
4.71212e-05
-0.00118073
4.31793e-05
-0.00120185
3.91006e-05
-0.00122071
3.4898e-05
-0.00123723
3.05849e-05
-0.00125137
2.61759e-05
-0.00126308
2.16841e-05
-0.00127232
1.7121e-05
-0.00127905
1.24988e-05
-0.00128327
7.83201e-06
-0.00128495
3.13536e-06
-0.00128407
-1.57778e-06
-0.00128065
-6.29427e-06
-0.00127468
-1.10007e-05
-0.00126617
-1.56841e-05
-0.00125516
-2.03308e-05
-0.00124165
-2.49254e-05
-0.0012257
-2.9452e-05
-0.00120735
-3.38963e-05
-0.00118664
-3.82451e-05
-0.00116364
-4.24832e-05
-0.00113842
-4.65935e-05
-0.00111105
-5.05578e-05
-0.00108163
-5.4359e-05
-0.00105025
-5.79812e-05
-0.00101701
-6.14085e-05
-0.000982027
-6.46245e-05
-0.000945427
-6.76122e-05
-0.000907342
-7.03531e-05
-0.000867913
-7.28285e-05
-0.000827289
-7.50207e-05
-0.000785632
-7.69134e-05
-0.000743108
-7.84915e-05
-0.000699894
-7.97406e-05
-0.000656175
-8.0647e-05
-0.000612144
-8.11973e-05
-0.000568
-8.13787e-05
-0.000523951
-8.11788e-05
-0.00048021
-8.05862e-05
-0.000436996
-7.95901e-05
-0.000394535
-7.81815e-05
-0.000353055
-7.63519e-05
-0.00031279
-7.40937e-05
-0.000273976
-7.14003e-05
-0.000236849
-6.82664e-05
-0.000201645
-6.46897e-05
-0.000168598
-6.06714e-05
-0.000137933
-5.6218e-05
-0.000109868
-5.1343e-05
-8.46073e-05
-4.60686e-05
-6.23324e-05
-4.04282e-05
-4.31975e-05
-3.44701e-05
-2.73157e-05
-2.82639e-05
-1.47445e-05
-2.1909e-05
-5.4661e-06
-1.55469e-05
6.38504e-07
-9.37943e-06
3.82431e-06
-3.6921e-06
4.52648e-06
1.1131e-06
3.41046e-06
4.47825e-06
1.43025e-06
5.63384e-06
3.4514e-06
2.19471e-07
-2.5147e-06
5.42718e-08
-4.75931e-06
-1.34386e-06
-3.65895e-06
-5.0179e-06
1.45532e-06
-1.18015e-05
9.37698e-06
-2.22635e-05
1.89717e-05
-3.67511e-05
2.94569e-05
-5.54353e-05
4.02932e-05
-7.83508e-05
5.11108e-05
-0.000105426
6.16521e-05
-0.000136517
7.17454e-05
-0.000171427
8.12684e-05
-0.000209918
9.01376e-05
-0.000251724
9.82999e-05
-0.000296562
0.000105723
-0.000344136
0.000112386
-0.000394143
0.000118286
-0.000446277
0.000123424
-0.000500229
0.000127807
-0.000555697
0.000131449
-0.000612379
0.000134364
-0.000669982
0.000136571
-0.000728219
0.000138091
-0.000786811
0.000138946
-0.000845486
0.000139156
-0.000903985
0.000138746
-0.000962056
0.00013774
-0.00101946
0.00013616
-0.00107596
0.000134033
-0.00113134
0.000131381
-0.00118538
0.00012823
-0.00123789
0.000124604
-0.00128868
0.000120527
-0.00133756
0.000116023
-0.00138437
0.000111117
-0.00142896
0.000105833
-0.00147116
0.000100194
-0.00151085
9.42262e-05
-0.00154789
8.79521e-05
-0.00158216
8.13962e-05
-0.00161356
7.45807e-05
-0.00164199
6.75281e-05
-0.00166736
6.02628e-05
-0.00168958
5.28082e-05
-0.00170859
4.51861e-05
-0.00172432
3.74192e-05
-0.00173673
2.95309e-05
-0.00174578
2.1543e-05
-0.00175142
1.34778e-05
-0.00175365
5.35937e-06
-0.00175244
-2.78745e-06
-0.00174779
-1.09398e-05
-0.00173972
-1.90756e-05
-0.00172823
-2.71713e-05
-0.00171336
-3.52017e-05
-0.00169514
-4.31409e-05
-0.00167363
-5.09635e-05
-0.00164888
-5.86449e-05
-0.00162097
-6.61595e-05
-0.00158997
-7.34802e-05
-0.00155599
-8.0579e-05
-0.00151912
-8.74272e-05
-0.00147948
-9.39961e-05
-0.0014372
-0.000100257
-0.00139243
-0.000106182
-0.00134531
-0.000111743
-0.00129602
-0.000116909
-0.00124472
-0.000121651
-0.00119161
-0.000125939
-0.00113689
-0.000129743
-0.00108076
-0.000133035
-0.00102347
-0.000135789
-0.00096523
-0.000137977
-0.000906302
-0.000139576
-0.000846938
-0.000140561
-0.000787407
-0.00014091
-0.000727985
-0.000140601
-0.000668957
-0.000139614
-0.000610615
-0.000137931
-0.000553261
-0.000135536
-0.000497198
-0.000132414
-0.000442737
-0.000128556
-0.000390186
-0.000123951
-0.000339857
-0.000118596
-0.000292055
-0.000112491
-0.000247082
-0.000105645
-0.000205227
-9.80732e-05
-0.000166764
-8.98059e-05
-0.000131946
-8.08867e-05
-0.000100995
-7.13791e-05
-7.4093e-05
-6.13718e-05
-5.13688e-05
-5.09882e-05
-3.28801e-05
-4.03977e-05
-1.85941e-05
-2.98327e-05
-8.36148e-06
-1.96118e-05
-1.88476e-06
-1.01686e-05
1.31904e-06
-2.09066e-06
1.96047e-06
3.83645e-06
1.03697e-06
6.5575e-06
4.48837e-06
-3.39267e-07
-2.17553e-06
-2.14476e-06
-2.95403e-06
-6.18404e-06
3.8031e-07
-1.33642e-05
8.6356e-06
-2.44364e-05
2.04491e-05
-3.99344e-05
3.44696e-05
-6.01951e-05
4.97177e-05
-8.53931e-05
6.54911e-05
-0.000115562
8.12798e-05
-0.000150633
9.67231e-05
-0.00019045
0.000111562
-0.000234792
0.00012561
-0.000283393
0.000138739
-0.00033595
0.000150857
-0.000392133
0.000161906
-0.000451599
0.000171852
-0.000513988
0.000180675
-0.000578937
0.000188373
-0.000646079
0.000194949
-0.000715048
0.000200418
-0.000785483
0.000204799
-0.000857027
0.000208115
-0.00092933
0.000210394
-0.00100205
0.000211667
-0.00107486
0.000211965
-0.00114744
0.000211322
-0.00121947
0.000209774
-0.00129067
0.000207357
-0.00136074
0.000204105
-0.00142941
0.000200056
-0.00149643
0.000195248
-0.00156154
0.000189717
-0.00162452
0.0001835
-0.00168513
0.000176635
-0.00174317
0.000169158
-0.00179844
0.000161106
-0.00185076
0.000152516
-0.00189996
0.000143425
-0.00194588
0.000133868
-0.00198836
0.000123881
-0.00202728
0.0001135
-0.00206252
0.00010276
-0.00209395
9.16953e-05
-0.00212148
8.03407e-05
-0.00214503
6.87328e-05
-0.00216451
5.69059e-05
-0.00217988
4.48928e-05
-0.00219106
3.27277e-05
-0.00219803
2.04468e-05
-0.00220076
8.08648e-06
-0.00219923
-4.31863e-06
-0.00219343
-1.67335e-05
-0.00218339
-2.91219e-05
-0.00216911
-4.14469e-05
-0.00215064
-5.36713e-05
-0.00212802
-6.57572e-05
-0.00210132
-7.76657e-05
-0.00207061
-8.93578e-05
-0.00203597
-0.000100794
-0.00199752
-0.000111935
-0.00195536
-0.000122737
-0.00190963
-0.000133157
-0.00186047
-0.000143153
-0.00180805
-0.000152683
-0.00175253
-0.000161702
-0.00169411
-0.000170167
-0.00163298
-0.000178033
-0.00156938
-0.000185256
-0.00150352
-0.000191792
-0.00143567
-0.000197596
-0.00136608
-0.000202628
-0.00129502
-0.000206844
-0.00122279
-0.000210205
-0.0011497
-0.000212674
-0.00107604
-0.000214212
-0.00100217
-0.000214787
-0.000928403
-0.000214365
-0.000855102
-0.000212915
-0.000782621
-0.000210412
-0.000711326
-0.000206831
-0.000641587
-0.000202153
-0.000573779
-0.000196364
-0.000508277
-0.000189453
-0.000445453
-0.00018142
-0.000385674
-0.00017227
-0.000329297
-0.000162022
-0.000276664
-0.000150706
-0.000228095
-0.000138374
-0.000183884
-0.000125098
-0.000144286
-0.000110978
-0.000109505
-9.61526e-05
-7.96855e-05
-8.08078e-05
-5.48907e-05
-6.51924e-05
-3.50859e-05
-4.96377e-05
-2.01144e-05
-3.45834e-05
-9.67138e-06
-2.06114e-05
-3.27443e-06
-8.48746e-06
-2.30767e-07
7.92624e-07
4.12077e-07
5.9147e-06
4.90044e-06
-9.89122e-07
-1.18636e-06
-4.64149e-06
6.98446e-07
-1.16115e-05
7.35028e-06
-2.26565e-05
1.96808e-05
-3.84083e-05
3.62008e-05
-5.93284e-05
5.53898e-05
-8.57117e-05
7.61011e-05
-0.000117704
9.74834e-05
-0.000155329
0.000118904
-0.000198498
0.000139892
-0.000247037
0.000160101
-0.000300706
0.00017928
-0.00035921
0.000197243
-0.000422214
0.000213861
-0.000489351
0.000229043
-0.000560232
0.000242733
-0.000634454
0.000254897
-0.000711602
0.000265521
-0.00079126
0.000274607
-0.000873007
0.000282165
-0.000956427
0.000288219
-0.00104111
0.000292797
-0.00112665
0.000295935
-0.00121265
0.000297669
-0.00129873
0.000298045
-0.00138451
0.000297106
-0.00146964
0.000294901
-0.00155376
0.000291478
-0.00163655
0.000286888
-0.00171767
0.00028118
-0.00179683
0.000274407
-0.00187373
0.000266622
-0.00194811
0.000257874
-0.00201969
0.000248215
-0.00208823
0.000237699
-0.0021535
0.000226377
-0.00221528
0.000214298
-0.00227337
0.000201515
-0.00232758
0.000188079
-0.00237774
0.00017404
-0.00242369
0.000159447
-0.00246528
0.000144348
-0.00250238
0.000128794
-0.00253487
0.000112835
-0.00256266
9.65184e-05
-0.00258564
7.98926e-05
-0.00260376
6.30068e-05
-0.00261694
4.59096e-05
-0.00262514
2.86501e-05
-0.00262833
1.12778e-05
-0.00262649
-6.15694e-06
-0.00261962
-2.36041e-05
-0.00260773
-4.1013e-05
-0.00259085
-5.83322e-05
-0.00256901
-7.55089e-05
-0.00254228
-9.24894e-05
-0.00251072
-0.00010922
-0.00247444
-0.000125646
-0.00243352
-0.000141711
-0.00238809
-0.000157359
-0.0023383
-0.00017253
-0.00228429
-0.000187166
-0.00222624
-0.000201206
-0.00216433
-0.000214592
-0.00209877
-0.000227262
-0.00202978
-0.000239154
-0.00195761
-0.000250208
-0.0018825
-0.000260362
-0.00180474
-0.000269555
-0.00172461
-0.000277726
-0.00164242
-0.000284816
-0.0015585
-0.000290768
-0.00147318
-0.000295526
-0.00138681
-0.000299036
-0.00129978
-0.000301247
-0.00121246
-0.000302111
-0.00112524
-0.000301584
-0.00103853
-0.000299623
-0.000952747
-0.000296193
-0.000868316
-0.000291263
-0.000785663
-0.000284806
-0.000705218
-0.000276808
-0.000627414
-0.000267258
-0.000552676
-0.000256158
-0.000481424
-0.000243523
-0.000414062
-0.000229384
-0.000350977
-0.000213791
-0.00029253
-0.000196821
-0.000239048
-0.00017858
-0.000190814
-0.000159211
-0.000148059
-0.000138908
-0.000110943
-0.000117924
-7.95432e-05
-9.65919e-05
-5.38373e-05
-7.53437e-05
-3.36822e-05
-5.47385e-05
-1.87947e-05
-3.54988e-05
-8.72947e-06
-1.85526e-05
-2.85779e-06
-5.07904e-06
-3.34289e-07
3.39116e-06
4.56617e-06
-1.69772e-06
5.11411e-07
-7.32511e-06
6.32575e-06
-1.74098e-05
1.7435e-05
-3.25463e-05
3.48171e-05
-5.323e-05
5.68845e-05
-7.98265e-05
8.19864e-05
-0.000112566
0.000108841
-0.00015155
0.000136467
-0.000196764
0.000164119
-0.000248096
0.000191224
-0.00030535
0.000217355
-0.000368257
0.000242187
-0.000436496
0.000265482
-0.000509698
0.000287063
-0.000587464
0.000306809
-0.000669367
0.000324636
-0.000754963
0.000340493
-0.000843795
0.000354353
-0.000935399
0.000366211
-0.00102931
0.000376076
-0.00112506
0.000383973
-0.0012222
0.000389933
-0.00132027
0.000394
-0.00141882
0.00039622
-0.00151742
0.000396648
-0.00161565
0.000395341
-0.00171311
0.000392359
-0.0018094
0.000387766
-0.00190414
0.000381626
-0.00199697
0.000374008
-0.00208754
0.000364977
-0.00217552
0.000354601
-0.00226059
0.00034295
-0.00234247
0.000330092
-0.00242087
0.000316094
-0.00249551
0.000301025
-0.00256617
0.000284953
-0.0026326
0.000267946
-0.00269459
0.000250071
-0.00275194
0.000231392
-0.00280448
0.000211979
-0.00285202
0.000191895
-0.00289443
0.000171206
-0.00293158
0.000149977
-0.00296333
0.000128273
-0.0029896
0.00010616
-0.00301029
8.37008e-05
-0.00302534
6.0961e-05
-0.0030347
3.80063e-05
-0.00303832
1.49032e-05
-0.0030362
-8.28254e-06
-0.00302832
-3.14846e-05
-0.0030147
-5.46347e-05
-0.00299537
-7.76635e-05
-0.00297037
-0.000100501
-0.00293978
-0.000123078
-0.00290368
-0.000145321
-0.00286217
-0.000167158
-0.00281537
-0.000188514
-0.00276342
-0.000209313
-0.00270647
-0.000229479
-0.0026447
-0.000248933
-0.00257831
-0.000267597
-0.00250751
-0.000285391
-0.00243254
-0.000302235
-0.00235364
-0.000318048
-0.0022711
-0.000332749
-0.00218521
-0.000346258
-0.00209627
-0.000358494
-0.00200461
-0.000369379
-0.0019106
-0.000378834
-0.00181458
-0.000386784
-0.00171695
-0.000393155
-0.00161811
-0.000397877
-0.00151847
-0.000400883
-0.00141847
-0.000402111
-0.00131856
-0.000401501
-0.00121918
-0.000399001
-0.00112081
-0.000394565
-0.00102392
-0.000388154
-0.000928984
-0.000379738
-0.000836493
-0.000369299
-0.000746923
-0.000356828
-0.000660748
-0.000342333
-0.000578432
-0.000325839
-0.000500422
-0.000307393
-0.000427145
-0.000287068
-0.000358998
-0.000264969
-0.000296339
-0.000241239
-0.000239481
-0.000216069
-0.000188678
-0.00018971
-0.000144116
-0.000162486
-0.000105894
-0.000134813
-7.4016e-05
-0.000107222
-4.83699e-05
-8.03845e-05
-2.87178e-05
-5.51511e-05
-1.46786e-05
-3.25917e-05
-5.71958e-06
-1.40381e-05
-1.13863e-06
-1.18982e-06
3.42757e-06
-2.42987e-06
2.94119e-06
-1.01041e-05
1.39999e-05
-2.34059e-05
3.07367e-05
-4.27606e-05
5.4172e-05
-6.85227e-05
8.26466e-05
-0.000100951
0.000114415
-0.000140192
0.000148081
-0.000186286
0.000182561
-0.000239174
0.000217007
-0.000298706
0.000250756
-0.000364653
0.000283301
-0.000436717
0.000314251
-0.000514545
0.00034331
-0.000597741
0.000370258
-0.000685868
0.000394937
-0.000778468
0.000417236
-0.000875057
0.000437082
-0.000975141
0.000454437
-0.00107822
0.000469285
-0.00118377
0.000481634
-0.00129131
0.000491508
-0.00140032
0.000498941
-0.0015103
0.000503983
-0.00162077
0.000506692
-0.00173126
0.000507132
-0.00184129
0.000505372
-0.00195042
0.000501488
-0.00205821
0.000495559
-0.00216425
0.000487664
-0.00226813
0.000477887
-0.00236946
0.000466313
-0.00246789
0.000453029
-0.00256306
0.00043812
-0.00265464
0.000421671
-0.00274231
0.000403771
-0.0028258
0.000384507
-0.00290481
0.000363964
-0.00297909
0.000342227
-0.0030484
0.000319382
-0.00311252
0.000295515
-0.00317125
0.000270709
-0.0032244
0.000245046
-0.00327181
0.000218612
-0.00331332
0.000191491
-0.00334881
0.000163763
-0.00337817
0.000135512
-0.00340129
0.00010682
-0.0034181
7.77716e-05
-0.00342854
4.84499e-05
-0.00343258
1.89389e-05
-0.00343018
-1.06771e-05
-0.00342135
-4.03123e-05
-0.00340611
-6.98795e-05
-0.00338448
-9.92906e-05
-0.00335653
-0.000128457
-0.00332232
-0.000157288
-0.00328194
-0.000185693
-0.00323552
-0.000213577
-0.00318319
-0.000240847
-0.0031251
-0.000267405
-0.00306142
-0.000293154
-0.00299236
-0.000317995
-0.00291813
-0.000341828
-0.00283897
-0.000364552
-0.00275514
-0.000386066
-0.00266692
-0.000406266
-0.00257462
-0.00042505
-0.00247856
-0.000442318
-0.00237909
-0.000457968
-0.00227656
-0.000471899
-0.00217138
-0.000484015
-0.00206395
-0.000494218
-0.00195469
-0.000502417
-0.00184404
-0.000508523
-0.00173247
-0.000512452
-0.00162046
-0.000514127
-0.00150848
-0.000513473
-0.00139706
-0.000510427
-0.00128669
-0.000504931
-0.00117791
-0.00049694
-0.00107123
-0.000486419
-0.000967177
-0.000473348
-0.000866282
-0.000457722
-0.000769059
-0.000439556
-0.000676012
-0.000418886
-0.000587627
-0.000395778
-0.000504366
-0.000370329
-0.000426662
-0.000342674
-0.000354903
-0.000312997
-0.000289434
-0.000281538
-0.000230538
-0.000248606
-0.000178429
-0.000214596
-0.000133239
-0.000180003
-9.50095e-05
-0.000145452
-6.3676e-05
-0.000111718
-3.90626e-05
-7.97647e-05
-2.08721e-05
-5.07822e-05
-8.68673e-06
-2.62235e-05
-1.96396e-06
-7.91254e-06
1.46358e-06
-3.16825e-06
6.10948e-06
-1.29097e-05
2.37413e-05
-2.94669e-05
4.72939e-05
-5.30951e-05
7.78002e-05
-8.40089e-05
0.00011356
-0.000122344
0.00015275
-0.000168162
0.000193898
-0.000221429
0.000235829
-0.000282031
0.000277608
-0.000349769
0.000318495
-0.000424376
0.000357908
-0.00050552
0.000395394
-0.000592813
0.000430604
-0.000685828
0.000463272
-0.000784094
0.000493204
-0.00088712
0.000520261
-0.000994386
0.000544348
-0.00110536
0.000565414
-0.00121951
0.000583432
-0.00133628
0.000598405
-0.00145513
0.000610357
-0.00157552
0.000619327
-0.0016969
0.000625369
-0.00181876
0.000628551
-0.00194057
0.000628947
-0.00206184
0.000626641
-0.00218208
0.000621723
-0.0023008
0.000614285
-0.00241757
0.000604428
-0.00253193
0.000592252
-0.00264348
0.000577859
-0.0027518
0.000561354
-0.00285653
0.000542844
-0.00295729
0.000522435
-0.00305375
0.000500233
-0.00314559
0.000476342
-0.0032325
0.000450872
-0.0033142
0.000423928
-0.00339043
0.000395613
-0.00346095
0.000366033
-0.00352553
0.000335292
-0.00358398
0.000303492
-0.0036361
0.000270739
-0.00368175
0.000237134
-0.00372076
0.000202779
-0.00375303
0.000167778
-0.00377844
0.000132233
-0.00379692
9.62471e-05
-0.00380839
5.99235e-05
-0.00381282
2.33664e-05
-0.00381018
-1.33191e-05
-0.00380046
-5.0027e-05
-0.00378369
-8.66495e-05
-0.00375991
-0.000123078
-0.00372916
-0.000159201
-0.00369154
-0.000194909
-0.00364715
-0.000230088
-0.0035961
-0.000264622
-0.00353855
-0.000298394
-0.00347467
-0.000331285
-0.00340465
-0.000363174
-0.00332871
-0.000393941
-0.00324707
-0.000423461
-0.00316002
-0.000451611
-0.00306782
-0.000478265
-0.00297078
-0.000503298
-0.00286925
-0.000526584
-0.00276357
-0.000547998
-0.00265412
-0.000567417
-0.0025413
-0.000584718
-0.00242554
-0.000599781
-0.00230726
-0.00061249
-0.00218695
-0.00062273
-0.00206508
-0.000630396
-0.00194214
-0.000635385
-0.00181867
-0.000637601
-0.00169518
-0.000636958
-0.00157223
-0.000633377
-0.00145037
-0.000626792
-0.00133016
-0.00061715
-0.00121217
-0.000604412
-0.00109696
-0.000588556
-0.000985104
-0.000569582
-0.000877149
-0.000547511
-0.000773639
-0.000522396
-0.000675099
-0.000494319
-0.000582025
-0.000463403
-0.000494881
-0.000429818
-0.000414092
-0.000393786
-0.000340033
-0.000355597
-0.000273021
-0.000315618
-0.000213306
-0.000274311
-0.000161061
-0.000232247
-0.000116376
-0.000190137
-7.92455e-05
-0.000148848
-4.95678e-05
-0.000109442
-2.71428e-05
-7.32072e-05
-1.16764e-05
-4.169e-05
-2.78835e-06
-1.68005e-05
-1.32482e-06
-3.89421e-06
1.00036e-05
-1.56962e-05
3.55432e-05
-3.55027e-05
6.71002e-05
-6.34094e-05
0.000105707
-9.94846e-05
0.000149636
-0.000143749
0.000197015
-0.000196165
0.000246314
-0.000256622
0.000296286
-0.00032494
0.000345926
-0.000400868
0.000394423
-0.000484093
0.000441132
-0.00057424
0.000485542
-0.00067089
0.000527253
-0.000773574
0.000565957
-0.000881794
0.000601423
-0.00099502
0.000633486
-0.0011127
0.000662031
-0.00123428
0.000686986
-0.00135916
0.00070832
-0.00148679
0.000726028
-0.00161656
0.000740133
-0.00174791
0.000750677
-0.00188026
0.000757722
-0.00201306
0.000761343
-0.00214574
0.000761627
-0.00227776
0.000758669
-0.00240862
0.000752576
-0.00253779
0.000743458
-0.00266479
0.000731431
-0.00278916
0.000716613
-0.00291043
0.00069913
-0.00302818
0.000679104
-0.00314199
0.000656662
-0.00325149
0.000631932
-0.0033563
0.00060504
-0.00345607
0.000576115
-0.00355048
0.000545283
-0.00363923
0.000512673
-0.00372202
0.00047841
-0.00379861
0.00044262
-0.00386875
0.000405429
-0.00393222
0.000366962
-0.00398882
0.000327342
-0.00403838
0.000286696
-0.00408075
0.000245144
-0.00411578
0.000202813
-0.00414337
0.000159826
-0.00416343
0.000116307
-0.00417589
7.23809e-05
-0.0041807
2.81743e-05
-0.00417783
-1.61864e-05
-0.00416729
-6.05726e-05
-0.00414908
-0.000104854
-0.00412326
-0.0001489
-0.00408988
-0.000192577
-0.00404904
-0.000235751
-0.00400084
-0.000278285
-0.00394543
-0.00032004
-0.00388295
-0.000360873
-0.00381359
-0.000400642
-0.00373756
-0.000439203
-0.00365509
-0.000476409
-0.00356644
-0.000512111
-0.00347189
-0.000546161
-0.00337175
-0.000578407
-0.00326635
-0.0006087
-0.00315604
-0.000636889
-0.00304122
-0.000662825
-0.00292228
-0.000686359
-0.00279965
-0.000707345
-0.00267379
-0.000725639
-0.00254518
-0.000741103
-0.00241431
-0.000753602
-0.00228169
-0.000763009
-0.00214788
-0.000769201
-0.00201341
-0.000772066
-0.00187887
-0.000771502
-0.00174483
-0.000767418
-0.00161188
-0.000759736
-0.00148064
-0.000748397
-0.00135169
-0.000733357
-0.00122565
-0.000714595
-0.00110312
-0.000692113
-0.000984689
-0.000665943
-0.000870935
-0.00063615
-0.000762416
-0.000602837
-0.000659666
-0.000566154
-0.000563182
-0.000526301
-0.000473424
-0.000483544
-0.000390803
-0.000438218
-0.000315674
-0.000390747
-0.00024833
-0.000341655
-0.000188992
-0.000291585
-0.000137805
-0.000241324
-9.48328e-05
-0.000191821
-6.0057e-05
-0.000144218
-3.33805e-05
-9.98838e-05
-1.46353e-05
-6.04352e-05
-3.59784e-06
-2.78379e-05
-4.92265e-06
-4.60689e-06
1.46105e-05
-1.84361e-05
4.93724e-05
-4.14549e-05
9.0119e-05
-7.36041e-05
0.000137856
-0.000114813
0.000190844
-0.000164986
0.000247188
-0.000223983
0.000305311
-0.000291612
0.000363915
-0.000367622
0.000421936
-0.000451705
0.000478506
-0.000543494
0.000532922
-0.000642573
0.000584621
-0.000748479
0.000633158
-0.000860707
0.000678186
-0.000978725
0.000719441
-0.00110197
0.000756727
-0.00122985
0.000789913
-0.00136177
0.00081891
-0.00149713
0.000843677
-0.0016353
0.000864203
-0.00177568
0.000880511
-0.00191766
0.000892649
-0.00206061
0.00090068
-0.00220396
0.000904689
-0.00234711
0.000904777
-0.0024895
0.000901055
-0.00263056
0.000893639
-0.00276976
0.000882661
-0.00290658
0.000868254
-0.00304053
0.000850557
-0.00317111
0.000829714
-0.00329788
0.00080587
-0.00342039
0.000779174
-0.00353823
0.000749774
-0.00365101
0.00071782
-0.00375836
0.000683463
-0.00385993
0.000646852
-0.00395539
0.000608138
-0.00404445
0.000567469
-0.00412683
0.000524994
-0.00420226
0.000480862
-0.00427052
0.00043522
-0.00433139
0.000388215
-0.00438469
0.000339994
-0.00443025
0.000290703
-0.00446792
0.00024049
-0.0044976
0.000189501
-0.00451918
0.000137884
-0.00453258
8.57854e-05
-0.00453776
3.33555e-05
-0.00453469
-1.92555e-05
-0.00452337
-7.18953e-05
-0.00450381
-0.00012441
-0.00447607
-0.000176645
-0.0044402
-0.000228443
-0.00439631
-0.000279645
-0.00434451
-0.000330087
-0.00428494
-0.000379606
-0.00421778
-0.000428035
-0.00414322
-0.000475204
-0.00406148
-0.000520944
-0.0039728
-0.000565081
-0.00387747
-0.00060744
-0.00377579
-0.000647845
-0.00366808
-0.00068612
-0.00355469
-0.000722087
-0.00343601
-0.000755569
-0.00331244
-0.000786392
-0.00318442
-0.00081438
-0.00305241
-0.000839361
-0.00291688
-0.000861169
-0.00277834
-0.000879639
-0.00263733
-0.000894616
-0.00249439
-0.000905949
-0.00235009
-0.000913498
-0.00220502
-0.000917131
-0.0020598
-0.00091673
-0.00191502
-0.000912191
-0.00177133
-0.000903427
-0.00162936
-0.000890367
-0.00148975
-0.000872967
-0.00135314
-0.000851204
-0.00122017
-0.000825084
-0.00109147
-0.000794649
-0.000967641
-0.000759977
-0.000849286
-0.000721192
-0.000736971
-0.000678469
-0.00063123
-0.000632042
-0.00053256
-0.000582214
-0.000441411
-0.000529367
-0.000358182
-0.000473976
-0.000283212
-0.000416624
-0.000216777
-0.00035802
-0.000159085
-0.000299016
-0.000110274
-0.000240632
-7.04148e-05
-0.000184078
-3.95145e-05
-0.000130784
-1.75295e-05
-8.24201e-05
-4.38302e-06
-4.09844e-05
-9.30563e-06
-5.30109e-06
1.99116e-05
-2.11134e-05
6.51846e-05
-4.72892e-05
0.000116295
-8.36211e-05
0.000174188
-0.000129909
0.000237132
-0.000185938
0.000303218
-0.000251472
0.000370845
-0.00032623
0.000438674
-0.00040989
0.000505596
-0.000502079
0.000570695
-0.000602375
0.000633218
-0.000710314
0.00069256
-0.000825387
0.000748232
-0.000947053
0.000799852
-0.00107474
0.000847125
-0.00120784
0.000889833
-0.00134575
0.000927819
-0.00148782
0.000960986
-0.00163343
0.00098928
-0.00178191
0.00101269
-0.00193263
0.00103123
-0.00208494
0.00104496
-0.0022382
0.00105394
-0.00239179
0.00105828
-0.00254509
0.00105808
-0.0026975
0.00105346
-0.00284842
0.00104457
-0.00299731
0.00103155
-0.0031436
0.00101455
-0.00328677
0.00099373
-0.00342632
0.000969261
-0.00356176
0.000941307
-0.00369262
0.000910039
-0.00381848
0.00087563
-0.00393891
0.000838251
-0.00405353
0.000798078
-0.00416196
0.000755285
-0.00426387
0.000710044
-0.00435893
0.000662529
-0.00444684
0.000612913
-0.00452735
0.000561368
-0.0046002
0.000508066
-0.00466516
0.000453178
-0.00472204
0.000396875
-0.00477066
0.000339326
-0.00481088
0.000280705
-0.00484256
0.00022118
-0.0048656
0.000160924
-0.00487992
0.000100109
-0.00488548
3.89088e-05
-0.00488223
-2.25012e-05
-0.00487018
-8.3944e-05
-0.00484935
-0.000145241
-0.00481978
-0.000206211
-0.00478156
-0.000266672
-0.00473476
-0.000326438
-0.00467953
-0.000385319
-0.00461601
-0.000443124
-0.00454439
-0.00049966
-0.00446486
-0.000554731
-0.00437767
-0.000608138
-0.00428307
-0.00065968
-0.00418135
-0.000709155
-0.00407284
-0.000756358
-0.00395788
-0.000801083
-0.00383684
-0.000843127
-0.00371012
-0.000882285
-0.00357816
-0.000918353
-0.00344141
-0.000951128
-0.00330036
-0.000980414
-0.00315551
-0.00100602
-0.0030074
-0.00102775
-0.00285659
-0.00104543
-0.00270366
-0.00105888
-0.00254921
-0.00106795
-0.00239387
-0.00107248
-0.00223826
-0.00107234
-0.00208304
-0.00106741
-0.00192888
-0.00105759
-0.00177643
-0.00104281
-0.00162639
-0.00102301
-0.00147942
-0.000998175
-0.00133619
-0.000968311
-0.00119737
-0.000933469
-0.00106361
-0.000893741
-0.000935527
-0.000849272
-0.000813736
-0.00080026
-0.000698807
-0.000746971
-0.000591276
-0.000689745
-0.000491637
-0.000629005