/*--------------------------------*- C++ -*----------------------------------*\
  =========                 |
  \\      /  F ield         | OpenFOAM: The Open Source CFD Toolbox
   \\    /   O peration     | Website:  https://openfoam.org
    \\  /    A nd           | Version:  11
     \\/     M anipulation  |
\*---------------------------------------------------------------------------*/
FoamFile
{
    format      ascii;
    class       volVectorField;
    location    "3";
    object      U;
}
// * * * * * * * * * * * * * * * * * * * * * * * * * * * * * * * * * * * * * //

dimensions      [0 1 -1 0 0 0 0];

internalField   nonuniform List<vector> 
10100
(
(2.09558e-06 -3.44795e-06 0)
(1.325e-05 -9.37254e-06 0)
(3.21975e-05 -1.14063e-05 0)
(5.10475e-05 -9.79777e-06 0)
(6.34084e-05 -6.68307e-06 0)
(6.67966e-05 -3.01763e-06 0)
(6.05193e-05 6.05356e-07 0)
(4.44995e-05 4.04335e-06 0)
(1.9087e-05 7.29236e-06 0)
(-1.53975e-05 1.02874e-05 0)
(-5.83208e-05 1.30331e-05 0)
(-0.000109016 1.5511e-05 0)
(-0.000166914 1.76897e-05 0)
(-0.000231312 1.96558e-05 0)
(-0.000301501 2.14058e-05 0)
(-0.000376919 2.28933e-05 0)
(-0.00045685 2.41699e-05 0)
(-0.000540669 2.52548e-05 0)
(-0.000627882 2.61532e-05 0)
(-0.000717893 2.68962e-05 0)
(-0.000810149 2.74895e-05 0)
(-0.000904172 2.7931e-05 0)
(-0.000999466 2.82277e-05 0)
(-0.00109555 2.84016e-05 0)
(-0.00119199 2.84524e-05 0)
(-0.00128836 2.8362e-05 0)
(-0.00138423 2.81413e-05 0)
(-0.00147921 2.78006e-05 0)
(-0.00157292 2.73671e-05 0)
(-0.00166501 2.68574e-05 0)
(-0.00175511 2.62546e-05 0)
(-0.00184289 2.55541e-05 0)
(-0.00192804 2.47497e-05 0)
(-0.00201023 2.38433e-05 0)
(-0.00208918 2.28509e-05 0)
(-0.00216462 2.17784e-05 0)
(-0.00223629 2.06362e-05 0)
(-0.00230395 1.94267e-05 0)
(-0.00236737 1.81459e-05 0)
(-0.00242634 1.68053e-05 0)
(-0.00248069 1.54107e-05 0)
(-0.00253022 1.39606e-05 0)
(-0.00257478 1.24659e-05 0)
(-0.00261423 1.09335e-05 0)
(-0.00264843 9.35963e-06 0)
(-0.0026773 7.75143e-06 0)
(-0.00270074 6.12341e-06 0)
(-0.00271866 4.47917e-06 0)
(-0.00273099 2.81617e-06 0)
(-0.0027377 1.13875e-06 0)
(-0.00273875 -5.42249e-07 0)
(-0.00273415 -2.21786e-06 0)
(-0.00272389 -3.88572e-06 0)
(-0.002708 -5.54636e-06 0)
(-0.00268651 -7.19673e-06 0)
(-0.00265948 -8.82784e-06 0)
(-0.00262697 -1.04285e-05 0)
(-0.00258908 -1.19929e-05 0)
(-0.00254591 -1.35232e-05 0)
(-0.00249759 -1.50214e-05 0)
(-0.00244425 -1.64801e-05 0)
(-0.00238605 -1.78825e-05 0)
(-0.0023232 -1.92124e-05 0)
(-0.00225589 -2.04643e-05 0)
(-0.00218437 -2.16433e-05 0)
(-0.00210889 -2.27546e-05 0)
(-0.0020297 -2.37924e-05 0)
(-0.0019471 -2.47391e-05 0)
(-0.00186138 -2.55755e-05 0)
(-0.0017729 -2.62918e-05 0)
(-0.00168204 -2.68884e-05 0)
(-0.00158918 -2.73667e-05 0)
(-0.00149472 -2.77246e-05 0)
(-0.00139907 -2.79595e-05 0)
(-0.00130265 -2.80716e-05 0)
(-0.00120588 -2.80606e-05 0)
(-0.00110922 -2.79221e-05 0)
(-0.00101312 -2.76502e-05 0)
(-0.000918045 -2.72444e-05 0)
(-0.000824467 -2.67112e-05 0)
(-0.000732871 -2.60538e-05 0)
(-0.000643745 -2.52639e-05 0)
(-0.000557595 -2.43254e-05 0)
(-0.000474944 -2.32265e-05 0)
(-0.000396335 -2.19634e-05 0)
(-0.000322326 -2.05332e-05 0)
(-0.000253488 -1.89253e-05 0)
(-0.000190396 -1.71256e-05 0)
(-0.000133618 -1.51286e-05 0)
(-8.37115e-05 -1.29379e-05 0)
(-4.12055e-05 -1.056e-05 0)
(-6.58134e-06 -8.00274e-06 0)
(1.97502e-05 -5.2808e-06 0)
(3.75016e-05 -2.43837e-06 0)
(4.66023e-05 4.35035e-07 0)
(4.73196e-05 3.1865e-06 0)
(4.04402e-05 5.53085e-06 0)
(2.76998e-05 6.94084e-06 0)
(1.29082e-05 6.47199e-06 0)
(2.86954e-06 2.86851e-06 0)
(2.99393e-06 -1.15375e-05 0)
(1.90817e-05 -2.8121e-05 0)
(4.32536e-05 -3.31282e-05 0)
(6.38095e-05 -2.59092e-05 0)
(7.06837e-05 -1.16362e-05 0)
(5.81231e-05 5.68284e-06 0)
(2.33612e-05 2.40592e-05 0)
(-3.45864e-05 4.24804e-05 0)
(-0.000115943 6.02208e-05 0)
(-0.000220026 7.71543e-05 0)
(-0.000345803 9.30198e-05 0)
(-0.000492116 0.000107646 0)
(-0.000657423 0.000121031 0)
(-0.00084021 0.000133152 0)
(-0.00103898 0.00014399 0)
(-0.00125199 0.000153587 0)
(-0.00147766 0.000161984 0)
(-0.00171445 0.000169214 0)
(-0.00196071 0.000175318 0)
(-0.00221497 0.000180361 0)
(-0.00247576 0.00018438 0)
(-0.00274161 0.000187396 0)
(-0.00301116 0.000189461 0)
(-0.00328307 0.000190621 0)
(-0.00355603 0.000190923 0)
(-0.00382881 0.000190373 0)
(-0.0041002 0.000188997 0)
(-0.00436907 0.000186852 0)
(-0.00463431 0.000183962 0)
(-0.00489487 0.000180372 0)
(-0.00514977 0.000176105 0)
(-0.00539806 0.000171189 0)
(-0.00563879 0.00016566 0)
(-0.0058711 0.000159528 0)
(-0.00609421 0.000152826 0)
(-0.00630735 0.000145602 0)
(-0.00650976 0.000137886 0)
(-0.00670078 0.000129722 0)
(-0.0068798 0.000121136 0)
(-0.00704623 0.000112145 0)
(-0.00719954 0.00010279 0)
(-0.00733924 9.3109e-05 0)
(-0.00746488 8.31294e-05 0)
(-0.00757609 7.28844e-05 0)
(-0.00767251 6.24154e-05 0)
(-0.00775382 5.17528e-05 0)
(-0.00781974 4.09153e-05 0)
(-0.00787008 2.99295e-05 0)
(-0.00790467 1.88354e-05 0)
(-0.00792336 7.67314e-06 0)
(-0.00792609 -3.52339e-06 0)
(-0.00791282 -1.47202e-05 0)
(-0.00788357 -2.58885e-05 0)
(-0.00783837 -3.70078e-05 0)
(-0.00777734 -4.80495e-05 0)
(-0.00770064 -5.89673e-05 0)
(-0.00760846 -6.97127e-05 0)
(-0.00750103 -8.02551e-05 0)
(-0.00737867 -9.05788e-05 0)
(-0.00724174 -0.000100657 0)
(-0.00709066 -0.000110439 0)
(-0.00692588 -0.000119864 0)
(-0.0067479 -0.000128879 0)
(-0.00655731 -0.00013745 0)
(-0.00635474 -0.000145553 0)
(-0.00614091 -0.000153161 0)
(-0.00591654 -0.000160231 0)
(-0.00568247 -0.000166706 0)
(-0.00543955 -0.000172526 0)
(-0.00518871 -0.00017764 0)
(-0.00493096 -0.00018201 0)
(-0.00466733 -0.000185607 0)
(-0.00439894 -0.000188409 0)
(-0.00412692 -0.000190394 0)
(-0.00385246 -0.000191538 0)
(-0.00357679 -0.000191815 0)
(-0.00330119 -0.000191194 0)
(-0.00302698 -0.00018965 0)
(-0.00275551 -0.000187162 0)
(-0.00248814 -0.000183721 0)
(-0.00222629 -0.000179309 0)
(-0.00197142 -0.000173903 0)
(-0.00172499 -0.000167469 0)
(-0.00148851 -0.000159978 0)
(-0.0012635 -0.000151402 0)
(-0.00105147 -0.000141724 0)
(-0.000853945 -0.000130927 0)
(-0.000672405 -0.000119012 0)
(-0.000508293 -0.000106009 0)
(-0.000362974 -9.19742e-05 0)
(-0.000237689 -7.69912e-05 0)
(-0.000133482 -6.1188e-05 0)
(-5.11162e-05 -4.47714e-05 0)
(9.05995e-06 -2.80789e-05 0)
(4.73007e-05 -1.16597e-05 0)
(6.47165e-05 3.6242e-06 0)
(6.35876e-05 1.64306e-05 0)
(4.79389e-05 2.46468e-05 0)
(2.50271e-05 2.49593e-05 0)
(6.46679e-06 1.28823e-05 0)
(1.81977e-06 -2.04732e-05 0)
(1.27717e-05 -4.58895e-05 0)
(2.50162e-05 -5.0943e-05 0)
(2.80187e-05 -3.18844e-05 0)
(1.09729e-05 2.45409e-06 0)
(-3.34193e-05 4.48789e-05 0)
(-0.000108887 9.10731e-05 0)
(-0.000217673 0.000138182 0)
(-0.000360179 0.000184693 0)
(-0.000536078 0.000229531 0)
(-0.000744407 0.000272001 0)
(-0.000983374 0.000311731 0)
(-0.00125119 0.000348423 0)
(-0.00154578 0.000381906 0)
(-0.0018648 0.000412136 0)
(-0.00220602 0.000439126 0)
(-0.00256701 0.000462856 0)
(-0.00294533 0.000483439 0)
(-0.00333867 0.000500945 0)
(-0.00374466 0.000515424 0)
(-0.00416094 0.000527 0)
(-0.00458531 0.000535742 0)
(-0.00501557 0.000541748 0)
(-0.00544956 0.000545137 0)
(-0.00588522 0.000546002 0)
(-0.00632061 0.000544439 0)
(-0.00675377 0.000540532 0)
(-0.00718285 0.000534385 0)
(-0.00760611 0.000526096 0)
(-0.00802187 0.000515747 0)
(-0.00842851 0.000503438 0)
(-0.00882453 0.000489264 0)
(-0.00920845 0.000473328 0)
(-0.00957891 0.000455713 0)
(-0.00993461 0.000436494 0)
(-0.0102744 0.000415785 0)
(-0.010597 0.00039369 0)
(-0.0109014 0.00037029 0)
(-0.0111866 0.000345687 0)
(-0.0114518 0.000319977 0)
(-0.011696 0.000293232 0)
(-0.0119185 0.000265545 0)
(-0.0121185 0.000237026 0)
(-0.0122956 0.000207767 0)
(-0.012449 0.000177848 0)
(-0.0125783 0.000147362 0)
(-0.0126831 0.000116397 0)
(-0.0127631 8.50315e-05 0)
(-0.0128179 5.33528e-05 0)
(-0.0128474 2.14675e-05 0)
(-0.0128514 -1.0518e-05 0)
(-0.0128299 -4.25148e-05 0)
(-0.0127829 -7.44469e-05 0)
(-0.0127105 -0.000106235 0)
(-0.0126129 -0.000137778 0)
(-0.0124902 -0.000168963 0)
(-0.0123428 -0.00019968 0)
(-0.0121711 -0.00022984 0)
(-0.0119757 -0.000259357 0)
(-0.011757 -0.000288129 0)
(-0.0115157 -0.000316037 0)
(-0.0112526 -0.000342952 0)
(-0.0109684 -0.000368752 0)
(-0.0106641 -0.000393324 0)
(-0.0103407 -0.000416564 0)
(-0.00999933 -0.000438369 0)
(-0.00964111 -0.000458627 0)
(-0.00926736 -0.000477207 0)
(-0.00887943 -0.000493971 0)
(-0.00847878 -0.000508788 0)
(-0.00806697 -0.000521547 0)
(-0.00764564 -0.000532154 0)
(-0.0072165 -0.000540517 0)
(-0.00678137 -0.000546549 0)
(-0.00634213 -0.000550163 0)
(-0.00590074 -0.000551272 0)
(-0.00545926 -0.000549795 0)
(-0.00501978 -0.000545656 0)
(-0.00458446 -0.000538788 0)
(-0.00415552 -0.000529127 0)
(-0.00373524 -0.000516615 0)
(-0.00332592 -0.000501197 0)
(-0.00292994 -0.000482819 0)
(-0.00254965 -0.000461434 0)
(-0.00218743 -0.000437007 0)
(-0.00184562 -0.000409526 0)
(-0.00152651 -0.000379007 0)
(-0.00123234 -0.00034552 0)
(-0.000965229 -0.000309201 0)
(-0.000727134 -0.000270261 0)
(-0.000519762 -0.000229012 0)
(-0.000344475 -0.000185905 0)
(-0.000202169 -0.000141604 0)
(-9.30958e-05 -9.70935e-05 0)
(-1.66302e-05 -5.38257e-05 0)
(2.90116e-05 -1.3915e-05 0)
(4.70934e-05 1.95766e-05 0)
(4.28671e-05 4.22686e-05 0)
(2.5017e-05 4.79574e-05 0)
(6.99966e-06 2.77413e-05 0)
(6.4118e-07 -2.52695e-05 0)
(3.39708e-06 -5.21735e-05 0)
(-2.1265e-06 -4.96899e-05 0)
(-2.51686e-05 -1.1931e-05 0)
(-7.56691e-05 4.9785e-05 0)
(-0.000160676 0.000125464 0)
(-0.000284854 0.000208241 0)
(-0.000450486 0.000293651 0)
(-0.000658521 0.000378675 0)
(-0.000908768 0.000461243 0)
(-0.00119999 0.000540111 0)
(-0.00153055 0.000614352 0)
(-0.00189819 0.000683296 0)
(-0.00230033 0.000746618 0)
(-0.00273428 0.000804076 0)
(-0.00319707 0.000855533 0)
(-0.00368574 0.000901057 0)
(-0.00419721 0.000940633 0)
(-0.00472839 0.000974348 0)
(-0.00527624 0.00100235 0)
(-0.00583773 0.00102477 0)
(-0.00640988 0.00104172 0)
(-0.00698979 0.0010534 0)
(-0.00757461 0.00105999 0)
(-0.0081616 0.00106164 0)
(-0.00874812 0.00105854 0)
(-0.00933159 0.00105091 0)
(-0.00990954 0.0010389 0)
(-0.0104796 0.00102271 0)
(-0.0110395 0.00100252 0)
(-0.0115871 0.000978506 0)
(-0.0121204 0.000950865 0)
(-0.0126373 0.000919778 0)
(-0.0131361 0.000885447 0)
(-0.013615 0.000848041 0)
(-0.0140724 0.000807726 0)
(-0.0145067 0.000764714 0)
(-0.0149165 0.000719201 0)
(-0.0153004 0.000671341 0)
(-0.0156573 0.000621316 0)
(-0.0159859 0.00056932 0)
(-0.0162853 0.000515521 0)
(-0.0165544 0.000460083 0)
(-0.0167926 0.000403193 0)
(-0.0169989 0.000345037 0)
(-0.0171728 0.000285786 0)
(-0.0173136 0.000225601 0)
(-0.017421 0.000164643 0)
(-0.0174945 0.000103093 0)
(-0.0175339 4.11445e-05 0)
(-0.017539 -2.1017e-05 0)
(-0.0175097 -8.3222e-05 0)
(-0.0174461 -0.000145303 0)
(-0.0173482 -0.000207081 0)
(-0.0172163 -0.000268363 0)
(-0.0170508 -0.000328954 0)
(-0.016852 -0.000388657 0)
(-0.0166205 -0.000447281 0)
(-0.016357 -0.000504634 0)
(-0.0160623 -0.000560514 0)
(-0.0157371 -0.000614707 0)
(-0.0153826 -0.000666986 0)
(-0.0149997 -0.000717125 0)
(-0.0145898 -0.000764906 0)
(-0.0141542 -0.000810118 0)
(-0.0136943 -0.000852547 0)
(-0.0132118 -0.000891966 0)
(-0.0127084 -0.000928138 0)
(-0.0121859 -0.000960823 0)
(-0.0116462 -0.000989795 0)
(-0.0110915 -0.00101484 0)
(-0.0105238 -0.00103576 0)
(-0.00994553 -0.00105234 0)
(-0.00935908 -0.00106442 0)
(-0.00876696 -0.00107179 0)
(-0.0081718 -0.0010743 0)
(-0.00757634 -0.00107178 0)
(-0.00698338 -0.00106408 0)
(-0.0063958 -0.00105105 0)
(-0.00581657 -0.00103258 0)
(-0.00524871 -0.00100854 0)
(-0.00469531 -0.000978848 0)
(-0.00415948 -0.000943425 0)
(-0.00364432 -0.000902224 0)
(-0.00315292 -0.000855225 0)
(-0.00268832 -0.000802457 0)
(-0.00225348 -0.000744025 0)
(-0.00185122 -0.000680131 0)
(-0.00148423 -0.000611093 0)
(-0.00115488 -0.000537377 0)
(-0.000865242 -0.000459643 0)
(-0.000616884 -0.000378827 0)
(-0.000410788 -0.000296241 0)
(-0.00024714 -0.000213728 0)
(-0.00012509 -0.000133864 0)
(-4.24761e-05 -6.02313e-05 0)
(4.44294e-06 2.2185e-06 0)
(2.14431e-05 4.6743e-05 0)
(1.74499e-05 6.41608e-05 0)
(5.76085e-06 4.08198e-05 0)
(-8.73771e-07 -2.48343e-05 0)
(-7.79112e-06 -4.28338e-05 0)
(-3.48656e-05 -2.32718e-05 0)
(-8.90449e-05 4.12474e-05 0)
(-0.000178614 0.000137981 0)
(-0.000310403 0.000254161 0)
(-0.000488524 0.000381033 0)
(-0.000715605 0.000512347 0)
(-0.000992523 0.000643624 0)
(-0.00131898 0.000771836 0)
(-0.0016939 0.000894815 0)
(-0.00211529 0.00101101 0)
(-0.00258071 0.00111946 0)
(-0.00308729 0.00121939 0)
(-0.00363183 0.0013104 0)
(-0.00421095 0.00139219 0)
(-0.00482112 0.00146467 0)
(-0.00545872 0.00152786 0)
(-0.00612009 0.0015818 0)
(-0.00680154 0.00162664 0)
(-0.00749946 0.00166254 0)
(-0.00821023 0.00168974 0)
(-0.00893032 0.00170847 0)
(-0.00965628 0.00171898 0)
(-0.0103847 0.00172153 0)
(-0.0111125 0.0017164 0)
(-0.0118363 0.00170391 0)
(-0.0125531 0.00168433 0)
(-0.0132602 0.00165799 0)
(-0.0139546 0.00162516 0)
(-0.0146337 0.00158614 0)
(-0.0152949 0.00154126 0)
(-0.0159359 0.0014908 0)
(-0.0165544 0.00143505 0)
(-0.0171481 0.00137433 0)
(-0.0177152 0.00130896 0)
(-0.0182536 0.00123919 0)
(-0.0187616 0.00116535 0)
(-0.0192376 0.00108772 0)
(-0.0196799 0.00100662 0)
(-0.0200873 0.0009223 0)
(-0.0204583 0.000835062 0)
(-0.0207919 0.000745187 0)
(-0.021087 0.000652959 0)
(-0.0213426 0.000558667 0)
(-0.0215579 0.000462596 0)
(-0.0217323 0.000365015 0)
(-0.0218651 0.0002662 0)
(-0.021956 0.000166439 0)
(-0.0220045 6.60262e-05 0)
(-0.0220105 -3.47506e-05 0)
(-0.0219739 -0.000135603 0)
(-0.0218946 -0.00023624 0)
(-0.021773 -0.000336371 0)
(-0.0216091 -0.000435695 0)
(-0.0214036 -0.000533895 0)
(-0.0211568 -0.00063065 0)
(-0.0208695 -0.00072565 0)
(-0.0205425 -0.000818585 0)
(-0.0201768 -0.000909123 0)
(-0.0197735 -0.000996911 0)
(-0.0193337 -0.00108159 0)
(-0.0188589 -0.00116283 0)
(-0.0183505 -0.00124026 0)
(-0.0178104 -0.00131355 0)
(-0.0172402 -0.00138233 0)
(-0.0166419 -0.00144624 0)
(-0.0160177 -0.00150492 0)
(-0.0153698 -0.00155798 0)
(-0.0147006 -0.00160508 0)
(-0.0140127 -0.00164588 0)
(-0.0133088 -0.00168004 0)
(-0.0125916 -0.00170722 0)
(-0.0118642 -0.00172713 0)
(-0.0111297 -0.00173945 0)
(-0.0103912 -0.00174391 0)
(-0.00965214 -0.00174025 0)
(-0.00891595 -0.00172822 0)
(-0.00818614 -0.00170759 0)
(-0.00746634 -0.00167816 0)
(-0.00676023 -0.00163977 0)
(-0.00607156 -0.00159228 0)
(-0.00540408 -0.00153562 0)
(-0.00476154 -0.00146973 0)
(-0.00414763 -0.00139464 0)
(-0.00356598 -0.00131048 0)
(-0.00302009 -0.00121748 0)
(-0.00251332 -0.00111602 0)
(-0.00204874 -0.00100668 0)
(-0.00162912 -0.000890254 0)
(-0.0012568 -0.000767863 0)
(-0.000933541 -0.000641033 0)
(-0.000660431 -0.000511842 0)
(-0.000437668 -0.000383098 0)
(-0.000264348 -0.000258588 0)
(-0.00013823 -0.000143398 0)
(-5.54933e-05 -4.43301e-05 0)
(-1.03417e-05 2.96479e-05 0)
(5.51896e-06 6.65778e-05 0)
(3.6512e-06 4.84876e-05 0)
(-2.63654e-06 -1.83306e-05 0)
(-2.0708e-05 -1.58786e-05 0)
(-7.18482e-05 3.11766e-05 0)
(-0.000160399 0.000131752 0)
(-0.000293008 0.000271281 0)
(-0.000475421 0.000435471 0)
(-0.000711365 0.000613525 0)
(-0.00100305 0.000797651 0)
(-0.00135125 0.000982143 0)
(-0.00175555 0.00116279 0)
(-0.0022146 0.00133655 0)
(-0.00272631 0.00150128 0)
(-0.00328797 0.00165537 0)
(-0.00389637 0.00179781 0)
(-0.00454802 0.00192779 0)
(-0.00523911 0.00204491 0)
(-0.00596563 0.00214888 0)
(-0.0067235 0.00223964 0)
(-0.00750858 0.00231723 0)
(-0.00831665 0.00238177 0)
(-0.00914352 0.00243346 0)
(-0.00998504 0.00247259 0)
(-0.0108371 0.00249946 0)
(-0.0116958 0.00251442 0)
(-0.0125572 0.00251783 0)
(-0.0134174 0.0025101 0)
(-0.0142729 0.00249164 0)
(-0.0151199 0.00246284 0)
(-0.0159553 0.00242414 0)
(-0.0167756 0.00237601 0)
(-0.0175778 0.00231887 0)
(-0.0183588 0.00225313 0)
(-0.0191159 0.00217926 0)
(-0.0198463 0.00209769 0)
(-0.0205474 0.00200886 0)
(-0.0212171 0.0019132 0)
(-0.0218529 0.00181117 0)
(-0.0224527 0.00170318 0)
(-0.0230147 0.00158965 0)
(-0.0235369 0.00147103 0)
(-0.0240178 0.00134772 0)
(-0.0244558 0.00122015 0)
(-0.0248496 0.00108873 0)
(-0.0251978 0.000953874 0)
(-0.0254995 0.000815998 0)
(-0.0257535 0.000675512 0)
(-0.0259592 0.000532831 0)
(-0.0261158 0.000388356 0)
(-0.0262228 0.000242499 0)
(-0.0262799 9.56912e-05 0)
(-0.0262867 -5.16407e-05 0)
(-0.0262431 -0.00019908 0)
(-0.0261493 -0.000346208 0)
(-0.0260053 -0.000492586 0)
(-0.0258116 -0.000637762 0)
(-0.0255686 -0.00078128 0)
(-0.0252769 -0.000922686 0)
(-0.0249374 -0.00106153 0)
(-0.0245512 -0.00119733 0)
(-0.0241191 -0.00132961 0)
(-0.0236427 -0.00145786 0)
(-0.0231233 -0.00158158 0)
(-0.0225625 -0.00170027 0)
(-0.0219622 -0.00181342 0)
(-0.0213243 -0.00192052 0)
(-0.020651 -0.00202104 0)
(-0.0199446 -0.00211446 0)
(-0.0192075 -0.00220025 0)
(-0.0184424 -0.0022779 0)
(-0.0176522 -0.00234688 0)
(-0.0168399 -0.00240671 0)
(-0.0160085 -0.00245689 0)
(-0.0151614 -0.00249694 0)
(-0.0143021 -0.0025264 0)
(-0.0134342 -0.00254484 0)
(-0.0125614 -0.00255187 0)
(-0.0116877 -0.00254709 0)
(-0.0108171 -0.00253014 0)
(-0.00995357 -0.0025007 0)
(-0.00910143 -0.0024585 0)
(-0.00826493 -0.00240334 0)
(-0.00744837 -0.00233504 0)
(-0.00665606 -0.00225351 0)
(-0.00589231 -0.00215874 0)
(-0.00516133 -0.00205082 0)
(-0.00446726 -0.00193001 0)
(-0.00381409 -0.0017967 0)
(-0.00320557 -0.00165152 0)
(-0.00264516 -0.00149534 0)
(-0.00213595 -0.00132938 0)
(-0.00168052 -0.00115529 0)
(-0.00128087 -0.000975244 0)
(-0.000938218 -0.000792151 0)
(-0.000652891 -0.00060983 0)
(-0.000424106 -0.000433286 0)
(-0.000249789 -0.000269067 0)
(-0.00012636 -0.000125691 0)
(-4.83879e-05 -1.41089e-05 0)
(-8.82272e-06 5.13252e-05 0)
(1.14179e-06 4.90956e-05 0)
(-4.61936e-06 -5.00346e-06 0)
(-3.46948e-05 3.0252e-05 0)
(-0.000111452 0.000116184 0)
(-0.000236582 0.000262182 0)
(-0.000414568 0.000453 0)
(-0.000650232 0.000672565 0)
(-0.000946494 0.000908689 0)
(-0.001305 0.00115216 0)
(-0.00172617 0.00139605 0)
(-0.00220929 0.00163515 0)
(-0.00275281 0.00186554 0)
(-0.00335436 0.00208437 0)
(-0.00401093 0.00228949 0)
(-0.00471909 0.0024794 0)
(-0.00547497 0.00265304 0)
(-0.0062744 0.00280971 0)
(-0.00711302 0.00294901 0)
(-0.0079863 0.00307072 0)
(-0.00888963 0.00317483 0)
(-0.00981838 0.00326146 0)
(-0.0107679 0.00333084 0)
(-0.0117334 0.00338327 0)
(-0.0127106 0.00341914 0)
(-0.0136948 0.00343887 0)
(-0.0146816 0.00344297 0)
(-0.0156668 0.00343194 0)
(-0.0166463 0.00340631 0)
(-0.017616 0.00336666 0)
(-0.018572 0.00331353 0)
(-0.0195107 0.0032475 0)
(-0.0204286 0.00316921 0)
(-0.0213221 0.00307923 0)
(-0.0221882 0.00297814 0)
(-0.0230236 0.00286654 0)
(-0.0238257 0.00274506 0)
(-0.0245916 0.00261425 0)
(-0.0253187 0.00247473 0)
(-0.0260046 0.00232708 0)
(-0.0266473 0.00217188 0)
(-0.0272445 0.00200971 0)
(-0.0277943 0.00184115 0)
(-0.0282951 0.00166677 0)
(-0.0287453 0.00148712 0)
(-0.0291434 0.00130278 0)
(-0.0294881 0.00111433 0)
(-0.0297784 0.000922311 0)
(-0.0300134 0.000727284 0)
(-0.0301923 0.00052981 0)
(-0.0303145 0.000330473 0)
(-0.0303794 0.000129847 0)
(-0.030387 -7.15026e-05 0)
(-0.0303369 -0.000273002 0)
(-0.0302294 -0.000474057 0)
(-0.0300645 -0.000674062 0)
(-0.0298427 -0.000872413 0)
(-0.0295646 -0.0010685 0)
(-0.029231 -0.00126169 0)
(-0.0288426 -0.00145136 0)
(-0.0284007 -0.00163687 0)
(-0.0279066 -0.00181754 0)
(-0.0273617 -0.00199271 0)
(-0.0267676 -0.00216169 0)
(-0.0261263 -0.00232381 0)
(-0.0254398 -0.00247836 0)
(-0.0247103 -0.00262466 0)
(-0.0239403 -0.00276199 0)
(-0.0231325 -0.00288965 0)
(-0.0222895 -0.00300692 0)
(-0.0214146 -0.00311312 0)
(-0.0205108 -0.00320755 0)
(-0.0195815 -0.00328953 0)
(-0.0186304 -0.00335839 0)
(-0.0176612 -0.0034135 0)
(-0.0166778 -0.00345422 0)
(-0.0156844 -0.00348 0)
(-0.0146851 -0.00349027 0)
(-0.0136844 -0.00348451 0)
(-0.0126868 -0.00346225 0)
(-0.0116969 -0.00342309 0)
(-0.0107193 -0.00336666 0)
(-0.00975902 -0.00329272 0)
(-0.00882071 -0.00320105 0)
(-0.00790922 -0.00309159 0)
(-0.00702933 -0.00296436 0)
(-0.00618574 -0.00281958 0)
(-0.00538301 -0.00265762 0)
(-0.00462554 -0.00247909 0)
(-0.00391747 -0.00228489 0)
(-0.0032626 -0.00207627 0)
(-0.00266432 -0.00185487 0)
(-0.00212547 -0.00162294 0)
(-0.00164829 -0.00138333 0)
(-0.00123423 -0.00113981 0)
(-0.000883858 -0.0008972 0)
(-0.000596665 -0.000661674 0)
(-0.000370952 -0.000441135 0)
(-0.000203624 -0.000245628 0)
(-8.9906e-05 -8.77863e-05 0)
(-2.43727e-05 1.61147e-05 0)
(-1.52337e-06 4.18386e-05 0)
(-6.66036e-06 1.55459e-05 0)
(-4.91001e-05 9.66594e-05 0)
(-0.000152521 0.000232879 0)
(-0.000315317 0.000434425 0)
(-0.000540068 0.000684936 0)
(-0.000830534 0.000967389 0)
(-0.00118865 0.00126831 0)
(-0.00161536 0.00157732 0)
(-0.00211052 0.00188643 0)
(-0.00267311 0.00218942 0)
(-0.00330116 0.0024816 0)
(-0.00399203 0.00275942 0)
(-0.00474244 0.00302017 0)
(-0.00554858 0.00326185 0)
(-0.00640632 0.00348314 0)
(-0.00731113 0.00368298 0)
(-0.00825829 0.00386081 0)
(-0.0092429 0.0040163 0)
(-0.01026 0.00414933 0)
(-0.0113044 0.00426 0)
(-0.0123711 0.00434856 0)
(-0.0134551 0.00441534 0)
(-0.0145513 0.00446081 0)
(-0.0156547 0.00448546 0)
(-0.0167607 0.00448991 0)
(-0.0178644 0.00447481 0)
(-0.0189613 0.0044408 0)
(-0.020047 0.00438859 0)
(-0.0211172 0.00431895 0)
(-0.0221677 0.00423259 0)
(-0.0231947 0.00413026 0)
(-0.0241944 0.00401275 0)
(-0.0251633 0.00388082 0)
(-0.0260978 0.00373523 0)
(-0.0269949 0.00357677 0)
(-0.0278514 0.00340621 0)
(-0.0286645 0.00322429 0)
(-0.0294316 0.00303179 0)
(-0.0301501 0.00282948 0)
(-0.0308178 0.00261811 0)
(-0.0314326 0.0023984 0)
(-0.0319924 0.00217109 0)
(-0.0324956 0.00193695 0)
(-0.0329406 0.00169672 0)
(-0.0333259 0.00145112 0)
(-0.0336503 0.00120086 0)
(-0.0339129 0.000946708 0)
(-0.0341127 0.000689386 0)
(-0.0342491 0.000429637 0)
(-0.0343216 0.000168206 0)
(-0.0343298 -9.41574e-05 0)
(-0.0342737 -0.000356698 0)
(-0.0341533 -0.000618644 0)
(-0.0339688 -0.000879213 0)
(-0.0337207 -0.00113761 0)
(-0.0334097 -0.00139305 0)
(-0.0330365 -0.00164471 0)
(-0.0326023 -0.00189177 0)
(-0.0321081 -0.00213339 0)
(-0.0315556 -0.00236871 0)
(-0.0309463 -0.00259684 0)
(-0.0302821 -0.00281693 0)
(-0.0295651 -0.00302809 0)
(-0.0287975 -0.00322942 0)
(-0.0279818 -0.00342 0)
(-0.0271209 -0.00359892 0)
(-0.0262175 -0.00376528 0)
(-0.0252748 -0.00391818 0)
(-0.0242963 -0.0040567 0)
(-0.0232854 -0.00417996 0)
(-0.0222459 -0.00428709 0)
(-0.0211818 -0.00437722 0)
(-0.0200972 -0.00444953 0)
(-0.0189965 -0.00450324 0)
(-0.0178843 -0.00453759 0)
(-0.0167652 -0.00455188 0)
(-0.015644 -0.00454545 0)
(-0.0145257 -0.00451771 0)
(-0.0134155 -0.00446816 0)
(-0.0123184 -0.00439637 0)
(-0.0112398 -0.004302 0)
(-0.0101848 -0.00418488 0)
(-0.00915879 -0.00404492 0)
(-0.00816693 -0.00388224 0)
(-0.00721434 -0.00369716 0)
(-0.00630599 -0.00349022 0)
(-0.00544664 -0.00326227 0)
(-0.00464079 -0.0030145 0)
(-0.00389256 -0.00274855 0)
(-0.00320564 -0.00246657 0)
(-0.0025832 -0.00217136 0)
(-0.00202773 -0.00186651 0)
(-0.00154101 -0.00155659 0)
(-0.00112393 -0.0012474 0)
(-0.000776416 -0.000946205 0)
(-0.000497297 -0.000662111 0)
(-0.00028415 -0.000406472 0)
(-0.000133052 -0.000193286 0)
(-4.04001e-05 -4.02785e-05 0)
(-4.21818e-06 2.63601e-05 0)
(-8.67638e-06 4.35484e-05 0)
(-6.37029e-05 0.000183655 0)
(-0.000193928 0.000382124 0)
(-0.000394931 0.000649286 0)
(-0.000667175 0.0009682 0)
(-0.00101312 0.00132107 0)
(-0.00143388 0.00169347 0)
(-0.00192949 0.00207405 0)
(-0.00249923 0.00245382 0)
(-0.00314152 0.00282578 0)
(-0.003854 0.00318447 0)
(-0.00463364 0.00352564 0)
(-0.00547687 0.00384607 0)
(-0.00637952 0.00414331 0)
(-0.00733711 0.0044156 0)
(-0.00834485 0.00466173 0)
(-0.00939761 0.00488081 0)
(-0.0104902 0.00507242 0)
(-0.0116171 0.00523634 0)
(-0.0127731 0.00537265 0)
(-0.0139526 0.00548156 0)
(-0.0151501 0.00556344 0)
(-0.0163603 0.00561882 0)
(-0.0175778 0.00564836 0)
(-0.0187974 0.00565269 0)
(-0.0200141 0.0056326 0)
(-0.0212228 0.00558893 0)
(-0.0224188 0.00552253 0)
(-0.0235973 0.00543428 0)
(-0.024754 0.00532513 0)
(-0.0258846 0.00519598 0)
(-0.0269849 0.00504779 0)
(-0.0280511 0.00488153 0)
(-0.0290794 0.00469817 0)
(-0.0300664 0.00449864 0)
(-0.0310087 0.00428391 0)
(-0.0319031 0.00405495 0)
(-0.0327468 0.00381272 0)
(-0.0335371 0.00355815 0)
(-0.0342714 0.00329218 0)
(-0.0349475 0.00301576 0)
(-0.0355631 0.00272982 0)
(-0.0361164 0.00243528 0)
(-0.0366056 0.00213308 0)
(-0.0370293 0.00182413 0)
(-0.037386 0.00150936 0)
(-0.0376746 0.00118969 0)
(-0.0378942 0.00086604 0)
(-0.0380441 0.000539354 0)
(-0.0381237 0.000210567 0)
(-0.0381326 -0.000119385 0)
(-0.0380709 -0.00044955 0)
(-0.0379384 -0.000778952 0)
(-0.0377354 -0.0011066 0)
(-0.0374626 -0.00143152 0)
(-0.0371205 -0.0017527 0)
(-0.0367102 -0.00206913 0)
(-0.0362326 -0.00237976 0)
(-0.0356893 -0.00268354 0)
(-0.0350817 -0.00297938 0)
(-0.0344117 -0.00326621 0)
(-0.0336813 -0.00354294 0)
(-0.0328928 -0.00380844 0)
(-0.0320487 -0.00406161 0)
(-0.0311516 -0.00430129 0)
(-0.0302046 -0.00452636 0)
(-0.029211 -0.00473569 0)
(-0.028174 -0.00492815 0)
(-0.0270974 -0.00510262 0)
(-0.025985 -0.00525798 0)
(-0.024841 -0.00539316 0)
(-0.0236697 -0.00550709 0)
(-0.0224756 -0.00559876 0)
(-0.0212634 -0.00566717 0)
(-0.0200381 -0.00571142 0)
(-0.0188048 -0.00573062 0)
(-0.0175686 -0.00572398 0)
(-0.0163351 -0.0056908 0)
(-0.0151096 -0.00563044 0)
(-0.0138979 -0.00554242 0)
(-0.0127054 -0.00542637 0)
(-0.011538 -0.00528207 0)
(-0.0104013 -0.00510951 0)
(-0.00930086 -0.00490886 0)
(-0.0082422 -0.00468056 0)
(-0.00723068 -0.00442536 0)
(-0.00627139 -0.00414434 0)
(-0.00536919 -0.00383903 0)
(-0.00452853 -0.00351146 0)
(-0.00375343 -0.00316428 0)
(-0.00304736 -0.00280088 0)
(-0.00241319 -0.00242554 0)
(-0.00185306 -0.00204362 0)
(-0.00136829 -0.00166181 0)
(-0.00095935 -0.00128835 0)
(-0.000625729 -0.000933417 0)
(-0.000365806 -0.000609443 0)
(-0.000176621 -0.000331494 0)
(-5.64591e-05 -0.000118326 0)
(-6.8746e-06 2.58895e-06 0)
(-1.07104e-05 7.88493e-05 0)
(-7.80938e-05 0.000291398 0)
(-0.000235095 0.000564015 0)
(-0.000474319 0.000906949 0)
(-0.000794082 0.00130319 0)
(-0.00119573 0.00173408 0)
(-0.00167932 0.00218463 0)
(-0.00224407 0.00264266 0)
(-0.0028885 0.00309844 0)
(-0.00361043 0.00354419 0)
(-0.00440705 0.00397375 0)
(-0.0052749 0.00438229 0)
(-0.00621 0.00476603 0)
(-0.00720789 0.00512216 0)
(-0.00826368 0.00544847 0)
(-0.00937225 0.00574349 0)
(-0.0105282 0.00600615 0)
(-0.0117259 0.00623584 0)
(-0.0129597 0.00643229 0)
(-0.0142236 0.00659544 0)
(-0.0155121 0.00672556 0)
(-0.0168192 0.00682307 0)
(-0.0181391 0.00688852 0)
(-0.0194662 0.00692264 0)
(-0.0207949 0.00692624 0)
(-0.0221198 0.00690019 0)
(-0.0234355 0.00684549 0)
(-0.0247369 0.00676316 0)
(-0.0260189 0.00665426 0)
(-0.0272769 0.00651989 0)
(-0.0285062 0.00636118 0)
(-0.0297023 0.00617928 0)
(-0.0308612 0.00597534 0)
(-0.0319787 0.00575052 0)
(-0.0330511 0.00550599 0)
(-0.0340748 0.00524293 0)
(-0.0350465 0.00496249 0)
(-0.035963 0.00466583 0)
(-0.0368214 0.00435411 0)
(-0.037619 0.00402848 0)
(-0.0383532 0.00369007 0)
(-0.0390217 0.00334003 0)
(-0.0396226 0.00297949 0)
(-0.0401538 0.0026096 0)
(-0.0406138 0.00223147 0)
(-0.0410011 0.00184621 0)
(-0.0413145 0.00145498 0)
(-0.0415529 0.0010589 0)
(-0.0417156 0.000659123 0)
(-0.0418021 0.000256776 0)
(-0.0418118 -0.000146985 0)
(-0.0417448 -0.000550985 0)
(-0.0416009 -0.000954033 0)
(-0.0413806 -0.00135493 0)
(-0.0410844 -0.00175248 0)
(-0.0407131 -0.00214546 0)
(-0.0402676 -0.00253261 0)
(-0.0397492 -0.00291266 0)
(-0.0391593 -0.00328432 0)
(-0.0384996 -0.00364628 0)
(-0.0377721 -0.00399724 0)
(-0.036979 -0.00433585 0)
(-0.0361228 -0.00466075 0)
(-0.035206 -0.00497059 0)
(-0.0342318 -0.00526399 0)
(-0.0332032 -0.00553956 0)
(-0.0321237 -0.00579595 0)
(-0.0309971 -0.00603177 0)
(-0.0298272 -0.00624568 0)
(-0.0286183 -0.00643634 0)
(-0.0273747 -0.00660242 0)
(-0.0261011 -0.00674266 0)
(-0.0248024 -0.00685582 0)
(-0.0234837 -0.00694072 0)
(-0.0221502 -0.00699625 0)
(-0.0208074 -0.00702138 0)
(-0.0194609 -0.00701516 0)
(-0.0181165 -0.00697673 0)
(-0.0167801 -0.0069054 0)
(-0.0154576 -0.00680057 0)
(-0.0141552 -0.00666185 0)
(-0.0128787 -0.00648903 0)
(-0.0116344 -0.00628212 0)
(-0.0104281 -0.00604137 0)
(-0.00926575 -0.00576737 0)
(-0.00815302 -0.00546105 0)
(-0.00709538 -0.00512377 0)
(-0.00609801 -0.00475739 0)
(-0.00516572 -0.00436434 0)
(-0.00430287 -0.00394776 0)
(-0.00351331 -0.0035116 0)
(-0.00280029 -0.00306081 0)
(-0.00216641 -0.00260148 0)
(-0.00161352 -0.00214111 0)
(-0.00114267 -0.00168882 0)
(-0.000754136 -0.00125567 0)
(-0.00044717 -0.000854969 0)
(-0.000219832 -0.000502603 0)
(-7.22678e-05 -0.000218013 0)
(-9.44984e-06 -2.93735e-05 0)
(-1.27077e-05 0.00012139 0)
(-9.22187e-05 0.000419676 0)
(-0.000275651 0.000778182 0)
(-0.000552636 0.00120736 0)
(-0.000919627 0.0016897 0)
(-0.00137677 0.00220637 0)
(-0.00192302 0.00274177 0)
(-0.00255671 0.00328316 0)
(-0.00327562 0.00382017 0)
(-0.00407694 0.00434436 0)
(-0.00495726 0.00484896 0)
(-0.00591271 0.0053286 0)
(-0.00693884 0.00577905 0)
(-0.00803081 0.00619701 0)
(-0.00918341 0.00658002 0)
(-0.0103911 0.00692625 0)
(-0.0116482 0.00723447 0)
(-0.0129488 0.00750388 0)
(-0.0142867 0.00773412 0)
(-0.0156559 0.00792512 0)
(-0.0170502 0.00807707 0)
(-0.0184635 0.00819046 0)
(-0.0198896 0.00826592 0)
(-0.0213226 0.0083042 0)
(-0.0227566 0.00830627 0)
(-0.0241856 0.00827318 0)
(-0.0256043 0.00820602 0)
(-0.0270069 0.00810599 0)
(-0.0283883 0.00797434 0)
(-0.0297434 0.00781238 0)
(-0.0310672 0.00762141 0)
(-0.0323551 0.00740279 0)
(-0.0336025 0.0071579 0)
(-0.0348053 0.00688811 0)
(-0.0359593 0.0065948 0)
(-0.0370609 0.00627936 0)
(-0.0381063 0.00594318 0)
(-0.0390922 0.00558764 0)
(-0.0400156 0.0052141 0)
(-0.0408734 0.00482393 0)
(-0.0416631 0.00441852 0)
(-0.0423821 0.00399921 0)
(-0.0430282 0.00356736 0)
(-0.0435995 0.00312433 0)
(-0.0440942 0.00267144 0)
(-0.0445107 0.00221006 0)
(-0.0448477 0.00174154 0)
(-0.0451042 0.00126725 0)
(-0.0452792 0.000788518 0)
(-0.0453723 0.000306733 0)
(-0.0453829 -0.000176724 0)
(-0.0453109 -0.00066045 0)
(-0.0451564 -0.00114303 0)
(-0.0449198 -0.00162304 0)
(-0.0446015 -0.00209903 0)
(-0.0442025 -0.00256953 0)
(-0.0437236 -0.00303306 0)
(-0.0431664 -0.0034881 0)
(-0.0425323 -0.0039331 0)
(-0.0418232 -0.00436652 0)
(-0.0410411 -0.00478677 0)
(-0.0401884 -0.00519228 0)
(-0.0392677 -0.00558143 0)
(-0.0382818 -0.00595258 0)
(-0.0372339 -0.00630412 0)
(-0.0361275 -0.00663439 0)
(-0.0349662 -0.00694178 0)