/*--------------------------------*- C++ -*----------------------------------*\
  =========                 |
  \\      /  F ield         | OpenFOAM: The Open Source CFD Toolbox
   \\    /   O peration     | Website:  https://openfoam.org
    \\  /    A nd           | Version:  11
     \\/     M anipulation  |
\*---------------------------------------------------------------------------*/
FoamFile
{
    format      ascii;
    class       volScalarField;
    location    "4.3";
    object      p;
}
// * * * * * * * * * * * * * * * * * * * * * * * * * * * * * * * * * * * * * //

dimensions      [0 2 -2 0 0 0 0];

internalField   nonuniform List<scalar> 
10100
(
1.10073e-07
7.20772e-05
-0.000124289
-0.000601872
-0.00131922
-0.00223436
-0.00330504
-0.00448861
-0.00574713
-0.0070465
-0.00835545
-0.0096459
-0.0108934
-0.012077
-0.0131784
-0.0141814
-0.015071
-0.0158348
-0.0164615
-0.0169415
-0.0172681
-0.0174362
-0.0174415
-0.0172816
-0.0169551
-0.0164607
-0.0157987
-0.0149702
-0.0139774
-0.0128235
-0.0115119
-0.0100466
-0.00843202
-0.00667311
-0.00477591
-0.00274675
-0.000591857
0.00168226
0.00406853
0.00655954
0.00914776
0.0118252
0.0145831
0.0174129
0.0203059
0.0232535
0.0262471
0.029278
0.032337
0.0354147
0.0385009
0.0415854
0.0446582
0.0477101
0.0507319
0.0537144
0.0566479
0.0595221
0.0623276
0.0650547
0.0676941
0.0702363
0.0726725
0.074994
0.0771928
0.0792614
0.0811926
0.0829795
0.0846157
0.0860957
0.0874146
0.088568
0.0895521
0.090364
0.0910017
0.0914634
0.0917484
0.0918567
0.09179
0.0915514
0.0911456
0.0905791
0.0898592
0.0889947
0.0879963
0.0868775
0.0856544
0.0843457
0.0829715
0.0815545
0.0801205
0.0786993
0.0773249
0.0760351
0.0748718
0.0738805
0.073109
0.0726049
0.0724121
0.0724958
-6.76264e-05
4.61677e-05
-0.000111281
-0.000516262
-0.00112388
-0.00190533
-0.00282544
-0.00384971
-0.00494445
-0.00607967
-0.00722776
-0.00836291
-0.00946247
-0.0105075
-0.0114806
-0.0123656
-0.013149
-0.0138178
-0.014361
-0.01477
-0.0150374
-0.0151579
-0.0151274
-0.0149432
-0.0146038
-0.0141087
-0.0134576
-0.0126509
-0.0116898
-0.0105765
-0.00931424
-0.00790658
-0.00635783
-0.00467308
-0.00285791
-0.000917825
0.00114167
0.00331449
0.00559395
0.00797308
0.0104445
0.0130003
0.0156325
0.0183327
0.021093
0.0239056
0.0267619
0.0296533
0.0325713
0.0355066
0.0384498
0.0413912
0.0443216
0.0472317
0.0501129
0.0529565
0.0557529
0.0584928
0.0611674
0.0637676
0.0662838
0.0687073
0.0710299
0.0732438
0.0753413
0.0773155
0.0791596
0.0808669
0.0824315
0.0838487
0.0851143
0.086224
0.0871745
0.0879635
0.0885895
0.0890514
0.0893487
0.0894818
0.0894527
0.0892645
0.088922
0.0884316
0.087801
0.0870391
0.0861561
0.0851653
0.0840821
0.0829243
0.0817111
0.0804635
0.079205
0.0779629
0.0767672
0.075651
0.0746491
0.0737972
0.07313
0.0726815
0.0724966
0.0725819
0.000149076
0.000283604
0.000144374
-0.000221354
-0.000766513
-0.0014661
-0.00229099
-0.0032093
-0.00419186
-0.00521193
-0.00624455
-0.00726629
-0.008257
-0.00919836
-0.0100741
-0.0108696
-0.011571
-0.0121662
-0.012645
-0.0129984
-0.0132197
-0.0133034
-0.0132451
-0.0130419
-0.0126926
-0.0121967
-0.0115538
-0.0107641
-0.00982829
-0.00874779
-0.00752534
-0.00616439
-0.0046691
-0.00304451
-0.00129586
0.000571925
0.00255385
0.00464426
0.00683674
0.0091247
0.011501
0.0139576
0.0164869
0.0190811
0.0217329
0.0244349
0.027179
0.0299567
0.0327595
0.0355788
0.038405
0.0412294
0.0440434
0.0468382
0.0496051
0.0523355
0.0550205
0.0576514
0.0602196
0.0627166
0.0651329
0.0674602
0.0696907
0.0718175
0.0738335
0.0757317
0.0775054
0.0791485
0.0806558
0.0820228
0.0832457
0.0843206
0.0852445
0.0860154
0.0866324
0.0870947
0.0874018
0.0875546
0.0875552
0.0874068
0.087114
0.0866829
0.0861212
0.0854377
0.084643
0.0837496
0.0827724
0.081728
0.0806341
0.07951
0.0783776
0.0772615
0.0761891
0.0751889
0.0742906
0.0735237
0.0729162
0.0724963
0.0723127
0.0723936
0.000705916
0.000796088
0.000636726
0.000273907
-0.000250513
-0.000911516
-0.001683
-0.00253672
-0.0034464
-0.00438811
-0.00533919
-0.00627946
-0.00718973
-0.00805318
-0.00885492
-0.00958076
-0.010218
-0.0107555
-0.0111829
-0.011492
-0.0116763
-0.0117304
-0.0116501
-0.0114327
-0.0110762
-0.0105799
-0.00994389
-0.00916802
-0.00825272
-0.00719952
-0.00601078
-0.00468947
-0.00323959
-0.00166601
2.64607e-05
0.00183338
0.00374991
0.00577058
0.00788937
0.0100999
0.0123952
0.0147676
0.0172095
0.0197138
0.0222735
0.0248812
0.0275297
0.0302107
0.0329159
0.0356364
0.0383634
0.0410885
0.0438038
0.0465007
0.0491707
0.0518055
0.0543964
0.0569351
0.0594135
0.0618231
0.0641548
0.0664008
0.0685542
0.0706081
0.0725555
0.0743898
0.0761047
0.0776942
0.0791536
0.0804789
0.0816661
0.0827119
0.0836135
0.0843695
0.0849793
0.0854418
0.0857568
0.085925
0.0859492
0.0858325
0.0855795
0.0851955
0.084688
0.0840659
0.0833396
0.0825216
0.0816257
0.080667
0.0796615
0.0786272
0.0775842
0.0765553
0.075565
0.0746385
0.0738012
0.0730783
0.0724941
0.0720744
0.0718643
0.0718939
0.00155274
0.00153826
0.00131887
0.00092785
0.000397251
-0.000252404
-0.000995205
-0.0018077
-0.0026666
-0.00355021
-0.00443892
-0.00531427
-0.00615948
-0.00695906
-0.00769879
-0.0083658
-0.00894832
-0.00943601
-0.0098193
-0.0100901
-0.010242
-0.0102701
-0.0101707
-0.00994092
-0.00957886
-0.00908349
-0.00845439
-0.00769139
-0.00679499
-0.00576681
-0.00460902
-0.00332446
-0.00191694
-0.000390792
0.00124971
0.00300037
0.00485648
0.00681273
0.00886334
0.011002
0.0132219
0.0155158
0.0178767
0.0202977
0.0227719
0.0252924
0.0278521
0.030443
0.0330572
0.035686
0.0383211
0.0409545
0.0435784
0.0461846
0.0487647
0.0513108
0.0538148
0.0562686
0.058664
0.0609926
0.0632461
0.0654173
0.0674997
0.0694867
0.0713712
0.0731467
0.0748074
0.0763481
0.0777639
0.0790511
0.0802057
0.0812247
0.082106
0.0828484
0.0834514
0.0839139
0.0842354
0.0844171
0.0844615
0.0843721
0.0841531
0.0838096
0.0833488
0.0827792
0.0821113
0.0813567
0.0805284
0.07964
0.0787061
0.0777428
0.0767689
0.0758053
0.0748741
0.0739971
0.0731958
0.0724916
0.071906
0.0714622
0.0711945
0.0711249
0.00263309
0.00246997
0.00215872
0.00171429
0.00115239
0.00049238
-0.000244391
-0.00103614
-0.0018639
-0.00270836
-0.00355164
-0.00437799
-0.0051724
-0.00592082
-0.00661055
-0.00722939
-0.0077664
-0.00821222
-0.00855825
-0.00879662
-0.00892115
-0.00892741
-0.00881178
-0.00857146
-0.00820485
-0.00771092
-0.00708878
-0.00633812
-0.00545949
-0.00445436
-0.00332497
-0.00207419
-0.000705573
0.000777052
0.00236985
0.00406878
0.00586938
0.0077666
0.00975466
0.0118274
0.0139779
0.0161996
0.0184858
0.0208301
0.0232259
0.0256664
0.0281447
0.0306529
0.0331832
0.0357276
0.0382782
0.0408276
0.0433679
0.0458909
0.0483884
0.0508533
0.0532777
0.0556538
0.0579732
0.0602277
0.0624098
0.0645129
0.0665308
0.0684567
0.0702838
0.0720058
0.0736174
0.0751137
0.0764901
0.0777428
0.078868
0.0798631
0.0807261
0.0814562
0.0820525
0.0825141
0.0828406
0.0830334
0.0830951
0.0830287
0.0828383
0.0825287
0.082107
0.0815814
0.0809618
0.0802591
0.0794852
0.0786524
0.0777739
0.0768646
0.0759415
0.0750235
0.0741304
0.073281
0.0724934
0.0717858
0.071177
0.0706874
0.0703366
0.070134
0.00389281
0.00355529
0.00312803
0.00260958
0.00199712
0.00130604
0.000556639
-0.000234004
-0.00104867
-0.00187115
-0.00268586
-0.00347824
-0.00423553
-0.00494562
-0.00559664
-0.00617768
-0.00667892
-0.00709115
-0.0074065
-0.00761825
-0.00772062
-0.00770924
-0.00758064
-0.00733216
-0.00696234
-0.00647018
-0.00585464
-0.00511552
-0.0042534
-0.00326952
-0.00216616
-0.000946213
0.000387137
0.00183042
0.00338005
0.00503214
0.00678241
0.00862604
0.0105573
0.0125701
0.0146578
0.0168141
0.0190327
0.0213076
0.0236323
0.0260004
0.028405
0.0308382
0.0332925
0.0357605
0.0382348
0.0407082
0.0431728
0.0456204
0.0480435
0.0504351
0.0527878
0.0550934
0.057344
0.059532
0.0616501
0.0636921
0.0656519
0.0675228
0.0692982
0.0709722
0.0725401
0.0739968
0.075338
0.0765597
0.0776588
0.0786328
0.0794798
0.0801987
0.0807886
0.0812484
0.081578
0.0817793
0.0818549
0.0818076
0.0816407
0.0813589
0.0809687
0.0804784
0.0798972
0.0792351
0.0785029
0.0777116
0.0768733
0.0760017
0.0751123
0.0742221
0.0733481
0.0725065
0.0717125
0.0709815
0.0703305
0.0697773
0.0693246
0.0689672
0.00528349
0.00475671
0.00419881
0.00359071
0.00291133
0.00217352
0.00139437
0.00058897
-0.000228495
-0.00104437
-0.0018447
-0.00261707
-0.00335028
-0.00403345
-0.00465624
-0.00520917
-0.00568303
-0.00606941
-0.00636094
-0.00655156
-0.00663634
-0.00661114
-0.00647259
-0.00621833
-0.0058468
-0.0053569
-0.00474785
-0.00401951
-0.00317249
-0.00220808
-0.00112855
6.33392e-05
0.00136481
0.00277267
0.00428338
0.00589327
0.00759833
0.00939368
0.0112736
0.013232
0.0152632
0.0173607
0.0195187
0.0217312
0.0239921
0.0262952
0.0286332
0.0309988
0.0333849
0.0357845
0.0381904
0.0405953
0.0429917
0.0453717
0.047728
0.050054
0.0523422
0.0545847
0.0567738
0.0589022
0.0609633
0.0629509
0.0648589
0.0666806
0.0684098
0.0700412
0.0715702
0.0729919
0.0743017
0.0754961
0.0765721
0.0775274
0.0783601
0.0790689
0.0796523
0.0801095
0.0804409
0.0806484
0.0807348
0.0807026
0.0805545
0.0802946
0.0799291
0.0794659
0.0789138
0.0782821
0.0775801
0.076818
0.0760065
0.0751583
0.0742875
0.0734091
0.0725379
0.0716872
0.0708698
0.070099
0.0693904
0.0687596
0.0681916
0.0676665
0.00676217
0.00604052
0.00534278
0.00463396
0.00387554
0.00307791
0.00225593
0.00142211
0.00058809
-0.000233891
-0.0010325
-0.00179733
-0.00251815
-0.00318524
-0.0037897
-0.00432308
-0.00477714
-0.0051445
-0.00541854
-0.0055935
-0.00566505
-0.00562947
-0.00548369
-0.00522566
-0.00485371
-0.00436672
-0.0037642
-0.00304603
-0.00221286
-0.00126627
-0.000208363
0.000958372
0.00223119
0.00360712
0.005083
0.00665525
0.00831975
0.0100717
0.0119056
0.0138156
0.015796
0.017841
0.019945
0.0221021
0.0243062
0.026551
0.0288296
0.0311348
0.0334601
0.0357987
0.0381438
0.0404878
0.0428233
0.0451429
0.0474398
0.0497074
0.0519383
0.0541246
0.0562591
0.0583351
0.0603458
0.0622853
0.0641473
0.0659254
0.0676137
0.0692076
0.0707024
0.0720932
0.0733754
0.0745457
0.0756014
0.0765404
0.0773603
0.0780595
0.0786364
0.0790903
0.0794221
0.0796341
0.0797288
0.0797082
0.0795741
0.0793304
0.0789831
0.0785398
0.0780086
0.0773978
0.0767158
0.0759717
0.0751754
0.0743382
0.0734729
0.0725925
0.0717095
0.0708354
0.0699809
0.0691572
0.0683792
0.0676602
0.0669677
0.0662678
0.00829252
0.00737548
0.0065334
0.00571648
0.00487008
0.00400255
0.00312726
0.00225369
0.00139231
0.000552838
-0.000255379
-0.00102308
-0.00174165
-0.0024027
-0.00299792
-0.00351964
-0.00396108
-0.00431571
-0.00457775
-0.00474207
-0.00480447
-0.0047618
-0.00461144
-0.00435136
-0.00398002
-0.00349648
-0.00290048
-0.00219205
-0.00137169
-0.000441119
0.000597316
0.00174145
0.00298891
0.00433666
0.00578148
0.00732013
0.0089487
0.0106622
0.0124551
0.014322
0.0162577
0.0182565
0.0203127
0.0224209
0.0245748
0.0267681
0.0289941
0.031246
0.0335176
0.0358026
0.0380939
0.0403841
0.0426659
0.0449323
0.047177
0.0493933
0.0515737
0.0537107
0.0557975
0.0578276
0.0597945
0.0616918
0.0635135
0.0652535
0.0669065
0.0684678
0.0699328
0.0712965
0.0725545
0.0737037
0.0747419
0.0756667
0.0764754
0.0771656
0.0777358
0.0781859
0.0785173
0.0787324
0.0788331
0.0788204
0.0786958
0.078463
0.0781281
0.0776982
0.0771806
0.0765822
0.0759108
0.0751747
0.0743833
0.0735466
0.0726754
0.0717809
0.0708739
0.0699642
0.0690613
0.0681745
0.0673177
0.0665025
0.0656795
0.064802
0.00984526
0.00873449
0.00774652
0.0068175
0.0058763
0.00493138
0.00399407
0.00307212
0.00217377
0.001307
0.00047991
-0.000299853
-0.00102507
-0.00168839
-0.00228219
-0.00279961
-0.00323499
-0.00358277
-0.0038378
-0.00399568
-0.00405265
-0.00400606
-0.00385355
-0.00359293
-0.00322313
-0.00274371
-0.00215415
-0.00145459
-0.00064609
0.000269803
0.00129114
0.00241556
0.00364051
0.00496335
0.00638119
0.00789052
0.00948724
0.0111667
0.0129237
0.0147532
0.0166498
0.0186082
0.0206229
0.0226884
0.0247983
0.0269464
0.0291264
0.0313318
0.0335569
0.0357953
0.0380396
0.0402828
0.042518
0.0447385
0.0469379
0.0491095
0.0512461
0.0533405
0.0553864
0.0573773
0.0593064
0.0611673
0.0629543
0.0646619
0.0662849
0.0678186
0.0692582
0.0705985
0.0718355
0.0729668
0.0739901
0.0749028
0.0757013
0.0763832
0.076947
0.0773934
0.0777241
0.0779409
0.078045
0.0780367
0.0779174
0.077691
0.0773635
0.0769413
0.0764305
0.075837
0.0751678
0.074431
0.0736353
0.0727895
0.0719026
0.0709839
0.0700425
0.0690874
0.0681267
0.0671684
0.0662255
0.065308
0.064351
0.0632958
0.0113963
0.0100955
0.0089616
0.00791729
0.00687728
0.00584883
0.00484302
0.00386537
0.00292191
0.0020198
0.00116568
0.000365704
-0.000373685
-0.00104604
-0.00164497
-0.00216456
-0.00259967
-0.00294576
-0.00319829
-0.00335354
-0.00340846
-0.00336057
-0.00320783
-0.00294837
-0.00258111
-0.00210596
-0.00152285
-0.000831771
-3.3693e-05
0.000869472
0.00187562
0.00298273
0.00418844
0.00548997
0.00688434
0.0083681
0.0099373
0.0115874
0.0133135
0.0151106
0.0169737
0.0188974
0.0208766
0.0229052
0.024977
0.0270861
0.0292264
0.0313922
0.0335776
0.0357758
0.0379798
0.0401828
0.0423783
0.0445597
0.0467205
0.0488541
0.0509535
0.053012
0.0550236
0.0569816
0.0588789
0.0607093
0.0624673
0.0641481
0.0657465
0.0672574
0.0686755
0.069996
0.0712157
0.0723323
0.0733435
0.0742457
0.0750352
0.0757095
0.076268
0.0767114
0.0770411
0.0772581
0.077363
0.0773559
0.0772386
0.0770149
0.0766903
0.0762704
0.07576
0.0751645
0.0744904
0.0737453
0.0729373
0.0720739
0.0711625
0.0702108
0.0692266
0.0682179
0.067192
0.0661555
0.0651204
0.0640961
0.0630036
0.0617725
0.0129249
0.0114388
0.0101595
0.00899878
0.00785704
0.00674101
0.00566142
0.00462182
0.00362699
0.00268271
0.00179446
0.000967551
0.000207516
-0.00047999
-0.00108968
-0.00161665
-0.00205653
-0.00240544
-0.00265944
-0.0028154
-0.00287132
-0.00282471
-0.00267318
-0.00241583
-0.00205233
-0.00158205
-0.00100475
-0.00032115
0.000467457
0.00135945
0.00235288
0.00344553
0.00463492
0.00591829
0.00729271
0.00875484
0.0103008
0.0119261
0.013626
0.0153958
0.0172307
0.0191254
0.0210744
0.0230716
0.0251111
0.0271871
0.0292943
0.0314269
0.0335788
0.0357433
0.0379135
0.040083
0.0422456
0.0443945
0.0465232
0.0486252
0.050694
0.0527235
0.0547072
0.0566382
0.0585094
0.060315
0.0620501
0.0637099
0.0652888
0.0667812
0.0681818
0.0694866
0.0706927
0.071798
0.0727995
0.073693
0.0744747
0.0751429
0.0756972
0.0761382
0.0764664
0.076682
0.0767853
0.0767771
0.0766591
0.076435
0.0761094
0.0756866
0.0751708
0.0745671
0.0738817
0.0731218
0.0722944
0.0714059
0.0704624
0.0694702
0.0684361
0.0673672
0.0662699
0.0651496
0.0640179
0.0628841
0.0616555
0.0602511
0.0144131
0.0127461
0.0113234
0.010046
0.0088005
0.00759415
0.00643672
0.0053307
0.00427945
0.0032874
0.0023593
0.00149983
0.000713686
5.69612e-06
-0.000619864
-0.00115896
-0.00160772
-0.00196289
-0.00222201
-0.00238235
-0.00244142
-0.00239748
-0.00224916
-0.0019955
-0.00163595
-0.00117023
-0.000598582
7.81574e-05
0.000858776
0.00174165
0.00272466
0.00380539
0.00498134
0.00624983
0.00760793
0.00905224
0.0105789
0.0121838
0.0138624
0.01561
0.0174219
0.0192927
0.0212166
0.0231879
0.0252007
0.0272498
0.0293301
0.0314355
0.0335599
0.0356968
0.0378397
0.0399825
0.0421188
0.0442415
0.0463442
0.0484211
0.0504662
0.0524731
0.0544349
0.0563446
0.0581955
0.0599824
0.0617006
0.0633448
0.0649089
0.0663871
0.0677747
0.069068
0.0702644
0.0713614
0.0723554
0.0732421
0.0740181
0.0746819
0.0752333
0.0756721
0.0759979
0.0762107
0.076311
0.0762997
0.0761789
0.0759516
0.0756212
0.0751909
0.0746645
0.074047
0.0733447
0.0725641
0.0717113
0.0707912
0.0698088
0.0687696
0.0676797
0.0665452
0.0653716
0.0641633
0.0629319
0.0616866
0.0603222
0.0587472
0.0158447
0.0140022
0.0124387
0.0110444
0.00969448
0.00839536
0.00715718
0.00598127
0.00486936
0.00382514
0.00285288
0.00195652
0.00113966
0.000406226
-0.000239504
-0.000794238
-0.00125562
-0.00162105
-0.00188809
-0.00205485
-0.00211936
-0.00208015
-0.00193628
-0.00168697
-0.00133167
-0.000870468
-0.000303965
0.000366993
0.00114124
0.00201695
0.00299171
0.00406307
0.00522853
0.00648539
0.00783067
0.00926095
0.0107725
0.0123614
0.0140232
0.0157536
0.0175475
0.0193993
0.0213033
0.0232538
0.0252458
0.0272741
0.0293333
0.0314174
0.0335202
0.0356358
0.037758
0.0398804
0.0419963
0.0440988
0.046182
0.0482406
0.0502685
0.0522588
0.0542044
0.0560985
0.0579352
0.0597094
0.0614162
0.0630497
0.0646035
0.0660722
0.0674516
0.0687381
0.0699286
0.0710201
0.0720089
0.0728911
0.0736637
0.0743251
0.0748745
0.0753111
0.075634
0.0758433
0.0759396
0.0759241
0.0757986
0.0755651
0.0752262
0.0747845
0.0742432
0.0736073
0.0728831
0.0720767
0.0711928
0.0702354
0.0692084
0.0681167
0.066966
0.0657615
0.0645076
0.0632082
0.0618748
0.0605171
0.0590175
0.0572747
0.0172065
0.0151943
0.0134925
0.0119826
0.0105275
0.00913418
0.00781274
0.00656344
0.00538751
0.00428808
0.00326806
0.00233054
0.00147921
0.000717189
4.7514e-05
-0.000526845
-0.00100384
-0.00138221
-0.00166004
-0.00183535
-0.00190691
-0.00187398
-0.00173569
-0.00149116
-0.00114018
-0.00068327
-0.000121188
0.000545255
0.00131477
0.00218522
0.00315398
0.00421854
0.00537642
0.00662488
0.00796083
0.00938085
0.0108813
0.0124587
0.0141086
0.0158265
0.0176072
0.0194448
0.0213339
0.0232694
0.0252464
0.0272595
0.0293032
0.0313715
0.033459
0.0355598
0.0376675
0.0397754
0.0418768
0.0439654
0.0460358
0.0480824
0.050099
0.0520783
0.0540135
0.0558982
0.0577267
0.0594939
0.0611945
0.062822
0.0643704
0.0658345
0.0672105
0.0684945
0.0696829
0.0707721
0.0717586
0.072639
0.0734105
0.0740712
0.0746196
0.0750542
0.0753742
0.0755798
0.0756719
0.0756514
0.0755193
0.075277
0.0749264
0.0744697
0.07391
0.0732522
0.072502
0.0716649
0.0707449
0.069745
0.0686685
0.0675198
0.0663041
0.0650259
0.0636887
0.0622957
0.0608589
0.059388
0.057754
0.0558462
0.0184887
0.0163107
0.0144737
0.0128496
0.0112895
0.00980092
0.00839407
0.00706925
0.00582661
0.00466825
0.00359733
0.00261597
0.00172664
0.000932517
0.000236201
-0.000360562
-0.000856434
-0.00125027
-0.00154071
-0.00172641
-0.0018068
-0.00178141
-0.00164924
-0.00140964
-0.00106295
-0.000609997
-5.14073e-05
0.000611964
0.00137842
0.00224546
0.00321041
0.00427083
0.00542419
0.00666749
0.00799752
0.00941103
0.0109048
0.0124752
0.0141179
0.0158278
0.0175997
0.0194281
0.021308
0.0232342
0.0252017
0.027205
0.0292388
0.0312975
0.0333759
0.0354679
0.0375669
0.0396661
0.0417592
0.0438404
0.0459043
0.0479451
0.049956
0.0519302
0.053861
0.0557423
0.0575685
0.059334
0.0610331
0.0626597
0.0642078
0.0656725
0.0670498
0.0683354
0.0695253
0.0706159
0.0716035
0.0724851
0.0732579
0.0739195
0.074468
0.0749015
0.0752193
0.0754216
0.0755093
0.075483
0.0753428
0.0750895
0.0747245
0.07425
0.0736691
0.0729863
0.0722066
0.0713347
0.070374
0.0693272
0.0681969
0.0669874
0.0657032
0.0643483
0.0629252
0.0614364
0.0598947
0.0583102
0.056543
0.0544727
0.019682
0.0173424
0.0153726
0.0136348
0.0119698
0.0103858
0.00889252
0.00748987
0.00617837
0.00495904
0.00383403
0.00280567
0.00187592
0.00104712
0.000321168
-0.000300717
-0.000817747
-0.00122898
-0.00153373
-0.00173165
-0.00182237
-0.00180515
-0.00167927
-0.00144478
-0.00110236
-0.000652657
-9.62658e-05
0.000565496
0.00133041
0.00219588
0.00315943
0.00421856
0.00537037
0.00661161
0.00793925
0.00935036
0.0108418
0.0124098
0.0140496
0.015756
0.017524
0.0193486
0.0212248
0.0231472
0.0251105
0.0271096
0.0291395
0.0311948
0.0332701
0.0353592
0.0374553
0.0395519
0.0416431
0.0437232
0.0457866
0.0478273
0.0498386
0.0518135
0.053746
0.0556299
0.0574592
0.0592281
0.0609308
0.0625616
0.0641146
0.065585
0.0669682
0.0682597
0.069455
0.0705505
0.0715429
0.0724288
0.0732053
0.0738698
0.0744199
0.0748537
0.0751703
0.0753699
0.0754533
0.0754203
0.0752707
0.0750046
0.0746233
0.0741289
0.0735245
0.072814
0.0720018
0.0710915
0.0700863
0.0689885
0.0678009
0.0665273
0.0651716
0.0637372
0.0622259
0.0606396
0.0589916
0.0572933
0.0553937
0.0531633
0.0207795
0.0182813
0.01618
0.0143298
0.0125597
0.0108791
0.00929881
0.00781732
0.00643467
0.0051522
0.0039712
0.00289347
0.00192084
0.00105487
0.000296813
-0.000352424
-0.000892287
-0.00132265
-0.00164365
-0.00185525
-0.00195693
-0.00194815
-0.00182891
-0.00159969
-0.00126099
-0.000813368
-0.000257919
0.000403445
0.00116839
0.00203453
0.0029993
0.00405982
0.00521288
0.00645536
0.00778453
0.00919753
0.0106909
0.0122606
0.0139017
0.0156094
0.0173789
0.0192051
0.0210829
0.0230068
0.0249716
0.0269724
0.0290044
0.0310624
0.0331405
0.0352325
0.0373318
0.0394321
0.0415278
0.043613
0.0456819
0.0477284
0.0497459
0.0517279
0.0536681
0.0555602
0.057398
0.0591755
0.0608871
0.0625271
0.0640902
0.0655711
0.0669649
0.0682664
0.0694711
0.0705755
0.071576
0.0724694
0.0732522
0.0739218
0.0744755
0.0749112
0.075228
0.0754257
0.0755046
0.0754644
0.0753043
0.0750243
0.0746255
0.0741098
0.07348
0.0727395
0.0718919
0.0709404
0.0698875
0.0687357
0.0674878
0.066147
0.0647169
0.0632005
0.0615988
0.0599134
0.0581583
0.0563458
0.0543144
0.0519257
0.0217741
0.0191195
0.0168883
0.0149259
0.0130509
0.0112732
0.00960446
0.008043
0.00658786
0.00524024
0.00400146
0.00287261
0.00185489
0.000949423
0.00015742
-0.000520699
-0.00108511
-0.00153647
-0.00187518
-0.00210109
-0.002214
-0.00221408
-0.00210176
-0.00187737
-0.00154134
-0.00109467
-0.000539126
0.000123218
0.000890209
0.00175942
0.00272789
0.00379237
0.0049497
0.00619707
0.00753182
0.00895076
0.0104501
0.0120255
0.0136725
0.0153865
0.0171628
0.018996
0.0208807
0.0228116
0.0247836
0.0267922
0.0288324
0.0308989
0.0329858
0.0350868
0.0371956
0.0393061
0.0414125
0.0435089
0.0455892
0.0476475
0.0496775
0.0516725
0.0536264
0.0555325
0.0573843
0.0591758
0.0609015
0.0625561
0.0641341
0.0656302
0.0670389
0.0683548
0.069573
0.07069
0.0717023
0.0726062
0.0733983
0.0740754
0.0746349
0.0750744
0.0753928
0.0755895
0.0756644
0.0756167
0.0754456
0.0751511
0.074734
0.074196
0.0735393
0.0727668
0.0718816
0.0708864
0.0697836
0.0685754
0.0672645
0.0658539
0.0643469
0.062746
0.0610521
0.0592661
0.057403
0.055476
0.053313
0.0507671
0.0226577
0.0198489
0.0174893
0.0154152
0.0134352
0.01156
0.00980182
0.00815891
0.00663004
0.00521592
0.00391765
0.00273584
0.0016712
0.000724738
-0.000102698
-0.000811251
-0.0014019
-0.00187556
-0.0022326
-0.00247315
-0.00259768
-0.00260689
-0.00250111
-0.00228058
-0.00194615
-0.0014995
-0.000942654
-0.000277532
0.000493731
0.00136833
0.0023429
0.00341413
0.00457914
0.00583522
0.00717939
0.00860805
0.0101172
0.0117028
0.0133606
0.015086
0.0168742
0.0187196
0.0206166
0.0225601
0.0245453
0.0265675
0.0286219
0.0307029
0.0328045
0.0349209
0.0370456
0.0391726
0.0412961
0.0434098
0.0455077
0.0475839
0.0496324
0.0516467
0.0536201
0.0555459
0.0574173
0.0592284
0.0609738
0.0626482
0.0642461
0.065762
0.06719
0.0685243
0.0697602
0.0708937
0.0719213
0.0728392
0.0736436
0.0743311
0.0748986
0.0753438
0.0756653
0.0758623
0.075934
0.0758793
0.0756973
0.075388
0.0749522
0.0743911
0.0737065
0.0729006
0.0719761
0.0709355
0.0697808
0.0685142
0.067138
0.0656554
0.0640693
0.0623819
0.0605938
0.0587059
0.0567338
0.0546916
0.0523971
0.0496947
0.0234235
0.0204618
0.0179741
0.0157891
0.0137042
0.011731
0.00988261
0.00815728
0.00655352
0.00507165
0.00371233
0.00247608
0.00136328
0.000374668
-0.000489586
-0.00123008
-0.00184809
-0.00234458
-0.00272019
-0.0029757
-0.00311213
-0.00313012
-0.00302993
-0.0028122
-0.00247848
-0.0020308
-0.00147103
-0.000801029
-2.32781e-05
0.000858944
0.00184217
0.00292334
0.00409968
0.00536819
0.0067254
0.00816745
0.00969055
0.0112909
0.0129645
0.0147065
0.0165116
0.0183743
0.020289
0.0222508
0.024255
0.0262968
0.0283713
0.0304727
0.0325954
0.0347334
0.0368805
0.0390305
0.0411772
0.0433143
0.045436
0.0475366
0.0496099
0.0516496
0.0536486
0.0555998
0.0574965
0.0593327
0.0611034
0.0628031
0.0644261
0.0659664
0.067418
0.0687751
0.0700326
0.0711866
0.0722334
0.0731688
0.0739887
0.0746892
0.0752673
0.0757204
0.0760469
0.0762456
0.0763153
0.0762546
0.0760624
0.0757385
0.0752837
0.074699
0.0739856
0.0731453
0.0721805
0.0710931
0.069885
0.0685579
0.0671146
0.0655581
0.063891
0.0621152
0.0602312
0.0582399
0.0561576
0.0539995
0.0515734
0.0487147
0.0240649
0.0209511
0.0183357
0.0160395
0.0138497
0.011778
0.00983877
0.00803019
0.00635049
0.00479973
0.00337825
0.00208649
0.000924652
-0.000107229
-0.00100947
-0.00178285
-0.00242861
-0.00294806
-0.00334248
-0.00361317
-0.00376114
-0.00378695
-0.00369126
-0.00347546
-0.00314151
-0.00269132
-0.0021266
-0.00144955
-0.000663196
0.000229004
0.00122385
0.00231848
0.00350981
0.00479426
0.00616801
0.00762733
0.00916878
0.0107888
0.012483
0.0142464
0.0160735
0.0179585
0.0198964
0.0218823
0.0239113
0.0259786
0.0280788
0.0302067
0.0323567
0.0345229
0.0366989
0.0388782
0.0410545
0.0432213
0.0453731
0.0475043
0.049609
0.0516803
0.0537109
0.0556935
0.0576213
0.0594887
0.0612903
0.0630208
0.0646739
0.0662434
0.0677231
0.0691073
0.0703909
0.0715697
0.0726395
0.0735958
0.0744342
0.0751506
0.0757419
0.0762054
0.0765391
0.0767415
0.0768108
0.0767453
0.0765437
0.0762057
0.075732
0.0751234
0.0743808
0.0735056
0.0724994
0.0713641
0.070101
0.0687119
0.0671999
0.0655678
0.063818
0.0619522
0.0599705
0.0578741
0.0556804
0.0534056
0.0508472
0.047832
0.0245756
0.0213101
0.0185671
0.0161589
0.0138635
0.0116931
0.0096624
0.00776966
0.0060131
0.00439261
0.00290837
0.00156037
0.000348565
-0.000727532
-0.00166834
-0.0024748
-0.00314836
-0.00369093
-0.00410428
-0.00438972
-0.0045482
-0.0045807
-0.00448868
-0.00427397
-0.00393839
-0.00348367
-0.00291185
-0.00222572
-0.00142855
-0.000523545
0.000486353
0.00159802
0.00280774
0.00411145
0.00550541
0.00698626
0.00855077
0.0101952
0.0119147
0.0137042
0.015558
0.0174708
0.0194375
0.0214532
0.0235126
0.0256108
0.0277427
0.0299032
0.0320868
0.0342877
0.036499
0.038714
0.0409261
0.0431291
0.0453176
0.047486
0.0496283
0.0517372
0.0538055
0.0558256
0.0577909
0.0596955
0.0615341
0.0633007
0.0649891
0.0665927
0.0681053
0.0695213
0.0708356
0.0720435
0.0731402
0.0741209
0.0749809
0.0757163
0.0763239
0.0768006
0.0771441
0.0773523
0.077423
0.0773541
0.0771443
0.076793
0.0763008
0.0756685
0.0748967
0.0739861
0.0729378
0.0717533
0.070434
0.0689818
0.0673996
0.0656905
0.0638564
0.0618986
0.0598175
0.0576145
0.0553082
0.0529158
0.0502241
0.0470513
0.024949
0.0215313
0.0186605
0.01614
0.0137382
0.0114684
0.00934551
0.00736789
0.00553382
0.00384309
0.00229555
0.000890698
-0.000371851
-0.00149252
-0.00247194
-0.00331139
-0.00401285
-0.00457856
-0.00501031
-0.00530941
-0.00547725
-0.0055156
-0.00542639
-0.00521134
-0.00487211
-0.00441072
-0.00382984
-0.00313253
-0.00232181
-0.0014006
-0.000372063
0.000759969
0.00199123
0.00331767
0.00473595
0.00624295
0.00783522
0.00950852
0.0112578
0.0130779
0.0149635
0.0169095
0.0189106
0.0209615
0.0230567
0.0251915
0.027361
0.0295603
0.031784
0.0340258
0.0362786
0.0385354
0.0407896
0.0430355
0.0452673
0.0474796
0.0496657
0.0518185
0.0539305
0.0559945
0.0580036
0.0599518
0.0618333
0.0636418
0.0653707
0.0670136
0.0685644
0.0700174
0.0713672
0.0726087
0.0737364
0.0747452
0.0756303
0.0763881
0.0770152
0.0775084
0.0778646
0.078081
0.078155
0.0780844
0.0778678
0.0775046
0.0769951
0.0763397
0.0755387
0.0745923
0.0735012
0.0722666
0.0708902
0.0693741
0.0677209
0.0659331
0.0640128
0.0619612
0.059779
0.057468
0.0550479
0.0525366
0.0497101
0.0463778
0.025179
0.0216078
0.0186084
0.0159752
0.0134662
0.0110959
0.00888039
0.00681749
0.00490541
0.00314388
0.00153241
7.02746e-05
-0.00124318
-0.00240839
-0.00342638
-0.00429883
-0.00502803
-0.00561624
-0.00606527
-0.0063769
-0.00655326
-0.00659655
-0.00650865
-0.0062912
-0.00594615
-0.00547616
-0.00488418
-0.00417302
-0.00334539
-0.00240438
-0.00135392
-0.000198467
0.00105767
0.00241087
0.00385805
0.0053958
0.00702015
0.00872656
0.01051
0.0123656
0.0142884
0.016273
0.0183137
0.0204049
0.0225414
0.0247185
0.0269317
0.029176
0.0314459
0.0337345
0.0360348
0.0383397
0.0406427
0.042938
0.0452199
0.0474824
0.0497187
0.0519216
0.0540837
0.056198
0.0582574
0.0602555
0.062186
0.0640421
0.0658173
0.0675053
0.0691
0.0705955
0.0719859
0.0732655
0.0744285
0.0754696
0.076384
0.0771682
0.0778186
0.0783316
0.0787034
0.0789307
0.0790103
0.07894
0.0787185
0.0783451
0.0778198
0.0771424
0.0763125
0.07533
0.0741954
0.0729103
0.0714765
0.069896
0.0681707
0.0663028
0.0642944
0.0621472
0.0598623
0.0574419
0.0549065
0.0522745
0.0493113
0.0458168
0.0252597
0.0215329
0.0184036
0.015657
0.01304
0.0105685
0.00825969
0.00611103
0.00412041
0.00228747
0.000611663
-0.000907935
-0.00227221
-0.00348196
-0.0045385
-0.00544371
-0.00619993
-0.0068095
-0.00727469
-0.00759796
-0.00778184
-0.00782853
-0.00773986
-0.00751783
-0.00716502
-0.0066844
-0.00607867
-0.0053503
-0.00450218
-0.00353816
-0.00246282
-0.00128068
4.32981e-06
0.00138886
0.00286955
0.00444235
0.00610288
0.00784668
0.00966914
0.0115656
0.0135308
0.0155591
0.0176445
0.0197814
0.0219646
0.02419
0.0264529
0.0287482
0.03107
0.0334113
0.0357651
0.0381245
0.040483
0.0428344
0.0451728
0.0474917
0.0497845
0.0520439
0.0542628
0.0564341
0.0585503
0.0606045
0.0625898
0.0644996
0.0663274
0.0680667
0.0697115
0.0712552
0.0726915
0.0740141
0.0752171
0.0762953
0.0772439
0.078059
0.0787368
0.079273
0.0796635
0.0799044
0.0799924
0.0799251
0.0797011
0.0793196
0.0787801
0.0780814
0.077223
0.0762045
0.0750268
0.0736914
0.0722001
0.0705544
0.0687559
0.0668064
0.0647084
0.062464
0.0600749
0.0575432
0.0548904
0.0521356
0.049033
0.0453735
0.0251849
0.0213
0.018039
0.0151779
0.0124524
0.00987901
0.00747591
0.00524075
0.00317112
0.00126635
-0.00047406
-0.00205129
-0.00346644
-0.00472069
-0.00581541
-0.00675263
-0.00753482
-0.00816471
-0.00864515
-0.00897897
-0.00916876
-0.00921674
-0.00912515
-0.00889662
-0.00853403
-0.00804011
-0.00741724
-0.0066681
-0.0057963
-0.00480637
-0.00370295
-0.00249017
-0.00117168
0.000248839
0.00176733
0.00337926
0.00508022
0.0068662
0.00873286
0.0106754
0.0126882
0.0147651
0.0169004
0.0190884
0.0213245
0.0236041
0.0259227
0.0282746
0.0306539
0.0330538
0.0354674
0.0378878
0.0403083
0.0427223
0.0451233
0.047505
0.0498606
0.0521832
0.0544658
0.0567006
0.0588799
0.0609964
0.0630429
0.0650128
0.0668995
0.0686968
0.0703979
0.0719958
0.0734835
0.0748545
0.076103
0.0772236
0.0782117
0.0790628
0.0797722
0.0803354
0.0807478
0.0810054
0.0811049
0.0810438
0.0808203
0.080433
0.0798807
0.0791619
0.0782756
0.0772218
0.0760017
0.0746166
0.0730678
0.0713563
0.0694834
0.067451
0.065262
0.0629191
0.060424
0.057779
0.0550063
0.0521259
0.0488807
0.0450527
0.0249479
0.0209028
0.0175081
0.0145311
0.0116959
0.00901965
0.00652132