/*--------------------------------*- C++ -*----------------------------------*\
  =========                 |
  \\      /  F ield         | OpenFOAM: The Open Source CFD Toolbox
   \\    /   O peration     | Website:  https://openfoam.org
    \\  /    A nd           | Version:  11
     \\/     M anipulation  |
\*---------------------------------------------------------------------------*/
FoamFile
{
    format      ascii;
    class       surfaceScalarField;
    location    "4.3";
    object      phi;
}
// * * * * * * * * * * * * * * * * * * * * * * * * * * * * * * * * * * * * * //

dimensions      [0 3 -1 0 0 0 0];

internalField   nonuniform List<scalar> 
19980
(
6.28066e-07
-6.28352e-07
1.99466e-06
-1.36652e-06
3.33741e-06
-1.34294e-06
4.24774e-06
-9.10305e-07
4.50512e-06
-2.57422e-07
3.98566e-06
5.196e-07
2.62161e-06
1.364e-06
3.88317e-07
2.23337e-06
-2.71406e-06
3.10234e-06
-6.66631e-06
3.95238e-06
-1.14366e-05
4.77012e-06
-1.69827e-05
5.54606e-06
-2.32562e-05
6.27343e-06
-3.02053e-05
6.94919e-06
-3.77752e-05
7.56983e-06
-4.59091e-05
8.1339e-06
-5.45499e-05
8.64076e-06
-6.36389e-05
9.08886e-06
-7.31166e-05
9.47771e-06
-8.29243e-05
9.80775e-06
-9.3003e-05
1.00788e-05
-0.000103295
1.02924e-05
-0.000113746
1.04509e-05
-0.000124301
1.05545e-05
-0.000134906
1.06054e-05
-0.000145511
1.06056e-05
-0.000156067
1.0556e-05
-0.000166526
1.0459e-05
-0.000176843
1.0317e-05
-0.000186976
1.01323e-05
-0.000196883
9.90692e-06
-0.000206525
9.64281e-06
-0.000215867
9.34179e-06
-0.000224873
9.00558e-06
-0.000233509
8.63649e-06
-0.000241746
8.23658e-06
-0.000249554
7.80756e-06
-0.000256905
7.35117e-06
-0.000263774
6.86923e-06
-0.000270138
6.36375e-06
-0.000275974
5.8366e-06
-0.000281264
5.28957e-06
-0.000285988
4.72461e-06
-0.000290132
4.14384e-06
-0.000293681
3.54922e-06
-0.000296624
2.94224e-06
-0.000298948
2.32454e-06
-0.000300646
1.69787e-06
-0.00030171
1.06391e-06
-0.000302135
4.24937e-07
-0.000301918
-2.16769e-07
-0.000301059
-8.59406e-07
-0.000299558
-1.5007e-06
-0.00029742
-2.13821e-06
-0.00029465
-2.77039e-06
-0.000291254
-3.39565e-06
-0.000287243
-4.01147e-06
-0.000282627
-4.61551e-06
-0.000277421
-5.20598e-06
-0.000271641
-5.78057e-06
-0.000265304
-6.33646e-06
-0.000258433
-6.8713e-06
-0.00025105
-7.38284e-06
-0.000243182
-7.86833e-06
-0.000234856
-8.32525e-06
-0.000226104
-8.75199e-06
-0.000216958
-9.14681e-06
-0.00020745
-9.5071e-06
-0.00019762
-9.83025e-06
-0.000187506
-1.01143e-05
-0.000177149
-1.03571e-05
-0.000166593
-1.0556e-05
-0.000155885
-1.07083e-05
-0.000145072
-1.08122e-05
-0.000134207
-1.08659e-05
-0.000123339
-1.08672e-05
-0.000112526
-1.08136e-05
-0.000101823
-1.07033e-05
-9.12884e-05
-1.05343e-05
-8.09833e-05
-1.03051e-05
-7.09685e-05
-1.00147e-05
-6.13061e-05
-9.66241e-06
-5.20583e-05
-9.24778e-06
-4.32879e-05
-8.77045e-06
-3.50574e-05
-8.2305e-06
-2.74287e-05
-7.62881e-06
-2.04616e-05
-6.96718e-06
-1.42133e-05
-6.24825e-06
-8.73806e-06
-5.47518e-06
-4.08577e-06
-4.65229e-06
-2.99731e-07
-3.7861e-06
2.58645e-06
-2.88624e-06
4.55314e-06
-1.96669e-06
5.60122e-06
-1.04808e-06
5.7625e-06
-1.61258e-07
5.11732e-06
6.45198e-07
3.82317e-06
1.29415e-06
2.16333e-06
1.65983e-06
6.37259e-07
1.52599e-06
6.37202e-07
1.5829e-06
-2.21114e-06
4.0856e-06
-3.86928e-06
6.18122e-06
-3.43836e-06
7.09753e-06
-1.82658e-06
6.32267e-06
5.17213e-07
3.51745e-06
3.32474e-06
-1.51025e-06
6.39183e-06
-8.85551e-06
9.57854e-06
-1.8534e-05
1.27809e-05
-3.05103e-05
1.59287e-05
-4.47082e-05
1.89682e-05
-6.10237e-05
2.18615e-05
-7.9333e-05
2.45828e-05
-9.94973e-05
2.71133e-05
-0.000121368
2.94405e-05
-0.000144791
3.15568e-05
-0.000169606
3.34563e-05
-0.000195653
3.51358e-05
-0.00022277
3.65943e-05
-0.000250794
3.78317e-05
-0.000279566
3.88502e-05
-0.000308927
3.96541e-05
-0.000338724
4.02475e-05
-0.000368805
4.06355e-05
-0.000399024
4.08245e-05
-0.000429239
4.08202e-05
-0.000459312
4.06286e-05
-0.00048911
4.02575e-05
-0.000518508
3.97146e-05
-0.000547383
3.90071e-05
-0.000575618
3.81427e-05
-0.000603105
3.71291e-05
-0.000629736
3.59734e-05
-0.000655413
3.46825e-05
-0.000680041
3.3264e-05
-0.00070353
3.17256e-05
-0.000725796
3.0074e-05
-0.000746761
2.83165e-05
-0.000766353
2.64602e-05
-0.000784502
2.45127e-05
-0.000801146
2.24811e-05
-0.000816229
2.03727e-05
-0.000829699
1.81948e-05
-0.00084151
1.59547e-05
-0.000851621
1.36599e-05
-0.000859996
1.13171e-05
-0.000866604
8.93318e-06
-0.000871422
6.51549e-06
-0.000874429
4.07149e-06
-0.000875613
1.60867e-06
-0.000874965
-8.64826e-07
-0.000872484
-3.34082e-06
-0.000868173
-5.81147e-06
-0.000862043
-8.26875e-06
-0.000854108
-1.07047e-05
-0.000844392
-1.31115e-05
-0.000832923
-1.5481e-05
-0.000819733
-1.78047e-05
-0.000804866
-2.00739e-05
-0.000788366
-2.22801e-05
-0.000770288
-2.4414e-05
-0.000750693
-2.64662e-05
-0.000729649
-2.84275e-05
-0.000707228
-3.02889e-05
-0.000683511
-3.20418e-05
-0.000658586
-3.36774e-05
-0.000632545
-3.51873e-05
-0.000605489
-3.65629e-05
-0.000577524
-3.77957e-05
-0.000548761
-3.88768e-05
-0.000519321
-3.97974e-05
-0.000489328
-4.05488e-05
-0.000458914
-4.11226e-05
-0.000428215
-4.15108e-05
-0.000397375
-4.1706e-05
-0.000366541
-4.1701e-05
-0.000335866
-4.14888e-05
-0.000305507
-4.10625e-05
-0.000275625
-4.04163e-05
-0.000246385
-3.95453e-05
-0.000217953
-3.84461e-05
-0.000190499
-3.71165e-05
-0.000164192
-3.55555e-05
-0.000139199
-3.37632e-05
-0.000115687
-3.17418e-05
-9.38201e-05
-2.9496e-05
-7.37541e-05
-2.70333e-05
-5.56378e-05
-2.43646e-05
-3.96081e-05
-2.15048e-05
-2.5786e-05
-1.84744e-05
-1.42697e-05
-1.53024e-05
-5.127e-06
-1.20289e-05
1.61664e-06
-8.71031e-06
5.99476e-06
-5.42611e-06
8.12336e-06
-2.28981e-06
8.23409e-06
5.34484e-07
6.71991e-06
2.80833e-06
4.1912e-06
4.18853e-06
1.53204e-06
4.18517e-06
2.16924e-06
1.81941e-06
-4.03073e-06
4.32134e-06
-6.37115e-06
5.84036e-06
-4.95763e-06
5.40996e-06
-1.39595e-06
2.34607e-06
3.58124e-06
-3.81384e-06
9.48484e-06
-1.33572e-05
1.59351e-05
-2.64285e-05
2.26497e-05
-4.30667e-05
2.94191e-05
-6.3227e-05
3.60889e-05
-8.68053e-05
4.25466e-05
-0.000113652
4.87079e-05
-0.000143582
5.45129e-05
-0.000176388
5.99193e-05
-0.000211844
6.48971e-05
-0.000249713
6.94252e-05
-0.000289748
7.34918e-05
-0.0003317
7.70882e-05
-0.000375318
8.02114e-05
-0.000420349
8.28628e-05
-0.000466544
8.50455e-05
-0.000513657
8.6767e-05
-0.000561446
8.80364e-05
-0.000609674
8.8864e-05
-0.000658111
8.92614e-05
-0.000706532
8.92415e-05
-0.000754722
8.88179e-05
-0.000802469
8.80052e-05
-0.000849574
8.68187e-05
-0.000895841
8.52742e-05
-0.000941085
8.33875e-05
-0.000985131
8.11743e-05
-0.00102781
7.86499e-05
-0.00106895
7.58303e-05
-0.00110842
7.27312e-05
-0.00114607
6.93686e-05
-0.00118175
6.57581e-05
-0.00121535
6.19153e-05
-0.00124674
5.78562e-05
-0.00127583
5.35966e-05
-0.0013025
4.91524e-05
-0.00132667
4.45393e-05
-0.00134824
3.97735e-05
-0.00136716
3.48711e-05
-0.00138335
2.98477e-05
-0.00139675
2.47192e-05
-0.00140732
1.95016e-05
-0.00141501
1.42107e-05
-0.00141981
8.86302e-06
-0.00142167
3.47547e-06
-0.0014206
-1.93477e-06
-0.00141659
-7.35038e-06
-0.00140965
-1.27537e-05
-0.00139979
-1.81272e-05
-0.00138704
-2.34534e-05
-0.00137144
-2.87144e-05
-0.00135303
-3.38919e-05
-0.00133187
-3.89675e-05
-0.00130802
-4.39226e-05
-0.00128156
-4.87379e-05
-0.00125258
-5.33936e-05
-0.00122118
-5.78701e-05
-0.00118746
-6.21477e-05
-0.00115154
-6.62068e-05
-0.00111355
-7.00278e-05
-0.00107364
-7.35921e-05
-0.00103195
-7.68805e-05
-0.000988635
-7.98739e-05
-0.000943877
-8.25536e-05
-0.000897852
-8.49009e-05
-0.000850753
-8.68974e-05
-0.000802777
-8.85246e-05
-0.000754134
-8.97649e-05
-0.000705043
-9.0602e-05
-0.000655729
-9.10201e-05
-0.000606426
-9.10042e-05
-0.000557374
-9.05404e-05
-0.000508821
-8.96157e-05
-0.000461018
-8.82191e-05
-0.000414222
-8.63418e-05
-0.000368691
-8.39772e-05
-0.000324686
-8.11216e-05
-0.000282467
-7.7774e-05
-0.000242294
-7.39367e-05
-0.000204419
-6.96166e-05
-0.000169089
-6.48256e-05
-0.000136541
-5.9582e-05
-0.000106993
-5.39117e-05
-8.06477e-05
-4.78506e-05
-5.76751e-05
-4.14471e-05
-3.821e-05
-3.47676e-05
-2.23374e-05
-2.79015e-05
-1.00768e-05
-2.09708e-05
-1.36071e-06
-1.41422e-05
3.99358e-06
-7.64417e-06
6.31967e-06
-1.79162e-06
6.14601e-06
2.98198e-06
4.24451e-06
6.08998e-06
1.68365e-06
6.74609e-06
3.85289e-06
1.47216e-06
-5.50281e-06
3.00081e-06
-7.89981e-06
2.82418e-06
-4.78079e-06
-1.05568e-07
1.5337e-06
-6.54016e-06
1.00157e-05
-1.70039e-05
1.99488e-05
-3.18338e-05
3.0765e-05
-5.12069e-05
4.2023e-05
-7.5176e-05
5.33881e-05
-0.000103695
6.46075e-05
-0.000136639
7.54906e-05
-0.000173825
8.58941e-05
-0.000215025
9.57132e-05
-0.000259977
0.000104871
-0.000308392
0.000113312
-0.000359967
0.000121
-0.000414382
0.000127907
-0.000471313
0.000134019
-0.000530432
0.00013933
-0.000591408
0.000143839
-0.000653914
0.000147551
-0.000717624
0.000150477
-0.000782218
0.000152631
-0.000847383
0.000154029
-0.000912813
0.000154691
-0.000978208
0.000154637
-0.00104328
0.00015389
-0.00110775
0.000152474
-0.00117134
0.000150414
-0.00123381
0.000147736
-0.00129489
0.000144467
-0.00135434
0.000140632
-0.00141195
0.00013626
-0.0014675
0.000131375
-0.00152077
0.000126007
-0.00157159
0.000120181
-0.00161975
0.000113925
-0.0016651
0.000107266
-0.00170748
0.000100232
-0.00174673
9.28494e-05
-0.00178273
8.51464e-05
-0.00181534
7.71503e-05
-0.00184445
6.88887e-05
-0.00186997
6.03893e-05
-0.0018918
5.16801e-05
-0.00190987
4.27885e-05
-0.00192411
3.37427e-05
-0.00193447
2.45711e-05
-0.00194091
1.53022e-05
-0.0019434
5.96513e-06
-0.00194193
-3.41048e-06
-0.00193648
-1.27944e-05
-0.00192708
-2.21564e-05
-0.00191374
-3.14659e-05
-0.0018965
-4.06921e-05
-0.00187541
-4.98036e-05
-0.00185054
-5.87689e-05
-0.00182195
-6.75557e-05
-0.00178974
-7.61314e-05
-0.00175401
-8.44633e-05
-0.00171489
-9.25175e-05
-0.0016725
-0.00010026
-0.00162699
-0.000107657
-0.00157852
-0.000114676
-0.00152727
-0.000121282
-0.00147342
-0.000127443
-0.00141717
-0.000133125
-0.00135875
-0.000138295
-0.00129838
-0.000142922
-0.00123631
-0.000146973
-0.00117279
-0.000150418
-0.00110809
-0.000153225
-0.00104249
-0.000155365
-0.000976282
-0.00015681
-0.000909767
-0.000157535
-0.000843257
-0.000157514
-0.000777071
-0.000156726
-0.000711536
-0.00015515
-0.000646986
-0.000152769
-0.000583758
-0.00014957
-0.000522192
-0.000145542
-0.000462631
-0.000140683
-0.000405414
-0.000134991
-0.000350876
-0.000128475
-0.000299345
-0.000121147
-0.000251138
-0.000113032
-0.000206556
-0.000104164
-0.000165876
-9.45918e-05
-0.000129346
-8.43798e-05
-9.71782e-05
-7.36154e-05
-6.95312e-05
-6.24146e-05
-4.65014e-05
-5.09312e-05
-2.81027e-05
-3.93694e-05
-1.42448e-05
-2.80001e-05
-4.70508e-06
-1.71839e-05
9.03776e-07
-7.40039e-06
3.17236e-06
7.13356e-07
2.93776e-06
6.32452e-06
1.34086e-06
8.34302e-06
5.19374e-06
7.91823e-07
-6.29462e-06
6.71924e-07
-7.78015e-06
-2.00644e-06
-2.10233e-06
-8.28454e-06
7.81167e-06
-1.89138e-05
2.0645e-05
-3.44287e-05
3.54635e-05
-5.51744e-05
5.15109e-05
-8.13398e-05
6.81883e-05
-0.000112979
8.50272e-05
-0.000150039
0.000101668
-0.000192378
0.00011783
-0.000239789
0.000133305
-0.000292006
0.00014793
-0.000348723
0.000161588
-0.000409603
0.000174193
-0.000474284
0.000185681
-0.000542389
0.000196012
-0.000613528
0.000205159
-0.000687307
0.000213109
-0.000763328
0.00021986
-0.000841193
0.000225417
-0.000920509
0.000229793
-0.00100088
0.000233007
-0.00108194
0.000235082
-0.00116329
0.000236046
-0.00124458
0.000235928
-0.00132546
0.000234763
-0.00140557
0.000232584
-0.00148458
0.000229429
-0.00156218
0.000225335
-0.00163806
0.000220342
-0.00171191
0.000214488
-0.00178347
0.000207815
-0.00185246
0.000200363
-0.00191862
0.000192173
-0.00198173
0.000183285
-0.00204154
0.000173741
-0.00209786
0.000163582
-0.00215048
0.00015285
-0.00219921
0.000141587
-0.0022439
0.000129834
-0.00228438
0.000117634
-0.00232052
0.000105029
-0.0023522
9.20602e-05
-0.00237929
7.87711e-05
-0.0024017
6.52043e-05
-0.00241936
5.14029e-05
-0.0024322
3.74101e-05
-0.00244017
2.327e-05
-0.00244323
9.02735e-06
-0.00244137
-5.27273e-06
-0.00243458
-1.95845e-05
-0.00242287
-3.38617e-05
-0.00240628
-4.80577e-05
-0.00238485
-6.21251e-05
-0.00235864
-7.60158e-05
-0.00232772
-8.96814e-05
-0.00229221
-0.000103073
-0.0022522
-0.000116141
-0.00220783
-0.000128835
-0.00215924
-0.000141104
-0.0021066
-0.000152898
-0.00205009
-0.000164164
-0.00198992
-0.000174853
-0.00192629
-0.000184912
-0.00185944
-0.000194292
-0.00178962
-0.000202942
-0.0017171
-0.000210814
-0.00164217
-0.000217857
-0.00156512
-0.000224024
-0.00148626
-0.000229269
-0.00140594
-0.000233546
-0.0013245
-0.000236812
-0.00124228
-0.000239025
-0.00115967
-0.000240147
-0.00107704
-0.000240142
-0.000994789
-0.000238979
-0.000913311
-0.000236629
-0.000833012
-0.000233068
-0.000754304
-0.000228278
-0.000677598
-0.000222248
-0.000603307
-0.000214973
-0.000531841
-0.000206458
-0.000463602
-0.000196714
-0.000398981
-0.000185768
-0.000338354
-0.000173659
-0.000282075
-0.000160443
-0.000230471
-0.000146196
-0.000183829
-0.000131022
-0.000142391
-0.000115053
-0.000106339
-9.84666e-05
-7.57803e-05
-8.14898e-05
-5.07306e-05
-6.44191e-05
-3.10918e-05
-4.76389e-05
-1.66279e-05
-3.16478e-05
-6.93677e-06
-1.70915e-05
-1.41846e-06
-4.80499e-06
7.61292e-07
4.14481e-06
7.21533e-07
8.38281e-06
5.91527e-06
-6.08835e-08
-6.23362e-06
-2.23686e-06
-5.60424e-06
-7.95842e-06
3.61935e-06
-1.81796e-05
1.80331e-05
-3.36001e-05
3.60654e-05
-5.47227e-05
5.65864e-05
-8.18744e-05
7.86623e-05
-0.000115227
0.000101541
-0.000154826
0.000124626
-0.000200599
0.000147441
-0.00025239
0.000169621
-0.000309961
0.000190876
-0.000373017
0.000210987
-0.000441216
0.000229787
-0.000514176
0.000247153
-0.000591489
0.000262994
-0.000672725
0.000277248
-0.000757441
0.000289874
-0.000845184
0.000300851
-0.000935495
0.000310171
-0.00102792
0.000317839
-0.00112199
0.00032387
-0.00121727
0.000328287
-0.00131331
0.00033112
-0.00140967
0.000332405
-0.00150593
0.000332182
-0.00160166
0.000330496
-0.00169647
0.000327394
-0.00178996
0.000322925
-0.00188177
0.000317142
-0.00197153
0.000310097
-0.00205888
0.000301847
-0.00214351
0.000292445
-0.0022251
0.000281949
-0.00230334
0.000270415
-0.00237796
0.000257901
-0.00244868
0.000244465
-0.00251526
0.000230164
-0.00257747
0.000215056
-0.00263508
0.000199201
-0.00268791
0.000182657
-0.00273576
0.000165483
-0.00277847
0.000147739
-0.00281589
0.000129484
-0.0028479
0.000110779
-0.00287438
9.1683e-05
-0.00289523
7.22574e-05
-0.00291039
5.25637e-05
-0.00291978
3.2664e-05
-0.00292337
1.26214e-05
-0.00292115
-7.50057e-06
-0.00291309
-2.76376e-05
-0.00289923
-4.77247e-05
-0.00287959
-6.76957e-05
-0.00285423
-8.7484e-05
-0.00282323
-0.000107022
-0.00278667
-0.000126242
-0.00274466
-0.000145074
-0.00269736
-0.000163449
-0.0026449
-0.000181296
-0.00258745
-0.000198545
-0.00252523
-0.000215124
-0.00245843
-0.000230961
-0.0023873
-0.000245985
-0.00231209
-0.000260124
-0.00223307
-0.000273309
-0.00215054
-0.000285469
-0.00206482
-0.000296535
-0.00197624
-0.000306439
-0.00188515
-0.000315115
-0.00179192
-0.000322498
-0.00169694
-0.000328526
-0.00160061
-0.000333139
-0.00150336
-0.000336281
-0.0014056
-0.0003379
-0.0013078
-0.000337948
-0.00121039
-0.000336382
-0.00111386
-0.000333165
-0.00101866
-0.000328266
-0.000925274
-0.000321664
-0.000834178
-0.000313345
-0.000745846
-0.000303305
-0.000660748
-0.000291555
-0.000579347
-0.000278116
-0.000502087
-0.000263028
-0.000429397
-0.000246349
-0.000361678
-0.000228163
-0.000299295
-0.000208579
-0.000242573
-0.000187744
-0.000191782
-0.000165844
-0.000147126
-0.000143122
-0.000108729
-0.000119887
-7.66166e-05
-9.6531e-05
-5.07006e-05
-7.35549e-05
-3.0755e-05
-5.15934e-05
-1.63948e-05
-3.14517e-05
-7.05103e-06
-1.41488e-05
-1.9443e-06
-9.61828e-07
-4.7739e-08
6.48633e-06
5.86757e-06
-9.90549e-07
-5.24316e-06
-5.45895e-06
-1.13564e-06
-1.45621e-05
1.27224e-05
-2.91209e-05
3.25918e-05
-4.97485e-05
5.66931e-05
-7.68824e-05
8.37202e-05
-0.000110804
0.000112584
-0.000151651
0.000142389
-0.00019944
0.000172414
-0.000254077
0.000202078
-0.000315376
0.000230919
-0.000383074
0.000258574
-0.000456846
0.000284758
-0.000536313
0.000309254
-0.000621056
0.000331896
-0.000710623
0.000352562
-0.000804541
0.000371166
-0.000902317
0.00038765
-0.00100345
0.000401981
-0.00110742
0.000414145
-0.00121373
0.000424145
-0.00132185
0.000431995
-0.00143129
0.000437725
-0.00154154
0.00044137
-0.00165211
0.000442975
-0.00176252
0.00044259
-0.0018723
0.000440273
-0.00198098
0.000436083
-0.00208814
0.000430084
-0.00219335
0.000422344
-0.00229618
0.000412933
-0.00239626
0.000401921
-0.00249319
0.000389382
-0.00258663
0.000375389
-0.00267624
0.000360018
-0.00276168
0.000343344
-0.00284266
0.000325443
-0.00291889
0.000306393
-0.0029901
0.000286271
-0.00305606
0.000265154
-0.00311652
0.00024312
-0.00317128
0.000220249
-0.00322016
0.000196619
-0.00326299
0.00017231
-0.00329961
0.000147402
-0.00332991
0.000121974
-0.00335376
9.61099e-05
-0.00337108
6.98896e-05
-0.00338182
4.33965e-05
-0.00338591
1.67145e-05
-0.00338334
-1.00714e-05
-0.0033741
-3.68755e-05
-0.00335821
-6.36115e-05
-0.00333572
-9.01915e-05
-0.00330668
-0.000116527
-0.00327117
-0.000142527
-0.00322931
-0.000168101
-0.00318123
-0.000193159
-0.00312707
-0.000217606
-0.00306702
-0.00024135
-0.00300127
-0.000264297
-0.00293004
-0.000286351
-0.00285358
-0.000307419
-0.00277216
-0.000327407
-0.00268606
-0.000346219
-0.00259561
-0.000363762
-0.00250113
-0.000379945
-0.00240299
-0.000394676
-0.00230157
-0.000407865
-0.00219726
-0.000419426
-0.00209048
-0.000429274
-0.00198168
-0.000437327
-0.00187131
-0.000443509
-0.00175984
-0.000447747
-0.00164777
-0.000449974
-0.00153559
-0.000450128
-0.00142382
-0.000448154
-0.00131298
-0.000444007
-0.00120359
-0.000437649
-0.0010962
-0.000429054
-0.000991341
-0.000418208
-0.000889535
-0.000405111
-0.000791311
-0.000389779
-0.000697181
-0.000372245
-0.000607643
-0.000352566
-0.000523168
-0.000330824
-0.000444198
-0.000307132
-0.00037114
-0.000281638
-0.000304349
-0.000254535
-0.000244125
-0.000226068
-0.000190698
-0.000196549
-0.000144214
-0.000166371
-0.000104722
-0.000136024
-7.21556e-05
-0.000106121
-4.63213e-05
-7.74276e-05
-2.68766e-05
-5.08964e-05
-1.33149e-05
-2.77104e-05
-4.94944e-06
-9.32727e-06
-8.91173e-07
2.42817e-06
4.97639e-06
-1.94514e-06
-3.29802e-06
-8.82004e-06
5.73918e-06
-2.15021e-05
2.54043e-05
-4.06484e-05
5.17381e-05
-6.67567e-05
8.28013e-05
-0.000100179
0.000117143
-0.00014113
0.000153534
-0.000189697
0.000190956
-0.000245853
0.000228571
-0.00030947
0.000265695
-0.000380329
0.000301779
-0.000458136
0.000336381
-0.000542532
0.000369154
-0.000633104
0.000399826
-0.000729397
0.000428188
-0.00083092
0.000454085
-0.000937157
0.000477402
-0.00104757
0.000498065
-0.00116162
0.000516025
-0.00127873
0.00053126
-0.00139836
0.00054377
-0.00151993
0.00055357
-0.0016429
0.000560691
-0.0017667
0.000565176
-0.00189081
0.000567079
-0.00201468
0.000566461
-0.00213779
0.000563391
-0.00225966
0.000557943
-0.00237977
0.000550198
-0.00249766
0.000540238
-0.00261288
0.000528152
-0.00272499
0.000514027
-0.00283356
0.000497956
-0.00293821
0.000480033
-0.00303854
0.000460352
-0.00313421
0.00043901
-0.00322486
0.000416102
-0.0033102
0.000391728
-0.00338991
0.000365984
-0.00346373
0.000338971
-0.0035314
0.000310789
-0.00359269
0.000281537
-0.00364738
0.000251316
-0.0036953
0.000220228
-0.00373628
0.000188376
-0.00377016
0.000155862
-0.00379684
0.00012279
-0.00381622
8.92648e-05
-0.00382821
5.53932e-05
-0.00383278
2.12821e-05
-0.00382989
-1.29603e-05
-0.00381954
-4.72246e-05
-0.00380176
-8.13998e-05
-0.00377657
-0.000115374
-0.00374407
-0.000149033
-0.00370433
-0.000182262
-0.00365749
-0.000214947
-0.00360368
-0.000246969
-0.00354307
-0.000278211
-0.00347587
-0.000308553
-0.00340229
-0.000337876
-0.00332258
-0.000366061
-0.00323701
-0.000392986
-0.00314589
-0.000418531
-0.00304953
-0.000442578
-0.00294828
-0.000465008
-0.00284252
-0.000485703
-0.00273265
-0.000504549
-0.00261908
-0.000521433
-0.00250227
-0.000536244
-0.00238266
-0.000548876
-0.00226076
-0.000559228
-0.00213707
-0.000567203
-0.0020121
-0.000572711
-0.00188641
-0.000575667
-0.00176054
-0.000575997
-0.00163506
-0.000573634
-0.00151055
-0.000568521
-0.00138758
-0.000560616
-0.00126674
-0.000549889
-0.00114863
-0.000536325
-0.00103381
-0.000519927
-0.00092287
-0.000500721
-0.000816361
-0.000478753
-0.000714827
-0.0004541
-0.000618782
-0.00042687
-0.000528708
-0.000397206
-0.000445046
-0.0003653
-0.000368187
-0.000331393
-0.000298462
-0.000295793
-0.00023613
-0.000258881
-0.000181369
-0.000221132
-0.000134259
-0.000183133
-9.47738e-05
-0.000145606
-6.27665e-05
-0.000109435
-3.79579e-05
-7.5705e-05
-1.99269e-05
-4.57413e-05
-8.10424e-06
-2.115e-05
-1.76397e-06
-3.91197e-06
3.21239e-06
-2.8941e-06
-4.03998e-07
-1.2218e-05
1.50631e-05
-2.85736e-05
4.17601e-05
-5.24465e-05
7.5611e-05
-8.42028e-05
0.000114558
-0.00012409
0.000157031
-0.000172245
0.000201688
-0.000228686
0.000247398
-0.000293335
0.00029322
-0.000366018
0.000338378
-0.000446476
0.000382237
-0.000534378
0.000424283
-0.000629328
0.000464105
-0.000730879
0.000501377
-0.000838539
0.000535847
-0.000951779
0.000567325
-0.00107004
0.000595667
-0.00119276
0.000620778
-0.00131933
0.000642594
-0.00144915
0.000661086
-0.00158163
0.000676246
-0.00171615
0.000688091
-0.00185211
0.000696653
-0.00198892
0.000701984
-0.00212598
0.000704143
-0.00226273
0.000703204
-0.00239858
0.000699249
-0.00253301
0.000692368
-0.00266547
0.000682656
-0.00279544
0.000670215
-0.00292244
0.000655149
-0.00304598
0.000637569
-0.00316561
0.000617586
-0.00328089
0.000595314
-0.00339141
0.00057087
-0.00349677
0.000544372
-0.00359661
0.000515939
-0.00369057
0.000485691
-0.00377834
0.000453751
-0.00385961
0.00042024
-0.0039341
0.000385282
-0.00400157
0.000349001
-0.00406177
0.000311521
-0.00411451
0.000272969
-0.00415961
0.000233472
-0.0041969
0.000193155
-0.00422626
0.00015215
-0.00424758
0.000110586
-0.00426078
6.85936e-05
-0.00426581
2.63064e-05
-0.00426263
-1.61416e-05
-0.00425124
-5.86148e-05
-0.00423166
-0.000100976
-0.00420395
-0.000143086
-0.00416818
-0.000184804
-0.00412445
-0.000225989
-0.0040729
-0.000266498
-0.00401368
-0.000306186
-0.00394699
-0.000344906
-0.00387303
-0.000382513
-0.00379205
-0.000418858
-0.00370431
-0.000453793
-0.00361013
-0.000487171
-0.00350982
-0.000518843
-0.00340373
-0.000548663
-0.00329226
-0.000576484
-0.0031758
-0.000602164
-0.00305478
-0.00062556
-0.00292968
-0.000646535
-0.00280097
-0.000664954
-0.00266916
-0.000680687
-0.00253478
-0.00069361
-0.00239838
-0.000703606
-0.00226052
-0.000710565
-0.0021218
-0.000714387
-0.00198282
-0.000714981
-0.00184418
-0.000712268
-0.00170652
-0.000706182
-0.00157047
-0.000696673
-0.00143665
-0.000683708
-0.0013057
-0.000667273
-0.00117825
-0.000647377
-0.00105492
-0.000624054
-0.000936305
-0.000597365
-0.000822996
-0.000567408
-0.000715547
-0.000534319
-0.000614477
-0.000498276
-0.000520264
-0.000459513
-0.000433333
-0.000418324
-0.000354052
-0.000375074
-0.000282716
-0.000330218
-0.000219538
-0.00028431
-0.000164643
-0.000238028
-0.000118055
-0.000192194
-7.9688e-05
-0.000147802
-4.93417e-05
-0.000106051
-2.6696e-05
-6.83871e-05
-1.13131e-05
-3.65328e-05
-2.64055e-06
-1.25844e-05
5.71821e-07
-3.82125e-06
3.41734e-06
-1.55873e-05
2.68291e-05
-3.56462e-05
6.18189e-05
-6.43062e-05
0.000104271
-0.000101795
0.000152046
-0.00014825
0.000203485
-0.00020371
0.000257148
-0.000268124
0.000311811
-0.000341347
0.000366443
-0.000423152
0.000420183
-0.000513233
0.000472318
-0.000611215
0.000522266
-0.000716665
0.000569555
-0.000829096
0.000613808
-0.000947978
0.000654729
-0.00107274
0.000692092
-0.0012028
0.000725726
-0.00133754
0.000755513
-0.00147632
0.000781375
-0.0016185
0.00080327
-0.00176345
0.000821188
-0.0019105
0.000835143
-0.00205901
0.00084517
-0.00220836
0.000851326
-0.0023579
0.000853682
-0.00250701
0.00085232
-0.0026551
0.000847338
-0.00280157
0.000838839
-0.00294585
0.000826937
-0.00308739
0.000811751
-0.00322565
0.000793407
-0.00336011
0.000772034
-0.00349029
0.000747767
-0.00361572
0.000720741
-0.00373595
0.000691096
-0.00385055
0.000658974
-0.00395913
0.000624518
-0.00406131
0.000587872
-0.00415674
0.000549184
-0.0042451
0.0005086
-0.00432609
0.00046627
-0.00439943
0.000422342
-0.00446488
0.000376969
-0.00452221
0.0003303
-0.00457123
0.000282491
-0.00461177
0.000233694
-0.00464368
0.000184067
-0.00466686
0.000133765
-0.00468122
8.29483e-05
-0.00468669
3.17769e-05
-0.00468324
-1.95871e-05
-0.00467088
-7.09798e-05
-0.00464962
-0.000122235
-0.00461952
-0.000173186
-0.00458066
-0.000223662
-0.00453316
-0.000273493
-0.00447715
-0.000322506
-0.00441281
-0.000370525
-0.00434034
-0.000417376
-0.00425997
-0.000462881
-0.00417197
-0.000506863
-0.00407661
-0.000549144
-0.00397424
-0.000589546
-0.00386519
-0.00062789
-0.00374985
-0.000664001
-0.00362863
-0.000697703
-0.00350197
-0.000728824
-0.00337034
-0.000757195
-0.00323422
-0.00078265
-0.00309415
-0.000805029
-0.00295066
-0.000824176
-0.00280432
-0.000839945
-0.00265573
-0.000852196
-0.0025055
-0.000860799
-0.00235425
-0.000865635
-0.00220263
-0.000866599
-0.00205131
-0.000863596
-0.00190093
-0.000856554
-0.00175219
-0.000845413
-0.00160576
-0.000830138
-0.00146232
-0.000810716
-0.00132254
-0.000787161
-0.00118707
-0.000759517
-0.00105657
-0.000727864
-0.000931664
-0.000692319
-0.000812936
-0.000653047
-0.000700951
-0.000610262
-0.000596223
-0.000564241
-0.000499218
-0.000515328
-0.000410341
-0.000463951
-0.000329927
-0.000410631
-0.000258238
-0.000355999
-0.000195448
-0.000300818
-0.000141641
-0.000246001
-9.6804e-05
-0.000192639
-6.08255e-05
-0.00014203
-3.34961e-05
-9.57164e-05
-1.45162e-05
-5.55127e-05
-3.50604e-06
-2.35945e-05
-2.93419e-06
-4.71995e-06
8.13708e-06
-1.88938e-05
4.1003e-05
-4.26381e-05
8.55631e-05
-7.60912e-05
0.000137724
-0.000119341
0.000195296
-0.000172404
0.000256548
-0.000235222
0.000319967
-0.00030766
0.000384249
-0.000389502
0.000448285
-0.000480458
0.000511139
-0.000580171
0.000572031
-0.000688218
0.000630313
-0.000804121
0.000685457
-0.000927352
0.000737039
-0.00105734
0.000784719
-0.00119349
0.000828236
-0.00133515
0.000867394
-0.00148169
0.000902049
-0.00163243
0.000932111
-0.00178668
0.000957527
-0.00194378
0.00097828
-0.00210302
0.000994383
-0.00226372
0.00100588
-0.00242521
0.00101282
-0.00258682
0.00101529
-0.00274789
0.00101339
-0.00290778
0.00100723
-0.00306586
0.000996918
-0.00322152
0.000982598
-0.00337417
0.000964404
-0.00352325
0.000942483
-0.0036682
0.000916986
-0.0038085
0.000888069
-0.00394366
0.000855893
-0.00407318
0.000820623
-0.00419663
0.000782423
-0.00431358
0.000741463
-0.00442362
0.000697914
-0.00452638
0.000651949
-0.00462153
0.000603741
-0.00470872
0.000553467
-0.00478768
0.000501303
-0.00485814
0.000447428
-0.00491986
0.000392022
-0.00497264
0.000335265
-0.00501629
0.000277341
-0.00505065
0.000218435
-0.00507562
0.000158732
-0.00509109
9.84199e-05
-0.005097
3.76896e-05
-0.00509332
-2.32672e-05
-0.00508005
-8.42564e-05
-0.0050572
-0.000145082
-0.00502484
-0.000205545
-0.00498306
-0.000265445
-0.00493197
-0.00032458
-0.00487173
-0.000382745
-0.00480253
-0.000439734
-0.00472456
-0.00049534
-0.00463809
-0.000549353
-0.00454339
-0.000601563
-0.00444077
-0.000651761
-0.00433058
-0.000699737
-0.00421319
-0.000745281
-0.00408901
-0.000788184
-0.00395847
-0.000828242
-0.00382204
-0.000865251
-0.00368023
-0.000899013
-0.00353354
-0.000929332
-0.00338255
-0.000956021
-0.00322783
-0.000978898
-0.00306999
-0.000997791
-0.00290964
-0.00101254
-0.00274746
-0.00102299
-0.00258409
-0.001029
-0.00242024
-0.00103045
-0.00225659
-0.00102724
-0.00209386
-0.00101928
-0.00193277
-0.00100651
-0.00177403
-0.000988879
-0.00161836
-0.000966385
-0.00146648
-0.000939044
-0.00131908
-0.000906912
-0.00117686
-0.000870085
-0.00104048
-0.000828703
-0.000910563
-0.000782959
-0.000787721
-0.000733104
-0.000672506
-0.000679456
-0.000565423
-0.000622411
-0.000466921
-0.000562453
-0.000377384
-0.000500168
-0.000297123
-0.00043626
-0.000226372
-0.000371569
-0.000165283
-0.00030709
-0.000113923
-0.000243999
-7.22759e-05
-0.000183677
-4.02476e-05
-0.000127745
-1.76776e-05
-7.80828e-05
-4.35203e-06
-3.692e-05
-7.2862e-06
-5.58747e-06
1.37246e-05
-2.21191e-05
5.75347e-05
-4.95041e-05
0.000112948
-8.77198e-05
0.00017594
-0.000136714
0.000244291
-0.000196387
0.00031622
-0.000266574
0.000390155
-0.000347052
0.000464726
-0.000437528
0.000538761
-0.000537646
0.000611257
-0.000646988
0.000681373
-0.000765081
0.000748405
-0.000891396
0.000811773
-0.00102536
0.000871006
-0.00116637
0.000925727
-0.00131378
0.00097564
-0.00146691
0.00102052
-0.00162507
0.00106021
-0.00178756
0.0010946
-0.00195366
0.00112363
-0.00212265
0.00114727
-0.0022938
0.00116553
-0.00246639
0.00117847
-0.00263972
0.00118614
-0.00281306
0.00118864
-0.00298574
0.00118607
-0.00315707
0.00117856
-0.00332639
0.00116624
-0.00349306
0.00114927
-0.00365645
0.0011278
-0.00381597
0.001102
-0.00397104
0.00107205
-0.0041211
0.00103813
-0.00426562
0.00100041
-0.0044041
0.000959102
-0.00453606
0.000914384
-0.00466105
0.000866455
-0.00477865
0.000815514
-0.00488846
0.000761761
-0.00499012
0.000705398
-0.00508328
0.000646631
-0.00516764
0.000585664
-0.00524292
0.000522706
-0.00530886
0.000457965
-0.00536525
0.000391653
-0.00541189
0.000323983
-0.00544863
0.000255169
-0.00547532
0.000185429
-0.00549188
0.000114981
-0.00549824
4.40466e-05
-0.00549436
-2.71502e-05
-0.00548023
-9.83835e-05
-0.00545589
-0.000169425
-0.00542139
-0.000240043
-0.00537683
-0.000310006
-0.00532233
-0.000379077
-0.00525806
-0.000447018
-0.0051842
-0.000513589
-0.00510099
-0.00057855
-0.00500869
-0.000641657
-0.00490758
-0.000702667
-0.00479801
-0.000761336
-0.00468033
-0.000817419
-0.00455493
-0.000870675
-0.00442226
-0.000920861
-0.00428276
-0.000967739
-0.00413694
-0.00101107
-0.00398531
-0.00105064
-0.00382844
-0.0010862
-0.00366691
-0.00111755
-0.00350134
-0.00114447
-0.00333235
-0.00116678
-0.00316062
-0.00118427
-0.00298683
-0.00119677
-0.00281169
-0.00120414
-0.00263592
-0.00120622
-0.00246026
-0.0012029
-0.00228545
-0.00119409
-0.00211226
-0.0011797
-0.00194144
-0.0011597
-0.00177376
-0.00113407
-0.00160996
-0.00110285
-0.00145078
-0.00106609
-0.00129696
-0.00102391
-0.0011492
-0.000976468
-0.00100816
-0.000923991
-0.000874504
-0.000866763
-0.000748818
-0.000805143
-0.000631654
-0.000739574
-0.000523511
-0.000670597
-0.000424821
-0.000598857
-0.000335956