/*--------------------------------*- C++ -*----------------------------------*\
  =========                 |
  \\      /  F ield         | OpenFOAM: The Open Source CFD Toolbox
   \\    /   O peration     | Website:  https://openfoam.org
    \\  /    A nd           | Version:  11
     \\/     M anipulation  |
\*---------------------------------------------------------------------------*/
FoamFile
{
    format      ascii;
    class       volScalarField;
    location    "4";
    object      p;
}
// * * * * * * * * * * * * * * * * * * * * * * * * * * * * * * * * * * * * * //

dimensions      [0 2 -2 0 0 0 0];

internalField   nonuniform List<scalar> 
10100
(
-1.06042e-07
7.57158e-05
-0.000127855
-0.0006576
-0.00146575
-0.00249658
-0.00369442
-0.00500771
-0.00639002
-0.00780103
-0.00920739
-0.0105804
-0.0118948
-0.0131285
-0.0142622
-0.015282
-0.0161764
-0.0169343
-0.0175477
-0.0180104
-0.0183175
-0.0184663
-0.0184544
-0.0182794
-0.0179393
-0.0174336
-0.0167632
-0.0159298
-0.0149352
-0.0137821
-0.0124731
-0.011012
-0.0094032
-0.00765159
-0.00576183
-0.00373901
-0.00158929
0.000680338
0.00306251
0.00554942
0.00813303
0.0108053
0.0135583
0.0163842
0.019274
0.0222185
0.0252081
0.028233
0.0312833
0.0343495
0.0374222
0.0404917
0.0435484
0.0465819
0.0495822
0.05254
0.0554467
0.0582933
0.0610706
0.063769
0.0663791
0.0688924
0.0713006
0.0735958
0.07577
0.0778161
0.0797277
0.0814983
0.0831214
0.0845912
0.0859023
0.0870502
0.0880317
0.0888451
0.0894884
0.0899598
0.0902585
0.0903852
0.0903424
0.0901333
0.0897625
0.0892359
0.0885611
0.0877465
0.0868019
0.085739
0.0845718
0.0833174
0.0819952
0.0806272
0.0792385
0.0778572
0.0765152
0.0752492
0.0741016
0.0731198
0.0723535
0.0718525
0.0716617
0.0717486
-6.34139e-05
-1.53149e-05
-0.000230147
-0.00071149
-0.00141422
-0.00229861
-0.00332657
-0.00445736
-0.00565385
-0.0068819
-0.00811118
-0.00931622
-0.0104738
-0.0115618
-0.0125627
-0.0134623
-0.0142488
-0.0149131
-0.0154467
-0.0158427
-0.0160956
-0.0162016
-0.0161581
-0.0159632
-0.0156149
-0.0151117
-0.0144537
-0.0136422
-0.0126791
-0.0115668
-0.0103078
-0.00890509
-0.00736245
-0.00568414
-0.00387463
-0.00193901
0.00011685
0.00228646
0.00456291
0.0069389
0.0094067
0.0119588
0.0145879
0.0172862
0.0200453
0.0228563
0.0257099
0.0285966
0.0315074
0.0344331
0.037365
0.0402944
0.0432115
0.0461058
0.0489678
0.0517894
0.0545622
0.0572779
0.0599279
0.0625027
0.064993
0.067391
0.0696894
0.0718805
0.0739567
0.0759117
0.0777395
0.0794336
0.0809879
0.0823974
0.0836574
0.0847639
0.0857142
0.0865069
0.0871404
0.0876131
0.0879245
0.088076
0.0880702
0.08791
0.0875999
0.0871459
0.0865561
0.0858393
0.0850052
0.0840649
0.0830321
0.081923
0.0807562
0.0795525
0.078335
0.077129
0.0759629
0.0748681
0.07388
0.0730367
0.0723753
0.0719316
0.0717502
0.0718369
0.000152211
0.000165261
-6.58923e-05
-0.000527795
-0.00117347
-0.00197091
-0.00288969
-0.00389886
-0.00496713
-0.00606547
-0.00716684
-0.00824798
-0.00928735
-0.0102656
-0.0111654
-0.0119725
-0.0126759
-0.0132667
-0.0137367
-0.0140797
-0.0142897
-0.0143615
-0.0142928
-0.0140815
-0.0137258
-0.0132244
-0.0125765
-0.0117827
-0.0108449
-0.00976544
-0.0085466
-0.00719114
-0.00570218
-0.00408334
-0.0023389
-0.000474028
0.00150559
0.00359388
0.00578418
0.00806956
0.0104429
0.0128969
0.015425
0.0180194
0.0206719
0.023374
0.0261168
0.0288909
0.0316877
0.0344991
0.0373166
0.0401317
0.0429349
0.0457159
0.0484656
0.0511765
0.0538408
0.0564503
0.0589965
0.0614706
0.0638638
0.0661686
0.068378
0.0704847
0.0724818
0.0743635
0.0761238
0.0777564
0.0792554
0.0806159
0.0818343
0.0829072
0.0838325
0.0846085
0.0852338
0.0857073
0.0860289
0.0862001
0.0862235
0.0861018
0.085839
0.0854416
0.0849176
0.0842763
0.0835272
0.0826809
0.0817505
0.080751
0.0797002
0.0786171
0.077523
0.0764408
0.0753955
0.0744148
0.0735288
0.0727697
0.072168
0.0717535
0.0715728
0.0716511
0.000655764
0.000595865
0.000323812
-0.000145779
-0.000769803
-0.00152163
-0.00237613
-0.00330737
-0.00428915
-0.00529647
-0.0063058
-0.00729512
-0.00824548
-0.00913946
-0.00996099
-0.0106968
-0.0113359
-0.0118683
-0.0122875
-0.012587
-0.0127615
-0.0128061
-0.0127171
-0.0124922
-0.0121301
-0.0116296
-0.0109898
-0.010211
-0.00929469
-0.00824279
-0.00705754
-0.00574163
-0.00429777
-0.0027291
-0.00103975
0.000765257
0.00268043
0.00469991
0.00681713
0.00902541
0.0113183
0.0136893
0.0161315
0.0186376
0.0211996
0.023809
0.0264573
0.0291357
0.031836
0.0345506
0.0372714
0.0399897
0.042696
0.0453808
0.0480358
0.0506537
0.0532265
0.0557463
0.0582048
0.0605938
0.0629053
0.0651319
0.0672668
0.0693027
0.0712335
0.0730537
0.0747577
0.0763388
0.0777913
0.0791108
0.0802944
0.0813391
0.0822429
0.0830045
0.0836229
0.084097
0.0844268
0.0846139
0.0846605
0.0845692
0.084344
0.0839912
0.0835193
0.0829376
0.0822552
0.0814819
0.0806299
0.0797136
0.0787492
0.0777544
0.0767483
0.0757515
0.0747868
0.0738783
0.0730525
0.0723373
0.0717591
0.0713448
0.0711362
0.0711593
0.00139971
0.00122905
0.000891399
0.000394646
-0.000231635
-0.000962491
-0.00177819
-0.00265669
-0.00357609
-0.00451457
-0.00545175
-0.0063683
-0.00724643
-0.00807032
-0.00882601
-0.0095012
-0.0100854
-0.0105688
-0.010944
-0.0112055
-0.0113486
-0.0113687
-0.0112619
-0.0110255
-0.0106579
-0.0101579
-0.00952522
-0.0087602
-0.00786374
-0.00683734
-0.00568312
-0.00440347
-0.00300085
-0.00147834
0.000159993
0.00190949
0.00376496
0.00572051
0.00776983
0.00990671
0.0121251
0.014419
0.0167817
0.019206
0.0216839
0.0242074
0.0267678
0.0293572
0.0319682
0.0345935
0.0372248
0.0398534
0.0424701
0.0450659
0.0476335
0.0501657
0.0526544
0.0550913
0.057469
0.0597799
0.0620161
0.0641708
0.0662372
0.0682085
0.0700786
0.0718424
0.0734944
0.0750281
0.0764379
0.07772
0.0788718
0.0798906
0.0807745
0.0815224
0.0821338
0.0826078
0.0829446
0.0831452
0.0832116
0.0831462
0.082953
0.0826388
0.0822124
0.0816824
0.081057
0.0803453
0.0795587
0.0787107
0.0778164
0.0768918
0.075954
0.0750215
0.0741146
0.0732547
0.0724648
0.0717688
0.0711896
0.0707508
0.0704831
0.0704041
0.00233999
0.00203339
0.00160999
0.0010677
0.000420097
-0.000311951
-0.00111062
-0.00195865
-0.00283666
-0.00372624
-0.00460999
-0.00547066
-0.00629281
-0.0070616
-0.00776365
-0.00838854
-0.00892651
-0.00936896
-0.00970751
-0.00993719
-0.0100534
-0.0100521
-0.00992982
-0.0096837
-0.00931178
-0.00881289
-0.0081869
-0.00743433
-0.00655589
-0.00555291
-0.00442723
-0.0031807
-0.00181565
-0.000335299
0.0012564
0.00295499
0.00475551
0.00665216
0.00863887
0.0107101
0.0128604
0.0150834
0.0173731
0.0197222
0.0221229
0.0245672
0.027047
0.0295546
0.0320837
0.0346271
0.0371763
0.0397225
0.0422571
0.044772
0.0472599
0.0497136
0.0521253
0.0544869
0.0567913
0.0590311
0.061199
0.0632882
0.0652924
0.0672049
0.06902
0.0707327
0.0723374
0.0738279
0.0751989
0.0764473
0.0775706
0.0785662
0.079432
0.0801671
0.0807712
0.0812441
0.0815859
0.0817974
0.0818802
0.0818364
0.0816705
0.0813894
0.0810018
0.0805154
0.0799374
0.079276
0.0785418
0.0777478
0.076908
0.0760368
0.0751493
0.0742619
0.0733925
0.0725602
0.0717848
0.0710861
0.0704839
0.0699985
0.069646
0.0694319
0.00343475
0.0029754
0.00245197
0.0018481
0.00116105
0.000409576
-0.000391952
-0.00122811
-0.00208379
-0.00294276
-0.00378961
-0.00461029
-0.00539087
-0.00611785
-0.00677909
-0.00736427
-0.00786479
-0.0082732
-0.00858226
-0.00878606
-0.00888032
-0.00886132
-0.00872597
-0.00847167
-0.00809648
-0.00759936
-0.00698006
-0.00623898
-0.00537691
-0.00439515
-0.00329521
-0.00207863
-0.000747672
0.000694419
0.00224392
0.00389645
0.00564694
0.00748991
0.00941981
0.0114316
0.0135199
0.0156789
0.0179023
0.0201832
0.0225136
0.0248859
0.0272926
0.0297267
0.0321819
0.0346509
0.0371254
0.039597
0.0420577
0.0444997
0.046916
0.0492994
0.0516417
0.0539355
0.0561743
0.058351
0.0604579
0.0624884
0.0644366
0.0662965
0.0680625
0.0697295
0.071292
0.072744
0.0740808
0.0752995
0.0763978
0.0773728
0.0782222
0.0789454
0.0795423
0.0800131
0.080358
0.0805776
0.0806732
0.0806473
0.0805042
0.0802509
0.0798952
0.0794438
0.0789031
0.0782804
0.0775861
0.0768326
0.0760327
0.075199
0.0743448
0.0734846
0.0726343
0.0718107
0.0710302
0.0703093
0.0696648
0.0691144
0.0686585
0.0682884
0.00464509
0.00402374
0.00338837
0.00271051
0.00196985
0.00118244
0.000362784
-0.000478
-0.00132716
-0.00217091
-0.00299626
-0.00379059
-0.0045417
-0.00523832
-0.0058694
-0.00642447
-0.00689641
-0.00727781
-0.00756296
-0.00774618
-0.00782305
-0.00779007
-0.00764437
-0.00738367
-0.00700623
-0.0065113
-0.00589862
-0.00516836
-0.00432135
-0.00335875
-0.00228187
-0.00109227
0.000207868
0.00161546
0.00312679
0.00473753
0.00644272
0.00823716
0.0101157
0.0120738
0.0141064
0.0162076
0.0183713
0.0205904
0.0228574
0.0251647
0.0275056
0.0298736
0.0322624
0.0346646
0.0370718
0.0394762
0.0418707
0.0442477
0.0466001
0.0489204
0.0512009
0.0534346
0.0556153
0.0577358
0.0597886
0.0617669
0.0636655
0.0654789
0.0672014
0.0688278
0.0703528
0.0717709
0.0730779
0.0742711
0.0753476
0.0763042
0.0771388
0.0778508
0.0784408
0.0789089
0.0792551
0.0794801
0.0795856
0.079574
0.0794497
0.0792188
0.078888
0.0784633
0.0779501
0.0773558
0.0766905
0.0759655
0.0751922
0.0743818
0.0735459
0.0726973
0.0718501
0.0710187
0.0702166
0.0694569
0.0687546
0.0681255
0.0675532
0.0670147
0.00593736
0.00514874
0.00439351
0.00363167
0.00282594
0.00199051
0.0011385
0.000279587
-0.000576182
-0.00141838
-0.00223516
-0.00301512
-0.00374806
-0.0044242
-0.00503355
-0.0055672
-0.00601807
-0.00637965
-0.00664637
-0.00681349
-0.00687698
-0.00683346
-0.00668008
-0.00641482
-0.00603634
-0.00554403
-0.00493769
-0.00421749
-0.00338426
-0.00243903
-0.00138284
-0.000217308
0.00105516
0.00243168
0.00390873
0.00548185
0.00714612
0.00889688
0.0107296
0.0126397
0.0146222
0.0166716
0.0187818
0.0209456
0.0231554
0.0254045
0.0276868
0.0299959
0.0323254
0.0346676
0.0370146
0.0393595
0.0416952
0.0440145
0.0463099
0.0485744
0.0508005
0.0529814
0.0551109
0.0571819
0.0591867
0.0611192
0.0629745
0.064747
0.0664312
0.0680218
0.0695139
0.0709026
0.0721841
0.0733554
0.0744131
0.0753535
0.0761746
0.0768764
0.0774597
0.0779246
0.0782708
0.0784993
0.0786121
0.0786117
0.0785019
0.0782877
0.0779749
0.0775687
0.0770747
0.0764999
0.0758537
0.0751466
0.0743883
0.0735885
0.0727573
0.0719065
0.0710486
0.0701955
0.0693579
0.0685462
0.0677744
0.0670564
0.0663592
0.0656463
0.00728207
0.00632398
0.00544396
0.00459051
0.00371081
0.00281734
0.001922
0.00103332
0.000158727
-0.000692926
-0.00151182
-0.00228827
-0.00301305
-0.00367755
-0.00427318
-0.0047928
-0.00522913
-0.005577
-0.00583082
-0.00598631
-0.00604004
-0.00598894
-0.00583029
-0.0055623
-0.00518402
-0.00469471
-0.00409435
-0.00338349
-0.00256269
-0.00163279
-0.00059513
0.000548746
0.00179674
0.00314581
0.00459212
0.00613143
0.00775939
0.00947156
0.0112635
0.0131309
0.0150692
0.0170726
0.019135
0.0212494
0.0234086
0.0256065
0.0278371
0.0300941
0.0323708
0.0346597
0.0369537
0.0392463
0.0415305
0.0437989
0.0460441
0.0482596
0.0504383
0.0525734
0.0546583
0.0566858
0.0586488
0.0605417
0.0623595
0.0640968
0.0657477
0.0673074
0.0687712
0.070135
0.0713947
0.0725471
0.0735885
0.0745149
0.0753244
0.0760174
0.0765946
0.077056
0.0774015
0.0776321
0.0777499
0.0777573
0.0776574
0.0774543
0.0771529
0.0767583
0.0762761
0.075713
0.0750775
0.0743785
0.0736244
0.0728236
0.0719853
0.0711203
0.0702395
0.0693528
0.0684685
0.0675948
0.0667445
0.0659301
0.0651029
0.0642135
0.0086533
0.00752644
0.00651877
0.005568
0.00460759
0.00364791
0.00270067
0.00177211
0.000868707
-2.05809e-06
-0.000832516
-0.0016144
-0.00233954
-0.00300045
-0.00359013
-0.00410203
-0.00453022
-0.00486951
-0.00511529
-0.00526358
-0.00531107
-0.00525509
-0.00509336
-0.00482422
-0.00444702
-0.00396123
-0.00336667
-0.00266408
-0.00185436
-0.000938206
8.32594e-05
0.00120829
0.0024346
0.00375928
0.00517862
0.00668835
0.00828435
0.00996265
0.011719
0.0135493
0.0154488
0.0174118
0.019432
0.0215029
0.0236179
0.0257712
0.0279569
0.0301682
0.0323986
0.0346412
0.0368892
0.0391363
0.0413758
0.0436
0.0458018
0.047975
0.0501129
0.0522084
0.0542548
0.0562451
0.0581725
0.0600318
0.0618182
0.0635255
0.0651481
0.0666816
0.068122
0.069465
0.0707065
0.0718428
0.0728702
0.0737849
0.0745851
0.0752709
0.075843
0.0763012
0.0766456
0.0768772
0.0769978
0.0770097
0.0769151
0.0767176
0.0764221
0.0760334
0.0755568
0.0749984
0.0743655
0.0736656
0.072906
0.0720941
0.0712383
0.0703486
0.0694347
0.0685045
0.0675642
0.0666202
0.0656845
0.0647685
0.0638086
0.0627437
0.0100297
0.00873553
0.00759919
0.00654818
0.00550118
0.00446911
0.00346233
0.00248607
0.00154575
0.000647074
-0.000203243
-0.000998088
-0.00173094
-0.00239552
-0.00298606
-0.00349628
-0.00392188
-0.00425767
-0.00449976
-0.00464481
-0.00468946
-0.00463113
-0.00446827
-0.00419966
-0.00382424
-0.00334183
-0.00275296
-0.00205811
-0.00125793
-0.000353513
0.000653746
0.00176232
0.00296999
0.00427359
0.00566942
0.00715358
0.00872224
0.0103715
0.0120974
0.0138956
0.0157616
0.0176896
0.0196734
0.0217069
0.023784
0.0258992
0.0280462
0.0302182
0.0324088
0.0346119
0.0368209
0.0390294
0.0412305
0.043417
0.0455821
0.0477198
0.0498231
0.0518851
0.0538989
0.055858
0.0577562
0.0595881
0.0613485
0.0630312
0.0646306
0.0661427
0.0675641
0.0688903
0.0701168
0.0712398
0.0722558
0.0731613
0.0739544
0.0746349
0.0752031
0.0756588
0.0760018
0.0762332
0.0763547
0.0763678
0.0762745
0.0760784
0.0757841
0.0753963
0.0749199
0.0743599
0.0737222
0.0730132
0.0722393
0.0714075
0.0705256
0.0696025
0.0686466
0.0676644
0.0666605
0.0656397
0.0646131
0.0635918
0.0624984
0.0612604
0.0113935
0.00993389
0.00866932
0.00751563
0.00637847
0.00526846
0.00419607
0.00316577
0.00218146
0.00124774
0.000370417
-0.000444441
-0.00119161
-0.00186624
-0.00246335
-0.00297791
-0.00340555
-0.00374265
-0.00398547
-0.00413046
-0.00417508
-0.00411726
-0.00395522
-0.00368798
-0.00331501
-0.00283633
-0.00225259
-0.00156447
-0.000772679
0.000121658
0.00111702
0.0022117
0.00340345
0.00468912
0.0060652
0.00752797
0.00907374
0.0106988
0.0123991
0.0141704
0.016008
0.0179062
0.0198593
0.0218615
0.0239071
0.0259903
0.0281047
0.0302436
0.0324013
0.0345718
0.0367485
0.0389249
0.0410942
0.0432494
0.0453844
0.047493
0.0495678
0.0516021
0.0535894
0.0555236
0.0573985
0.0592087
0.0609485
0.0626118
0.0641932
0.0656888
0.0670953
0.0684082
0.0696229
0.0707356
0.0717429
0.0726416
0.0734298
0.0741068
0.0746724
0.0751259
0.0754673
0.0756975
0.075818
0.0758299
0.0757351
0.0755369
0.0752399
0.0748488
0.0743674
0.0737996
0.0731502
0.0724248
0.0716294
0.0707705
0.0698553
0.0688915
0.0678863
0.0668448
0.0657708
0.0646677
0.0635464
0.0624178
0.0611914
0.0597835
0.0127304
0.0111077
0.00971437
0.00845672
0.00722668
0.00603448
0.00489172
0.00380151
0.0027673
0.00179285
0.000882555
4.13213e-05
-0.000726432
-0.00141678
-0.00202547
-0.00254949
-0.00298426
-0.00332677
-0.00357386
-0.00372218
-0.00376943
-0.00371408
-0.00355458
-0.00328973
-0.00291951
-0.00244463
-0.00186566
-0.00118321
-0.00039832
0.000487624
0.00147312
0.00255641
0.00373514
0.00500622
0.00636628
0.00781177
0.00933909
0.0109446
0.0126242
0.0143735
0.0161878
0.0180615
0.0199897
0.0219668
0.0239869
0.026044
0.0281319
0.0302443
0.0323758
0.0345204
0.0366713
0.0388221
0.040966
0.0430967
0.0452079
0.0472933
0.0493455
0.051358
0.0533249
0.0552402
0.0570977
0.0588916
0.060616
0.0622649
0.0638331
0.0653169
0.0667126
0.0680156
0.0692215
0.0703268
0.0713282
0.0722227
0.073008
0.0736829
0.0742468
0.0746986
0.0750382
0.0752665
0.0753847
0.0753939
0.0752954
0.0750925
0.0747896
0.074391
0.0738995
0.0733182
0.0726511
0.0719033
0.0710806
0.0701888
0.0692343
0.0682237
0.0671628
0.0660562
0.0649067
0.0637169
0.0624983
0.0612615
0.0599029
0.0583287
0.0140279
0.0122439
0.0107218
0.00935883
0.00803354
0.0067565
0.00553901
0.00438411
0.00329514
0.00227485
0.00132622
0.000453287
-0.000340247
-0.0010514
-0.00167712
-0.0022146
-0.00266101
-0.00301296
-0.00326735
-0.00342186
-0.0034744
-0.00342319
-0.00326704
-0.00300539
-0.00263857
-0.00216729
-0.00159224
-0.000914391
-0.00013509
0.000744209
0.00172201
0.0027965
0.00396518
0.00522502
0.00657283
0.00800519
0.00951852
0.0111091
0.0127725
0.0145046
0.0163006
0.0181556
0.0200648
0.0220226
0.0240229
0.0260598
0.0281275
0.0302199
0.0323318
0.0344568
0.0365883
0.0387197
0.040845
0.0429575
0.0450511
0.0471192
0.0491548
0.0511515
0.0531039
0.0550062
0.0568517
0.0586343
0.0603483
0.0619878
0.0635477
0.0650241
0.066413
0.0677097
0.06891
0.0700109
0.0710093
0.071902
0.072686
0.07336
0.0739228
0.0743735
0.0747116
0.0749379
0.0750534
0.0750588
0.0749551
0.0747453
0.0744335
0.0740232
0.073517
0.0729172
0.0722275
0.0714527
0.070598
0.0696685
0.0686695
0.0676067
0.0664851
0.0653085
0.0640792
0.0627997
0.0614819
0.0601363
0.0586469
0.0569099
0.015273
0.0133299
0.0116799
0.01021
0.00878765
0.00742314
0.00612808
0.00490512
0.0037568
0.00268584
0.00169442
0.000785262
-3.87353e-05
-0.000775179
-0.00142259
-0.00197793
-0.00243936
-0.00280395
-0.00306888
-0.00323206
-0.00329157
-0.0032458
-0.00309393
-0.00283604
-0.00247272
-0.00200461
-0.00143267
-0.000758365
1.67681e-05
0.000891315
0.00186373
0.00293203
0.00409366
0.00534571
0.00668513
0.00810852
0.00961215
0.011192
0.0128439
0.0145635
0.0163467
0.0181886
0.0200844
0.0220284
0.0240146
0.0260373
0.028091
0.03017
0.0322684
0.0343801
0.0364983
0.038617
0.0407299
0.0428305
0.0449125
0.0469694
0.0489944
0.0509815
0.0529255
0.0548202
0.0566589
0.0584353
0.0601438
0.0617788
0.0633351
0.0648085
0.0661946
0.0674888
0.0686872
0.0697871
0.0707854
0.0716783
0.0724627
0.0731367
0.0736993
0.0741496
0.074487
0.0747119
0.0748245
0.0748252
0.074715
0.0744963
0.0741728
0.0737476
0.0732227
0.0726003
0.0718842
0.0710787
0.0701883
0.0692168
0.0681686
0.0670489
0.0658622
0.0646119
0.0632998
0.0619284
0.06051
0.0590552
0.0574362
0.0555396
0.0164532
0.0143541
0.0125767
0.0109993
0.00947814
0.00802401
0.00664919
0.00535521
0.00414405
0.00301841
0.00198015
0.00103079
0.000172208
-0.000593943
-0.00126643
-0.00184363
-0.00232331
-0.00270317
-0.00298112
-0.00315493
-0.00322267
-0.00318325
-0.00303645
-0.00278269
-0.00242256
-0.00195695
-0.00138737
-0.000715541
5.70299e-05
0.000928895
0.00189827
0.00296301
0.00412067
0.00536849
0.00670342
0.00812181
0.00961977
0.0111933
0.0128381
0.0145504
0.0163261
0.0181604
0.0200482
0.021984
0.0239618
0.0259764
0.0280223
0.0300938
0.0321849
0.0342893
0.0364006
0.0385128
0.0406198
0.0427147
0.0447912
0.046843
0.0488636
0.0508474
0.0527888
0.0546814
0.0565183
0.0582937
0.0600019
0.0616373
0.0631947
0.0646693
0.0660568
0.0673526
0.0685531
0.0696555
0.0706563
0.0715516
0.0723378
0.073013
0.0735767
0.0740277
0.0743654
0.0745893
0.0746991
0.0746947
0.0745766
0.0743471
0.0740097
0.0735668
0.0730204
0.0723726
0.0716269
0.0707874
0.0698574
0.06884
0.0677389
0.0665585
0.0653033
0.0639762
0.0625791
0.0611141
0.059594
0.0580296
0.0562821
0.054229
0.0175579
0.0153046
0.0134008
0.011716
0.0100949
0.00854939
0.00709248
0.00572503
0.00444848
0.00326492
0.00217606
0.001183
0.000286467
-0.00051311
-0.0012141
-0.00181588
-0.0023165
-0.0027142
-0.00300693
-0.00319243
-0.00326931
-0.00323711
-0.00309594
-0.00284622
-0.00248874
-0.00202504
-0.00145705
-0.000786422
-1.45868e-05
0.000856722
0.00182541
0.00288933
0.00404624
0.00529342
0.00662754
0.00804467
0.00954085
0.0111123
0.0127549
0.0144651
0.0162387
0.0180705
0.0199556
0.0218886
0.023864
0.0258766
0.0279207
0.0299906
0.0320803
0.0341835
0.0362942
0.0384063
0.0405135
0.0426089
0.0446861
0.0467393
0.0487621
0.0507486
0.0526931
0.0545888
0.0564293
0.0582088
0.0599219
0.0615628
0.0631257
0.064606
0.0659992
0.067301
0.0685075
0.0696156
0.0706216
0.0715212
0.0723111
0.0729896
0.0735559
0.074009
0.0743476
0.0745709
0.0746778
0.0746677
0.0745407
0.0742991
0.0739459
0.0734835
0.0729136
0.0722382
0.0714602
0.0705833
0.0696102
0.0685435
0.0673862
0.0661423
0.0648158
0.0634097
0.0619257
0.0603657
0.0587429
0.0570688
0.0551938
0.0529867
0.018577
0.0161709
0.0141416
0.0123492
0.0106279
0.00898956
0.00744849
0.00600549
0.00466119
0.0034173
0.002275
0.00123491
0.00029715
-0.000538155
-0.00127054
-0.00189921
-0.00242302
-0.00284029
-0.00314878
-0.00334678
-0.00343366
-0.00340927
-0.00327373
-0.0030276
-0.00267234
-0.00221003
-0.00164259
-0.000971543
-0.000198554
0.000674253
0.00164467
0.00271073
0.00387022
0.00512014
0.00645684
0.00787628
0.00937472
0.0109486
0.0125941
0.0143072
0.0160835
0.017918
0.0198058
0.0217418
0.0237206
0.0257369
0.0277851
0.0298591
0.0319533
0.0340616
0.0361779
0.038296
0.0404095
0.0425116
0.044596
0.046657
0.0486882
0.0506833
0.0526364
0.0545409
0.0563903
0.0581793
0.0599024
0.0615535
0.0631266
0.0646171
0.0660205
0.0673325
0.0685489
0.069666
0.07068
0.0715865
0.0723825
0.0730665
0.0736375
0.074094
0.0744344
0.074657
0.0747607
0.0747443
0.0746079
0.0743534
0.0739836
0.0735005
0.0729055
0.0722002
0.0713874
0.07047
0.0694508
0.068332
0.0671161
0.0658063
0.0644063
0.0629193
0.0613467
0.0596904
0.0579643
0.0561806
0.0541787
0.0518192
0.0195013
0.0169439
0.014789
0.0128888
0.0110668
0.00933482
0.00770804
0.00618764
0.00477367
0.00346732
0.0022693
0.00117972
0.000198264
-0.000674986
-0.00144081
-0.00209836
-0.0026468
-0.00308443
-0.00340942
-0.00362081
-0.00371824
-0.00370164
-0.00357131
-0.00332844
-0.00297505
-0.00251329
-0.0019449
-0.00127165
-0.00049568
0.000380729
0.00135555
0.00242685
0.00359204
0.00484775
0.00619022
0.00761569
0.00912072
0.0107018
0.0123548
0.0140754
0.0158593
0.0177016
0.0195975
0.0215422
0.0235301
0.0255558
0.0276136
0.0296976
0.0318023
0.0339218
0.0360497
0.0381798
0.0403056
0.0424205
0.0445186
0.0465936
0.0486391
0.0506486
0.052616
0.0545349
0.056399
0.058203
0.0599412
0.0616073
0.0631953
0.0647006
0.0661187
0.0674451
0.0686753
0.0698051
0.0708303
0.071747
0.0725521
0.0732443
0.0738221
0.0742835
0.0746262
0.0748484
0.0749487
0.0749259
0.0747802
0.0745128
0.074126
0.0736213
0.0729996
0.0722625
0.0714124
0.0704523
0.0693847
0.0682116
0.066935
0.0655574
0.0640821
0.0625125
0.06085
0.0590963
0.0572662
0.0553724
0.0532439
0.0507331
0.0203227
0.0176144
0.0153342
0.0133256
0.0114021
0.00957593
0.00786246
0.00626303
0.00477774
0.00340715
0.00215155
0.00101068
-1.60251e-05
-0.000929463
-0.00173016
-0.00241786
-0.00299162
-0.00345014
-0.0037924
-0.0040177
-0.00412562
-0.00411638
-0.00399093
-0.00375102
-0.00339881
-0.00293625
-0.00236522
-0.00168804
-0.000907167
-2.47028e-05
0.000957407
0.00203685
0.00321051
0.00447488
0.00582654
0.0072621
0.00877814
0.0103708
0.0120357
0.0137683
0.0155646
0.0174199
0.0193296
0.0212884
0.0232908
0.0253313
0.0274043
0.0295042
0.0316253
0.0337618
0.0359071
0.0380551
0.0401992
0.0423332
0.0444509
0.0465459
0.0486114
0.050641
0.0526285
0.0545677
0.0564525
0.058277
0.0600355
0.0617217
0.0633298
0.0648548
0.0662922
0.0676372
0.0688851
0.0700316
0.0710722
0.072003
0.0728208
0.0735241
0.0741108
0.0745785
0.0749244
0.0751468
0.0752442
0.0752157
0.0750611
0.0747812
0.0743772
0.07385
0.0732003
0.0724295
0.0715405
0.0705363
0.0694189
0.0681897
0.0668503
0.065403
0.063851
0.0621975
0.060444
0.0585919
0.0566569
0.0546521
0.0523969
0.0497353
0.0210324
0.0181737
0.0157686
0.0136511
0.0116251
0.00970401
0.00790323
0.00622366
0.00466555
0.00322926
0.00191474
0.000721181
-0.000352325
-0.00130733
-0.00214389
-0.00286228
-0.00346186
-0.00394192
-0.00430184
-0.00454086
-0.00465884
-0.00465661
-0.00453573
-0.00429812
-0.00394578
-0.00348077
-0.00290551
-0.00222264
-0.00143453
-0.000543238
0.000448939
0.00153909
0.00272388
0.0040001
0.00536482
0.0068147
0.00834595
0.00995435
0.0116353
0.0133847
0.0151984
0.017072
0.0190005
0.0209787
0.0230008
0.0250616
0.0271556
0.0292772
0.0314205
0.0335796
0.035748
0.0379197
0.0400881
0.0422471
0.0443902
0.046511
0.0486023
0.0506578
0.0526714
0.0546371
0.0565483
0.0583991
0.0601836
0.0618953
0.0635286
0.0650783
0.0665399
0.067908
0.069178
0.0703454
0.0714059
0.072355
0.0731894
0.0739067
0.0745046
0.0749801
0.0753306
0.0755545
0.0756504
0.0756172
0.0754544
0.0751621
0.0747407
0.0741902
0.0735114
0.0727061
0.0717774
0.0707282
0.0695597
0.0682728
0.0668687
0.06535
0.06372
0.0619816
0.060136
0.0581846
0.0561433
0.0540265
0.0516439
0.0488314
0.0216224
0.0186136
0.0160833
0.0138568
0.0117278
0.00971085
0.00782199
0.00606154
0.00442956
0.00292642
0.00155171
0.000304286
-0.000817393
-0.00181443
-0.0026875
-0.00343701
-0.0040629
-0.00456484
-0.00494212
-0.00519433
-0.00532201
-0.00532651
-0.00520954
-0.00497294
-0.00461882
-0.00414978
-0.0035686
-0.00287784
-0.0020798
-0.00117693
-0.000172209
0.000931139
0.00213011
0.00342198
0.00480394
0.00627229
0.00782274
0.00945092
0.0111525
0.0129234
0.0147597
0.0166566
0.0186091
0.0206116
0.0226589
0.0247456
0.0268663
0.0290152
0.0311864
0.0333737
0.0355711
0.0377722
0.0399709
0.0421605
0.0443348
0.0464869
0.0486098
0.0506973
0.0527432
0.0547414
0.0566851
0.0585682
0.0603843
0.0621272
0.063791
0.0653708
0.0668614
0.0682575
0.0695542
0.0707472
0.0718319
0.0728036
0.0736582
0.0743927
0.0750041
0.0754896
0.0758468
0.0760741
0.0761702
0.0761337
0.0759634
0.0756586
0.0752192
0.0746451
0.073937
0.0730971
0.0721284
0.0710332
0.0698123
0.0684659
0.0669956
0.0654042
0.063695
0.0618706
0.0599318
0.0578796
0.0557307
0.0535007
0.0509897
0.0480259
0.022087
0.0189269
0.0162707
0.0139352
0.0117027
0.00958891
0.007611
0.00576896
0.00406232
0.00249131
0.00105522
-0.000247111
-0.00141753
-0.00245702
-0.00336709
-0.0041482
-0.0048006
-0.00532408
-0.00571819
-0.00598324
-0.00612031
-0.00613085
-0.00601656
-0.00577941
-0.00542196
-0.00494724
-0.00435804
-0.00365676
-0.00284604
-0.00192912
-0.000909446
0.00021005
0.00142694
0.00273869
0.00414207
0.00563283
0.00720646
0.0088588
0.0105857
0.0123833
0.0142473
0.0161724
0.0181537
0.020186
0.0222639
0.0243822
0.0265353
0.0287172
0.0309218
0.0331431
0.0353751
0.0376116
0.0398463
0.0420724
0.0442834
0.0464725
0.048633
0.0507585
0.0528429
0.0548797
0.056862
0.0587833
0.0606371
0.062417
0.064117
0.0657321
0.0672569
0.068686
0.0700144
0.0712377
0.0723511
0.0733494
0.0742279
0.0749828
0.0756109
0.0761093
0.0764759
0.0767091
0.0768073
0.0767687
0.0765914
0.0762742
0.0758167
0.0752191
0.0744823
0.0736082
0.0725992
0.071457
0.070182
0.0687747
0.0672369
0.0655717
0.0637821
0.0618702
0.0598365
0.0576817
0.0554239
0.0530796
0.0504392
0.0473228
0.02242
0.0191073
0.0163242
0.0138787
0.0115424
0.00933111
0.0072632
0.00533854
0.00355629
0.00191642
0.000418232
-0.000939766
-0.0021592
-0.00324189
-0.0041893
-0.00500213
-0.00568077
-0.00622528
-0.00663593
-0.00691357
-0.00705933
-0.00707469
-0.00696157
-0.00672239
-0.00636009
-0.00587769
-0.00527786
-0.00456333
-0.00373753
-0.00280425
-0.00176673
-0.000627347
0.000611713
0.00194753
0.00337624
0.00489332
0.00649447
0.00817582
0.00993327
0.0117626
0.0136589
0.0156172
0.0176326
0.0197001
0.0218144
0.02397
0.0261611
0.0283816
0.0306254
0.0328866
0.0351591
0.037437
0.0397135
0.0419818
0.0442352
0.0464673
0.0486714
0.0508411
0.0529701
0.0550515
0.0570783
0.0590439
0.0609415
0.0627645
0.0645067
0.0661626
0.0677269
0.0691943
0.0705596
0.0718181
0.0729647
0.0739936
0.0748996
0.0756787
0.0763272
0.0768423
0.0772215
0.0774633
0.0775656
0.0775262
0.0773426
0.0770136
0.0765388
0.0759188
0.0751543
0.0742464
0.0731966
0.0720061
0.0706756
0.0692061
0.0675999
0.0658597
0.0639882
0.0619871
0.0598565
0.0575975
0.0552292
0.0527693
0.0499979
0.046727
0.0226152
0.0191489
0.0162374
0.0136807
0.0112397
0.00893024
0.00677128
0.00476283
0.00290402
0.00119454
-0.000366363
-0.00178051
-0.0030496
-0.00417597
-0.00516077
-0.00600508
-0.00670958
-0.00727487
-0.00770183
-0.00799134
-0.00814459
-0.00816337
-0.00805003
-0.00780734
-0.00743825
-0.00694563
-0.0063325
-0.00560239
-0.00475933
-0.00380696
-0.00274793
-0.00158438
-0.000318954
0.00104474
0.00250254
0.00405018
0.0056837
0.00739922
0.00919225
0.011058
0.0129917
0.0149883
0.0170432
0.0191517
0.0213082
0.0235069
0.0257416
0.0280064
0.0302953
0.0326025
0.0349217
0.0372468
0.0395709
0.0418873
0.0441894
0.0464707
0.0487246
0.0509447
0.0531242
0.0552561
0.0573334
0.0593493
0.061297
0.0631695
0.06496
0.0666627
0.0682722
0.0697832
0.0711906
0.0724893
0.0736736
0.0747374
0.0756752
0.0764825
0.0771557
0.0776914
0.0780871
0.0783402
0.0784487
0.0784097
0.0782213
0.0778821
0.077392
0.076751
0.0759595
0.0750179
0.0739267
0.0726871
0.0713003
0.069768
0.0680922
0.0662755
0.0643202
0.0622279
0.0599984
0.0576334
0.0551529
0.0525754
0.049671
0.0462431
0.0226659
0.019045
0.0160038
0.0133345
0.0107874
0.00837856
0.00612753
0.00403434
0.0020981
0.000318403
-0.00130598
-0.00277678
-0.00409619
-0.00526617
-0.00628822
-0.00716377
-0.00789389
-0.00847973
-0.00892224
-0.00922238
-0.00938178
-0.00940265
-0.00928761
-0.00903947
-0.00866112
-0.00815573
-0.00752704
-0.00677926
-0.00591634
-0.00494134
-0.00385663
-0.00266481
-0.00136932
2.58629e-05
0.00151686
0.00309982
0.00477086
0.0065256
0.00835898
0.010266
0.0122421
0.0142825
0.0163829
0.0185382
0.0207425
0.0229898
0.025274
0.027589
0.0299293
0.0322887
0.0346608
0.0370391
0.039417
0.0417877
0.0441449
0.0464819
0.0487919
0.0510683
0.0533044
0.0554929
0.0576268
0.0596992
0.0617033
0.0636315
0.0654766
0.0672323
0.0688929
0.0704531
0.0719078
0.0732517
0.0744785
0.0755819
0.076556
0.0773961
0.0780983
0.0786588
0.0790743
0.0793419
0.0794588
0.0794226
0.0792316
0.0788847
0.0783813
0.0777208
0.0769029
0.0759272
0.0747943
0.0735055
0.0720624
0.0704666
0.06872
0.0668251
0.064784
0.0625983
0.0602682
0.0577952
0.0552002
0.0525028
0.0494626
0.0458744
0.0225655
0.0187884
0.0156163
0.0128327
0.0101778
0.00766825
0.00532421
0.00314546
0.00113085
-0.00071995
-0.00240837
-0.00393629
-0.00530618
-0.00651968
-0.00757885
-0.00848538
-0.00924078
-0.00984636
-0.0103032
-0.0106126
-0.0107768
-0.0107983
-0.0106796
-0.0104235
-0.0100334
-0.00951306
-0.00886684
-0.00809889
-0.00721265
-0.00621092
-0.00509654
-0.00387295
-0.00254399
-0.00111336
0.000415519
0.00203891
0.00375243
0.00555109
0.00742948
0.00938282
0.0114068
0.013497
0.0156486
0.0178563
0.020114
0.0224156
0.0247552
0.0271269
0.0295248
0.0319425
0.0343736
0.0368115
0.0392496
0.0416814
0.0441004
0.0464997
0.0488722
0.0512111
0.0535097
0.055761
0.057958
0.0600935
0.0621602
0.0641503
0.0660561
0.067871
0.0695889
0.0712043
0.0727118
0.074106
0.0753803
0.0765282
0.0775435
0.0784212
0.0791569
0.0797462
0.0801852
0.0804703
0.0805988
0.0805684
0.0803778
0.0800258
0.0795112
0.0788325
0.0779885
0.076979
0.0758047
0.0744672
0.0729678
0.0713079
0.0694892
0.0675143
0.0653854
0.0631042
0.0606712
0.0580878
0.0553759