/*--------------------------------*- C++ -*----------------------------------*\
  =========                 |
  \\      /  F ield         | OpenFOAM: The Open Source CFD Toolbox
   \\    /   O peration     | Website:  https://openfoam.org
    \\  /    A nd           | Version:  11
     \\/     M anipulation  |
\*---------------------------------------------------------------------------*/
FoamFile
{
    format      ascii;
    class       surfaceScalarField;
    location    "4";
    object      phi;
}
// * * * * * * * * * * * * * * * * * * * * * * * * * * * * * * * * * * * * * //

dimensions      [0 3 -1 0 0 0 0];

internalField   nonuniform List<scalar> 
19980
(
6.5348e-07
-6.53211e-07
2.20413e-06
-1.55071e-06
3.91711e-06
-1.71276e-06
5.24604e-06
-1.32905e-06
5.88344e-06
-6.3739e-07
5.66434e-06
2.18852e-07
4.51493e-06
1.14946e-06
2.41532e-06
2.0996e-06
-6.19955e-07
3.03536e-06
-4.55507e-06
3.9351e-06
-9.34235e-06
4.78756e-06
-1.49275e-05
5.58526e-06
-2.12514e-05
6.32396e-06
-2.82502e-05
6.99882e-06
-3.58602e-05
7.61011e-06
-4.40186e-05
8.15835e-06
-5.26623e-05
8.64372e-06
-6.1729e-05
9.06682e-06
-7.11586e-05
9.42961e-06
-8.08915e-05
9.73287e-06
-9.08716e-05
9.98014e-06
-0.000101044
1.01727e-05
-0.000111357
1.03126e-05
-0.000121759
1.0402e-05
-0.000132201
1.04413e-05
-0.000142632
1.04316e-05
-0.000153008
1.03756e-05
-0.000163283
1.0275e-05
-0.000173413
1.01305e-05
-0.000183357
9.94453e-06
-0.000193077
9.71952e-06
-0.000202534
9.45722e-06
-0.000211694
9.15974e-06
-0.000220523
8.82922e-06
-0.00022899
8.46713e-06
-0.000237064
8.07433e-06
-0.000244717
7.6525e-06
-0.000251921
7.20375e-06
-0.00025865
6.72979e-06
-0.000264883
6.23247e-06
-0.000270597
5.71376e-06
-0.000275772
5.17563e-06
-0.000280392
4.61992e-06
-0.00028444
4.04813e-06
-0.000287902
3.46182e-06
-0.000290765
2.86288e-06
-0.000293019
2.25362e-06
-0.000294655
1.63605e-06
-0.000295667
1.01198e-06
-0.000296051
3.84052e-07
-0.000295805
-2.45567e-07
-0.000294929
-8.75706e-07
-0.000293425
-1.5043e-06
-0.000291296
-2.12871e-06
-0.000288549
-2.74712e-06
-0.000285192
-3.35758e-06
-0.000281234
-3.95757e-06
-0.000276689
-4.54544e-06
-0.000271569
-5.11988e-06
-0.00026589
-5.67825e-06
-0.000259673
-6.21764e-06
-0.000252936
-6.73634e-06
-0.000245704
-7.23272e-06
-0.000238
-7.70407e-06
-0.000229852
-8.14792e-06
-0.000221289
-8.5628e-06
-0.000212342
-8.94686e-06
-0.000203045
-9.29718e-06
-0.000193434
-9.61112e-06
-0.000183547
-9.88664e-06
-0.000173426
-1.01212e-05
-0.000163114
-1.03118e-05
-0.000152658
-1.04563e-05
-0.000142104
-1.05536e-05
-0.000131502
-1.0602e-05
-0.000120903
-1.05992e-05
-0.00011036
-1.05433e-05
-9.99267e-05
-1.04334e-05
-8.96582e-05
-1.02685e-05
-7.96107e-05
-1.00474e-05
-6.98421e-05
-9.76853e-06
-6.04108e-05
-9.43127e-06
-5.13757e-05
-9.03515e-06
-4.27962e-05
-8.57952e-06
-3.47326e-05
-8.06367e-06
-2.72451e-05
-7.48751e-06
-2.03931e-05
-6.85204e-06
-1.42339e-05
-6.15927e-06
-8.82192e-06
-5.41193e-06
-4.20812e-06
-4.61384e-06
-4.37586e-07
-3.77061e-06
2.45294e-06
-2.89055e-06
4.43924e-06
-1.98629e-06
5.5166e-06
-1.07737e-06
5.71122e-06
-1.94625e-07
5.09819e-06
6.13004e-07
3.82976e-06
1.26843e-06
2.18334e-06
1.64645e-06
6.51932e-07
1.53137e-06
6.51902e-07
1.41993e-06
-2.07334e-06
3.90271e-06
-4.03329e-06
6.26258e-06
-4.07263e-06
7.57963e-06
-2.64607e-06
7.21334e-06
-2.70736e-07
4.77683e-06
2.65555e-06
5.33847e-08
5.87275e-06
-7.04673e-06
9.19979e-06
-1.65329e-05
1.25214e-05
-2.8353e-05
1.57551e-05
-4.24158e-05
1.88502e-05
-5.86018e-05
2.17712e-05
-7.6773e-05
2.44951e-05
-9.67802e-05
2.70059e-05
-0.000118465
2.92953e-05
-0.000141666
3.13588e-05
-0.000166218
3.31956e-05
-0.000191957
3.48064e-05
-0.00021872
3.61925e-05
-0.000246347
3.73599e-05
-0.00027468
3.8313e-05
-0.000303565
3.90574e-05
-0.000332851
3.95996e-05
-0.000362395
3.99456e-05
-0.000392053
4.00998e-05
-0.00042169
4.00683e-05
-0.000451172
3.98577e-05
-0.000480371
3.94743e-05
-0.000509165
3.89244e-05
-0.000537436
3.82156e-05
-0.000565072
3.73553e-05
-0.000591966
3.63507e-05
-0.000618016
3.52095e-05
-0.000643125
3.39389e-05
-0.000667204
3.25453e-05
-0.000690164
3.10346e-05
-0.000711925
2.94136e-05
-0.00073241
2.76891e-05
-0.000751548
2.5868e-05
-0.000769273
2.39573e-05
-0.000785524
2.19645e-05
-0.000800245
1.98967e-05
-0.000813386
1.7761e-05
-0.000824902
1.5564e-05
-0.000834753
1.33128e-05
-0.000842905
1.10144e-05
-0.000849327
8.67609e-06
-0.000853997
6.30572e-06
-0.000856896
3.91111e-06
-0.000858012
1.50005e-06
-0.000857338
-9.19432e-07
-0.000854874
-3.34008e-06
-0.000850623
-5.75478e-06
-0.000844597
-8.1553e-06
-0.00083681
-1.05332e-05
-0.000827287
-1.28808e-05
-0.000816055
-1.51902e-05
-0.000803146
-1.74536e-05
-0.000788604
-1.96628e-05
-0.000772472
-2.18097e-05
-0.000754804
-2.38857e-05
-0.000735658
-2.58823e-05
-0.0007151
-2.7791e-05
-0.0006932
-2.96036e-05
-0.000670036
-3.13118e-05
-0.000645692
-3.29069e-05
-0.000620259
-3.43804e-05
-0.000593832
-3.57237e-05
-0.000566516
-3.69278e-05
-0.000538419
-3.79833e-05
-0.000509659
-3.88814e-05
-0.000480357
-3.96136e-05
-0.000450641
-4.0172e-05
-0.000420645
-4.05493e-05
-0.000390509
-4.07385e-05
-0.000360375
-4.0733e-05
-0.000330391
-4.05269e-05
-0.00030071
-4.01151e-05
-0.000271485
-3.94929e-05
-0.000242877
-3.8656e-05
-0.000215045
-3.76006e-05
-0.000188152
-3.63243e-05
-0.000162362
-3.48252e-05
-0.000137838
-3.31027e-05
-0.000114745
-3.11575e-05
-9.32396e-05
-2.89924e-05
-7.34788e-05
-2.66129e-05
-5.561e-05
-2.40281e-05
-3.97705e-05
-2.12515e-05
-2.60823e-05
-1.8302e-05
-1.46468e-05
-1.52061e-05
-5.53652e-06
-1.2001e-05
1.21676e-06
-8.73967e-06
5.63866e-06
-5.49926e-06
7.83599e-06
-2.3919e-06
8.02984e-06
4.19187e-07
6.60074e-06
2.69762e-06
4.14308e-06
4.10419e-06
1.52435e-06
4.15009e-06
2.17632e-06
1.40819e-06
-3.48134e-06
3.51998e-06
-6.14536e-06
4.94291e-06
-5.49526e-06
4.59546e-06
-2.29882e-06
1.70713e-06
2.61749e-06
-4.23436e-06
8.59693e-06
-1.35336e-05
1.51721e-05
-2.63435e-05
2.20098e-05
-4.26981e-05
2.88761e-05
-6.25511e-05
3.56083e-05
-8.57898e-05
4.2089e-05
-0.000112258
4.82392e-05
-0.000141765
5.40025e-05
-0.000174099
5.93397e-05
-0.00020903
6.42263e-05
-0.00024632
6.86485e-05
-0.00028572
7.25959e-05
-0.000326982
7.60686e-05
-0.000369856
7.90669e-05
-0.000414093
8.15971e-05
-0.000459448
8.36669e-05
-0.000505677
8.52867e-05
-0.000552544
8.64668e-05
-0.000599818
8.72192e-05
-0.000647273
8.7555e-05
-0.000694692
8.74872e-05
-0.000741863
8.70293e-05
-0.000788584
8.61949e-05
-0.000834658
8.49986e-05
-0.000879898
8.34554e-05
-0.000924123
8.1581e-05
-0.000967163
7.93907e-05
-0.00100885
7.69003e-05
-0.00104904
7.41252e-05
-0.00108757
7.10801e-05
-0.00112432
6.77796e-05
-0.00115914
6.42385e-05
-0.00119193
6.04717e-05
-0.00122255
5.64946e-05
-0.00125092
5.23224e-05
-0.00127693
4.79709e-05
-0.00130048
4.34556e-05
-0.00132152
3.87918e-05
-0.00133995
3.39949e-05
-0.00135571
2.90802e-05
-0.00136876
2.40634e-05
-0.00137905
1.89605e-05
-0.00138653
1.37876e-05
-0.00139118
8.56137e-06
-0.00139298
3.29889e-06
-0.00139191
-1.98342e-06
-0.00138798
-7.26925e-06
-0.0013812
-1.25417e-05
-0.00137157
-1.77836e-05
-0.00135912
-2.29777e-05
-0.0013439
-2.81063e-05
-0.00132594
-3.31519e-05
-0.00130529
-3.8097e-05
-0.00128203
-4.29239e-05
-0.00125623
-4.76142e-05
-0.00122796
-5.21494e-05
-0.00119734
-5.65112e-05
-0.00116445
-6.06813e-05
-0.00112941
-6.46405e-05
-0.00109235
-6.83702e-05
-0.0010534
-7.18522e-05
-0.00101272
-7.50677e-05
-0.000970444
-7.79975e-05
-0.000926749
-8.06226e-05
-0.000881808
-8.29243e-05
-0.000835805
-8.48841e-05
-0.000788935
-8.64839e-05
-0.0007414
-8.77069e-05
-0.000693412
-8.85372e-05
-0.000645191
-8.89599e-05
-0.000596963
-8.89608e-05
-0.000548963
-8.85271e-05
-0.00050143
-8.76478e-05
-0.00045461
-8.63129e-05
-0.000408752
-8.45138e-05
-0.000364109
-8.22436e-05
-0.000320936
-7.94978e-05
-0.000279487
-7.62742e-05
-0.000240016
-7.25738e-05
-0.000202772
-6.84012e-05
-0.000167998
-6.37659e-05
-0.000135928
-5.86831e-05
-0.00010678
-5.31761e-05
-8.07538e-05
-4.72777e-05
-5.80223e-05
-4.10336e-05
-3.87227e-05
-3.45059e-05
-2.29438e-05
-2.77798e-05
-1.07106e-05
-2.09727e-05
-1.96324e-06
-1.42467e-05
3.47102e-06
-7.8263e-06
5.9124e-06
-2.0222e-06
5.87217e-06
2.73793e-06
4.10031e-06
5.87601e-06
1.63921e-06
6.61124e-06
3.81553e-06
9.76647e-07
-4.45787e-06
1.93722e-06
-7.10598e-06
1.46868e-06
-5.02679e-06
-1.55774e-06
7.27614e-07
-7.9594e-06
9.01929e-06
-1.82967e-05
1.89341e-05
-3.29161e-05
2.97916e-05
-5.20028e-05
4.10964e-05
-7.56108e-05
5.2484e-05
-0.000103693
6.36902e-05
-0.000136124
7.452e-05
-0.00017272
8.48353e-05
-0.000213251
9.45338e-05
-0.000257456
0.000103544
-0.000305048
0.000111819
-0.000355723
0.000119323
-0.000409168
0.000126041
-0.00046506
0.000131961
-0.000523075
0.000137082
-0.000582888
0.00014141
-0.000644176
0.000144955
-0.000706618
0.000147729
-0.000769901
0.00014975
-0.000833717
0.000151035
-0.000897767
0.000151605
-0.000961758
0.000151479
-0.00102541
0.000150681
-0.00108845
0.000149234
-0.00115061
0.000147162
-0.00121165
0.000144492
-0.00127132
0.000141248
-0.00132938
0.000137458
-0.00138563
0.000133146
-0.00143985
0.000128341
-0.00149183
0.000123067
-0.0015414
0.000117351
-0.00158838
0.000111218
-0.00163261
0.000104695
-0.00167392
9.78086e-05
-0.00171218
9.05846e-05
-0.00174726
8.30503e-05
-0.00177904
7.52324e-05
-0.0018074
6.71575e-05
-0.00183226
5.88525e-05
-0.00185353
5.03444e-05
-0.00187112
4.16602e-05
-0.00188499
3.28274e-05
-0.00189508
2.38742e-05
-0.00190134
1.48288e-05
-0.00190377
5.71978e-06
-0.00190232
-3.42426e-06
-0.00189702
-1.25746e-05
-0.00188786
-2.1702e-05
-0.00187487
-3.07767e-05
-0.00185807
-3.97687e-05
-0.00183753
-4.86477e-05
-0.0018133
-5.73837e-05
-0.00178545
-6.59456e-05
-0.00175407
-7.4302e-05
-0.00171927
-8.24215e-05
-0.00168114
-9.02725e-05
-0.00163983
-9.78227e-05
-0.00159547
-0.00010504
-0.00154822
-0.000111892
-0.00149825
-0.000118346
-0.00144573
-0.000124371
-0.00139086
-0.000129932
-0.00133386
-0.000134999
-0.00127494
-0.00013954
-0.00121435
-0.000143522
-0.00115232
-0.000146914
-0.00108911
-0.000149686
-0.00102501
-0.00015181
-0.000960289
-0.00015326
-0.000895241
-0.000154008
-0.00083017
-0.000154032
-0.000765387
-0.00015331
-0.000701211
-0.000151824
-0.000637967
-0.000149556
-0.000575986
-0.000146495
-0.000515601
-0.000142629
-0.000457147
-0.000137952
-0.000400957
-0.000132464
-0.000347362
-0.000126169
-0.000296684
-0.000119079
-0.000249236
-0.000111214
-0.000205315
-0.000102604
-0.000165198
-9.32937e-05
-0.000129131
-8.33442e-05
-9.7327e-05
-7.28381e-05
-6.99468e-05
-6.18861e-05
-4.70906e-05
-5.0636e-05
-2.87781e-05
-3.92852e-05
-1.49269e-05
-2.8098e-05
-5.32558e-06
-1.74276e-05
3.98232e-07
-7.74586e-06
2.81561e-06
3.20551e-07
2.73856e-06
5.95299e-06
1.27535e-06
8.07443e-06
5.09081e-06
3.22467e-07
-4.78031e-06
-3.73337e-07
-6.41006e-06
-3.40444e-06
-1.99567e-06
-9.84388e-06
7.16724e-06
-2.04887e-05
1.96641e-05
-3.58948e-05
3.43403e-05
-5.64176e-05
5.03144e-05
-8.22466e-05
6.69255e-05
-0.000113438
8.36756e-05
-0.000149938
0.000100191
-0.00019161
0.000116191
-0.000238242
0.000131467
-0.000289574
0.000145866
-0.000345304
0.000159274
-0.000405097
0.000171611
-0.000468596
0.000182823
-0.00053543
0.000192875
-0.000605214
0.000201745
-0.000677561
0.000209429
-0.000752078
0.000215927
-0.000828375
0.000221252
-0.000906065
0.000225419
-0.000984764
0.000228449
-0.0010641
0.000230368
-0.0011437
0.000231205
-0.00122321
0.00023099
-0.00130228
0.000229756
-0.00138059
0.000227537
-0.00145779
0.00022437
-0.00153359
0.000220292
-0.00160769
0.000215343
-0.00167979
0.000209561
-0.00174963
0.000202985
-0.00181695
0.000195656
-0.00188149
0.000187613
-0.00194304
0.000178895
-0.00200136
0.000169543
-0.00205626
0.000159596
-0.00210755
0.000149095
-0.00215504
0.000138081
-0.00219859
0.000126593
-0.00223803
0.000114673
-0.00227323
0.000102362
-0.00230408
8.9701e-05
-0.00233047
7.67303e-05
-0.0023523
6.34921e-05
-0.0023695
5.00281e-05
-0.00238201
3.6381e-05
-0.00238977
2.25937e-05
-0.00239276
8.70946e-06
-0.00239096
-5.2283e-06
-0.00238435
-1.91756e-05
-0.00237297
-3.30878e-05
-0.00235683
-4.69195e-05
-0.00233597
-6.06251e-05
-0.00231046
-7.41585e-05
-0.00228037
-8.74733e-05
-0.00224579
-0.000100522
-0.00220684
-0.000113258
-0.00216363
-0.000125632
-0.0021163
-0.000137596
-0.00206502
-0.000149101
-0.00200997
-0.000160098
-0.00195132
-0.000170537
-0.0018893
-0.00018037
-0.00182412
-0.000189548
-0.00175603
-0.000198021
-0.00168529
-0.00020574
-0.00161217
-0.000212658
-0.00153697
-0.000218727
-0.00145998
-0.000223902
-0.00138153
-0.000228136
-0.00130195
-0.000231389
-0.00122159
-0.000233619
-0.00114081
-0.000234789
-0.00105998
-0.000234864
-0.000979475
-0.000233812
-0.000899693
-0.000231606
-0.000821027
-0.000228223
-0.000743878
-0.000223644
-0.000668651
-0.000217855
-0.000595751
-0.000210852
-0.000525581
-0.000202635
-0.000458535
-0.000193215
-0.000395
-0.000182614
-0.000335348
-0.000170866
-0.000279928
-0.000158024
-0.000229063
-0.000144158
-0.000183042
-0.000129365
-0.000142107
-0.000113774
-0.000106441
-9.75522e-05
-7.61558e-05
-8.09211e-05
-5.12732e-05
-6.41679e-05
-3.17037e-05
-4.76675e-05
-1.72235e-05
-3.19077e-05
-7.44659e-06
-1.75228e-05
-1.79364e-06
-5.33253e-06
5.43418e-07
3.61599e-06
6.47598e-07
7.97019e-06
5.73838e-06
-4.4854e-07
-4.3318e-06
-3.13061e-06
-3.72802e-06
-9.17972e-06
4.05322e-06
-1.95525e-05
1.75399e-05
-3.49759e-05
3.50877e-05
-5.59605e-05
5.53246e-05
-8.28361e-05
7.71901e-05
-0.000115777
9.98661e-05
-0.000154824
0.000122723
-0.00019991
0.000145277
-0.000250875
0.000167157
-0.000307488
0.00018808
-0.000369456
0.000207834
-0.000436441
0.000226259
-0.000508068
0.000243238
-0.000583936
0.00025869
-0.000663619
0.000272558
-0.000746684
0.00028481
-0.000832684
0.000295429
-0.00092117
0.000304414
-0.00101169
0.000311775
-0.0011038
0.00031753
-0.00119706
0.000321706
-0.00129103
0.000324334
-0.00138527
0.000325453
-0.00147939
0.000325104
-0.00157296
0.00032333
-0.00166561
0.000320179
-0.00175694
0.000315701
-0.00184659
0.000309948
-0.00193422
0.000302971
-0.00201949
0.000294825
-0.00210206
0.000285565
-0.00218166
0.000275246
-0.00225797
0.000263923
-0.00233072
0.000251653
-0.00239967
0.000238491
-0.00246457
0.000224493
-0.00252519
0.000209716
-0.00258133
0.000194218
-0.00263279
0.000178055
-0.0026794
0.000161285
-0.002721
0.000143964
-0.00275745
0.000126151
-0.00278863
0.000107904
-0.00281442
8.92819e-05
-0.00283473
7.03426e-05
-0.0028495
5.11464e-05
-0.00285866
3.17537e-05
-0.00286217
1.22249e-05
-0.00286002
-7.37878e-06
-0.0028522
-2.69954e-05
-0.00283873
-4.65619e-05
-0.00281963
-6.60148e-05
-0.00279497
-8.52899e-05
-0.0027648
-0.000104323
-0.00272923
-0.000123047
-0.00268835
-0.000141397
-0.00264231
-0.000159306
-0.00259123
-0.000176705
-0.0025353
-0.000193528
-0.0024747
-0.000209704
-0.00240963
-0.000225166
-0.00234032
-0.000239844
-0.00226702
-0.000253669
-0.00219
-0.000266573
-0.00210953
-0.000278488
-0.00202592
-0.000289345
-0.00193951
-0.000299078
-0.00185061
-0.000307621
-0.0017596
-0.000314911
-0.00166685
-0.000320887
-0.00157275
-0.00032549
-0.0014777
-0.000328665
-0.00138213
-0.000330359
-0.00128647
-0.000330526
-0.00119116
-0.000329123
-0.00109665
-0.000326112
-0.00100341
-0.000321465
-0.000911901
-0.000315156
-0.000822585
-0.000307171
-0.000735932
-0.000297505
-0.000652404
-0.000286163
-0.000572455
-0.000273164
-0.000496524
-0.000258544
-0.000425034
-0.000242356
-0.000358382
-0.000224677
-0.00029693
-0.000205609
-0.000241002
-0.000185293
-0.000190869
-0.000163907
-0.000146736
-0.000141685
-0.000108731
-0.000118926
-7.68879e-05
-9.60111e-05
-5.11265e-05
-7.34289e-05
-3.12335e-05
-5.18006e-05
-1.68406e-05
-3.19158e-05
-7.39935e-06
-1.47738e-05
-2.15681e-06
-1.62644e-06
-1.22741e-07
5.93606e-06
5.61567e-06
-1.27765e-06
-3.05401e-06
-6.13574e-06
1.12996e-06
-1.54957e-05
1.34133e-05
-3.01551e-05
3.21993e-05
-5.07304e-05
5.5663e-05
-7.76607e-05
8.22549e-05
-0.000111224
0.000110754
-0.000151558
0.0001402
-0.000198675
0.00016984
-0.000252481
0.000199083
-0.000312793
0.000227468
-0.00037935
0.000254637
-0.00045183
0.000280315
-0.000529861
0.000304291
-0.000613031
0.000326408
-0.000700896
0.000346555
-0.00079299
0.000364651
-0.000888829
0.000380649
-0.000987918
0.000394518
-0.00108976
0.000406253
-0.00119384
0.000415861
-0.00129968
0.000423362
-0.00140676
0.000428787
-0.0015146
0.000432174
-0.00162272
0.000433571
-0.00173064
0.000433029
-0.00183791
0.000430604
-0.00194409
0.000426359
-0.00204875
0.000420356
-0.00215146
0.000412662
-0.00225184
0.000403347
-0.0023495
0.000392481
-0.00244407
0.000380136
-0.0025352
0.000366384
-0.00262258
0.000351298
-0.00270588
0.000334954
-0.00278481
0.000317423
-0.0028591
0.000298783
-0.00292849
0.000279108
-0.00299275
0.000258473
-0.00305165
0.000236954
-0.00310499
0.000214628
-0.0031526
0.000191571
-0.00319431
0.00016786
-0.00322997
0.000143572
-0.00325948
0.000118785
-0.00328271
9.3578e-05
-0.0032996
6.80302e-05
-0.00331006
4.22213e-05
-0.00331407
1.6232e-05
-0.00331159
-9.8561e-06
-0.00330263
-3.59601e-05
-0.00328719
-6.19968e-05
-0.00326533
-8.78819e-05
-0.00323709
-0.00011353
-0.00320256
-0.000138854
-0.00316183
-0.000163768
-0.00311505
-0.000188183
-0.00306234
-0.00021201
-0.00300389
-0.000235159
-0.00293988
-0.00025754
-0.00287052
-0.000279062
-0.00279605
-0.000299634
-0.00271673
-0.000319163
-0.00263284
-0.000337559
-0.00254468
-0.000354732
-0.00245258
-0.000370591
-0.00235688
-0.000385046
-0.00225795
-0.000398011
-0.00215617
-0.000409399
-0.00205195
-0.000419127
-0.00194573
-0.000427117
-0.00183793
-0.00043329
-0.00172901
-0.000437576
-0.00161947
-0.000439907
-0.00150977
-0.000440222
-0.00140043
-0.000438467
-0.00129194
-0.000434595
-0.00118484
-0.000428569
-0.00107964
-0.00042036
-0.000976856
-0.000409952
-0.00087702
-0.000397341
-0.000780644
-0.000382539
-0.000688231
-0.000365576
-0.000600272
-0.000346504
-0.000517232
-0.000325396
-0.000439549
-0.000302359
-0.000367626
-0.000277533
-0.000301816
-0.000251102
-0.00024242
-0.000223303
-0.000189669
-0.000194436
-0.000143714
-0.00016488
-0.000104611
-0.000135114
-7.23048e-05
-0.000105736
-4.66121e-05
-7.74933e-05
-2.72073e-05
-5.13206e-05
-1.3604e-05
-2.8377e-05
-5.14059e-06
-1.00899e-05
-9.62879e-07
1.75835e-06
4.65281e-06
-2.12924e-06
-9.24792e-07
-9.26366e-06
8.26443e-06
-2.21027e-05
2.62524e-05
-4.12675e-05
5.13639e-05
-6.72415e-05
8.1637e-05
-0.000100368
0.000115381
-0.000140856
0.000151241
-0.000188787
0.000188131
-0.000244133
0.000225185
-0.000306763
0.000261713
-0.000376462
0.000297166
-0.000452936
0.000331112
-0.000535833
0.000363211
-0.000624745
0.000393203
-0.000719225
0.000420888
-0.00081879
0.00044612
-0.000922935
0.000468796
-0.00103113
0.000488845
-0.00114284
0.000506229
-0.00125752
0.000520931
-0.00137462
0.000532957
-0.00149358
0.000542325
-0.00161387
0.000549072
-0.00173493
0.000553243
-0.00185626
0.000554892
-0.00197731
0.000554084
-0.00209759
0.000550888
-0.00221662
0.000545379
-0.0023339
0.000537637
-0.00244898
0.000527745
-0.00256142
0.000515789
-0.0026708
0.000501857
-0.0027767
0.000486041
-0.00287875
0.000468432
-0.00297658
0.000449123
-0.00306983
0.000428207
-0.00315818
0.000405779
-0.00324134
0.000381935
-0.003319
0.000356771
-0.00339091
0.000330382
-0.00345682
0.000302865
-0.00351651
0.000274318
-0.00356978
0.000244839
-0.00361644
0.000214524
-0.00365634
0.000183474
-0.00368935
0.000151789
-0.00371534
0.000119567
-0.00373422
8.6911e-05
-0.00374592
5.39227e-05
-0.00375039
2.07051e-05
-0.00374761
-1.26377e-05
-0.00373757
-4.6e-05
-0.00372029
-7.92752e-05
-0.00369582
-0.000112355
-0.00366422
-0.000145132
-0.00362558
-0.000177495
-0.00358001
-0.000209333
-0.00352766
-0.000240532
-0.00346869
-0.00027098
-0.00340329
-0.000300563
-0.00333166
-0.000329164
-0.00325406
-0.000356668
-0.00317073
-0.000382959
-0.00308197
-0.000407921
-0.0029881
-0.000431438
-0.00288943
-0.000453395
-0.00278635
-0.000473677
-0.00267922
-0.000492172
-0.00256846
-0.000508769
-0.0024545
-0.000523361
-0.00233778
-0.000535843
-0.00221879
-0.000546114
-0.002098
-0.00055408
-0.00197592
-0.000559649
-0.00185309
-0.000562739
-0.00173004
-0.000563275
-0.00160731
-0.00056119
-0.00148548
-0.000556427
-0.00136511
-0.00054894
-0.00124677
-0.000538698
-0.00113104
-0.000525683
-0.00101849
-0.000509894
-0.000909676
-0.000491352
-0.000805154
-0.000470098
-0.000705456
-0.000446202
-0.00061109
-0.000419762
-0.000522532
-0.000390917
-0.000440219
-0.000359846
-0.000364541
-0.000326781
-0.000295828
-0.000292016
-0.000234341
-0.000255923
-0.000180262
-0.000218959
-0.000133679
-0.000181697
-9.45753e-05
-0.00014484
-6.28151e-05
-0.000109253
-3.81352e-05
-7.60005e-05
-2.01333e-05
-4.63789e-05
-8.26275e-06
-2.19606e-05
-1.82955e-06
-4.67481e-06
2.8232e-06
-2.9823e-06
2.05751e-06
-1.24293e-05
1.77115e-05
-2.88315e-05
4.26545e-05
-5.26211e-05
7.51535e-05
-8.41398e-05
0.000113156
-0.000123621
0.000154863
-0.000171187
0.000198807
-0.000226854
0.000243798
-0.000290538
0.00028887
-0.000362065
0.00033324
-0.000441176
0.000376278
-0.000527545
0.000417481
-0.000620781
0.000456448
-0.000720444
0.000492865
-0.000826047
0.000526492
-0.000937074
0.000557147
-0.00105298
0.000584701
-0.00117319
0.000609062
-0.00129714
0.000630178
-0.00142423
0.000648023
-0.00155388
0.000662598
-0.00168548
0.000673924
-0.00181844
0.000682038
-0.00195219
0.000686992
-0.00208615
0.000688852
-0.00221976
0.00068769
-0.00235246
0.000683591
-0.00248372
0.000676645
-0.00261303
0.000666947
-0.00273989
0.000654598
-0.0028638
0.000639704
-0.00298432
0.000622371
-0.00310098
0.000602711
-0.00321339
0.000580835
-0.00332112
0.000556859
-0.00342382
0.000530898
-0.0035211
0.000503067
-0.00361265
0.000473485
-0.00369815
0.00044227
-0.00377731
0.00040954
-0.00384986
0.000375416
-0.00391556
0.000340017
-0.00397419
0.000303465
-0.00402554
0.000265881
-0.00406946
0.000227387
-0.00410577
0.000188107
-0.00413437
0.000148165
-0.00415515
0.000107687
-0.00416802
6.67975e-05
-0.00417294
2.56256e-05
-0.00416988
-1.56997e-05
-0.00415883
-5.7048e-05
-0.00413982
-9.82875e-05
-0.00411289
-0.000139285
-0.00407812
-0.000179906
-0.0040356
-0.000220013
-0.00398546
-0.000259469
-0.00392786
-0.000298135
-0.00386297
-0.00033587
-0.003791
-0.000372533
-0.00371218
-0.000407983
-0.00362678
-0.000442075
-0.00353507
-0.000474666
-0.00343738
-0.000505615
-0.00333404
-0.000534777
-0.00322542
-0.000562012
-0.00311192
-0.000587179
-0.00299395
-0.00061014
-0.00287196
-0.000630759
-0.00274642
-0.000648905
-0.00261781
-0.00066445
-0.00248665
-0.000677271
-0.00235348
-0.000687254
-0.00221884
-0.000694287
-0.00208331
-0.000698272
-0.00194747
-0.000699117
-0.00181191
-0.000696744
-0.00167725
-0.000691084
-0.00154411
-0.000682085
-0.0014131
-0.000669711
-0.00128484
-0.000653944
-0.00115994
-0.000634788
-0.00103902
-0.000612271
-0.000922672
-0.000586449
-0.000811463
-0.000557411
-0.000705944
-0.000525282
-0.000606628
-0.000490233
-0.000513989
-0.000452485
-0.00042845
-0.000412319
-0.000350377
-0.000370089
-0.000280068
-0.000326232
-0.00021774
-0.000281287
-0.000163524
-0.000235913
-0.000117453
-0.000190911
-7.94522e-05
-0.000147254
-4.93363e-05
-0.000106116
-2.6802e-05
-6.89133e-05
-1.14308e-05
-3.73318e-05
-2.69811e-06
-1.34075e-05
1.25061e-07
-3.82398e-06
5.88133e-06
-1.55825e-05
2.94701e-05
-3.55675e-05
6.26395e-05
-6.40319e-05
0.000103618
-0.000101167
0.000150291
-0.000147087
0.000200783
-0.000201821
0.00025354
-0.000265306
0.000307283
-0.000337396
0.00036096
-0.000417862
0.000413706
-0.000506399
0.000464816
-0.000602639
0.00051372
-0.000706151
0.000559959
-0.000816457
0.000603171
-0.000933035
0.00064307
-0.00105533
0.000679443
-0.00118276
0.000712129
-0.00131472
0.000741021
-0.00145059
0.000766049
-0.00158975
0.000787178
-0.00173155
0.000804404
-0.00187538
0.000817747
-0.00202059
0.000827248
-0.00216656
0.000832965
-0.00231268
0.000834972
-0.00245834
0.000833355
-0.00260296
0.000828211
-0.00274596
0.000819645
-0.00288679
0.000807772
-0.0030249
0.00079271
-0.00315978
0.000774582
-0.00329093
0.000753519
-0.00341787
0.000729651
-0.00354015
0.000703114
-0.00365733
0.000674044
-0.00376901
0.000642579
-0.0038748
0.00060886
-0.00397435
0.000573028
-0.0040673
0.000535226
-0.00415336
0.000495596
-0.00423223
0.000454283
-0.00430364
0.000411433
-0.00436737
0.00036719
-0.00442319
0.000321702
-0.00447092
0.000275116
-0.00451039
0.000227582
-0.00454148
0.00017925
-0.00456406
0.000130271
-0.00457806
8.07967e-05
-0.00458342
3.09826e-05
-0.0045801
-1.90157e-05
-0.00456811
-6.90408e-05
-0.00454746
-0.000118934
-0.00451822
-0.000168533
-0.00448045
-0.000217676
-0.00443426
-0.000266198
-0.0043798
-0.000313933
-0.00431722
-0.000360714
-0.00424672
-0.00040637
-0.00416852
-0.000450733
-0.00408287
-0.000493629
-0.00399006
-0.000534888
-0.00389039
-0.000574337
-0.0037842
-0.000611803
-0.00367186
-0.000647117
-0.00355376
-0.000680107
-0.00343034
-0.000710605
-0.00330203
-0.000738446
-0.00316932
-0.000763468
-0.00303271
-0.000785513
-0.00289274
-0.000804429
-0.00274994
-0.00082007
-0.00260489
-0.000832299
-0.00245819
-0.000840987
-0.00231045
-0.000846014
-0.00216229
-0.000847274
-0.00201436
-0.000844674
-0.00186731
-0.000838136
-0.0017218
-0.0008276
-0.00157848
-0.000813026
-0.00143803
-0.000794396
-0.0013011
-0.00077172
-0.00116833
-0.000745033
-0.00104037
-0.000714408
-0.000917831
-0.000679954
-0.000801291
-0.000641822
-0.000691306
-0.000600218
-0.000588386
-0.000555404
-0.000492994
-0.000507712
-0.000405533
-0.00045755
-0.00032634
-0.000405425
-0.00025568
-0.000351948
-0.000193732
-0.00029786
-0.00014059
-0.000244053
-9.62501e-05
-0.000191593
-6.06144e-05
-0.000141752
-3.3488e-05
-9.60398e-05
-1.45867e-05
-5.62331e-05
-3.55412e-06
-2.444e-05
-3.429e-06
-4.64704e-06
1.05284e-05
-1.86908e-05
4.35138e-05
-4.22416e-05
8.61903e-05
-7.53789e-05
0.000136755
-0.000118146
0.000193058
-0.000170536
0.000253173
-0.000232475
0.000315479
-0.000303818
0.000378626
-0.000384346
0.000441488
-0.00047377
0.00050313
-0.000571733
0.000562779
-0.000677818
0.000619805
-0.000791552
0.000673694
-0.000912416
0.000724035
-0.00103985
0.000770504
-0.00117326
0.000812853
-0.00131203
0.000850896
-0.00145551
0.000884503
-0.00160305
0.000913589
-0.00175398
0.000938112
-0.00190764
0.000958062
-0.00206335
0.000973456
-0.00222044
0.00098434
-0.00237825
0.000990779
-0.00253614
0.000992855
-0.00269345
0.000990666
-0.00284956
0.000984325
-0.00300387
0.000973952
-0.00315578
0.000959678
-0.00330471
0.000941643
-0.00345012
0.000919991
-0.00359147
0.000894873
-0.00372826
0.000866441
-0.00386
0.000834856
-0.00398624
0.000800277
-0.00410652
0.000762867
-0.00422045
0.000722791
-0.00432764
0.000680217
-0.00442773
0.000635312
-0.00452038
0.000588246
-0.00460529
0.000539189
-0.00468217
0.000488312
-0.00475076
0.000435788
-0.00481085
0.000381792
-0.00486223
0.000326497
-0.00490473
0.00027008
-0.0049382
0.000212719
-0.00496252
0.000154593
-0.00497761
9.5883e-05
-0.0049834
3.67712e-05
-0.00497986
-2.25578e-05
-0.00496698
-8.19175e-05
-0.00494479
-0.00014112
-0.00491335
-0.000199973
-0.00487274
-0.000258286
-0.00482308
-0.000315864
-0.0047645
-0.000372509
-0.00469719
-0.000428024
-0.00462135
-0.000482209
-0.00453722
-0.000534862
-0.00444507
-0.000585782
-0.00434519
-0.000634764
-0.00423793
-0.000681605
-0.00412362
-0.000726104
-0.00400268
-0.000768058
-0.00387552
-0.000807266
-0.0037426
-0.000843531
-0.00360438
-0.000876659
-0.00346139
-0.000906458
-0.00331416
-0.000932745
-0.00316325
-0.000955341
-0.00300924
-0.000974076
-0.00285276
-0.000988788
-0.00269442
-0.000999327
-0.00253487
-0.00100556
-0.00237479
-0.00100735
-0.00221486
-0.00100461
-0.00205576
-0.000997232
-0.0018982
-0.000985159
-0.00174289
-0.000968345
-0.00159051
-0.000946772
-0.00144178
-0.000920454
-0.00129737
-0.000889437
-0.00115797
-0.000853808
-0.00102423
-0.000813697
-0.000896768
-0.000769284
-0.000776179
-0.000720807
-0.000663014
-0.00066857
-0.000557773
-0.000612952
-0.000460905
-0.000554419
-0.000372792
-0.000493538
-0.000293749
-0.000430991
-0.000224015
-0.000367595
-0.000163747
-0.00030432
-0.000113024
-0.000242316
-7.18408e-05
-0.000182936
-4.01141e-05
-0.000127766
-1.76954e-05
-7.86517e-05
-4.38915e-06
-3.77463e-05
-7.81812e-06
-5.44862e-06
1.5977e-05
-2.17372e-05
5.98023e-05
-4.88106e-05
0.000113264
-8.65855e-05
0.00017453
-0.000134964
0.000241436
-0.000193814
0.000312023
-0.00026296
0.000384625
-0.000342166
0.000457833
-0.000431139
0.00053046
-0.00052952
0.000601512
-0.000636898
0.000670157
-0.0007528
0.000735708
-0.000876709
0.000797603
-0.00100806
0.000855386
-0.00114626
0.000908698
-0.00129066
0.000957255
-0.00144061
0.00100085
-0.00159544
0.00103933
-0.00175445
0.0010726
-0.00191693
0.0011006
-0.00208219
0.00112332
-0.00224951
0.00114078
-0.00241819
0.00115302
-0.00258753
0.00116012
-0.00275685
0.00116217
-0.00292546
0.00115928
-0.00309272
0.00115158
-0.00325797
0.0011392
-0.00342059
0.0011223
-0.00357998
0.00110103
-0.00373556
0.00107556
-0.00388675
0.00104607
-0.00403303
0.00101272
-0.00417389
0.000975711
-0.00430883
0.000935218
-0.00443739
0.000891433
-0.00455915
0.000844548
-0.00467369
0.000794755
-0.00478063
0.000742251
-0.00487961
0.000687232
-0.00497032
0.000629895
-0.00505245
0.000570441
-0.00512573
0.000509071
-0.00518992
0.000445986
-0.00524482
0.00038139
-0.00529022
0.000315489
-0.00532599
0.000248489
-0.005352
0.000180599
-0.00536815
0.000112029
-0.00537437
4.29927e-05
-0.00537063
-2.62958e-05
-0.00535693
-9.56194e-05
-0.00533329
-0.000164759
-0.00529977
-0.000233492
-0.00525646
-0.000301595
-0.00520348
-0.000368842
-0.00514099
-0.000435003
-0.00506916
-0.000499849
-0.00498823
-0.000563146
-0.00489843
-0.00062466
-0.00480005
-0.000684158
-0.00469342
-0.000741401
-0.00457886
-0.000796156
-0.00445678
-0.000848186
-0.00432758
-0.000897257
-0.00419171
-0.000943137
-0.00404965
-0.000985597
-0.00390189
-0.00102441
-0.00374899
-0.00105936
-0.00359151
-0.00109023
-0.00343003
-0.00111682
-0.00326518
-0.00113892
-0.0030976
-0.00115636
-0.00292797
-0.00116896
-0.00275696
-0.00117657
-0.00258527
-0.00117904
-0.00241363
-0.00117624
-0.00224277
-0.00116809
-0.00207343
-0.00115451
-0.00190634
-0.00113543
-0.00174225
-0.00111086
-0.00158189
-0.00108081
-0.001426
-0.00104533
-0.00127529
-0.00100452
-0.00113044
-0.000958543
-0.000992128
-0.000907596
-0.000860982
-0.000851953
-0.000737594
-0.000791958
-0.000622511
-0.000728035
-0.000516225
-0.000660705
-0.000419172
-0.000590591
-0.000331721
-0.000518441
-0.000254176
-0.00044514