/*--------------------------------*- C++ -*----------------------------------*\
  =========                 |
  \\      /  F ield         | OpenFOAM: The Open Source CFD Toolbox
   \\    /   O peration     | Website:  https://openfoam.org
    \\  /    A nd           | Version:  11
     \\/     M anipulation  |
\*---------------------------------------------------------------------------*/
FoamFile
{
    format      ascii;
    class       volVectorField;
    location    "4";
    object      U;
}
// * * * * * * * * * * * * * * * * * * * * * * * * * * * * * * * * * * * * * //

dimensions      [0 1 -1 0 0 0 0];

internalField   nonuniform List<vector> 
10100
(
(2.80258e-06 -3.03635e-06 0)
(1.36702e-05 -7.49403e-06 0)
(3.08714e-05 -8.75948e-06 0)
(4.69937e-05 -7.608e-06 0)
(5.73737e-05 -5.20829e-06 0)
(5.97424e-05 -2.17017e-06 0)
(5.30313e-05 1.07474e-06 0)
(3.68048e-05 4.35977e-06 0)
(1.10997e-05 7.52126e-06 0)
(-2.38313e-05 1.05086e-05 0)
(-6.75568e-05 1.32833e-05 0)
(-0.000119542 1.58573e-05 0)
(-0.000179231 1.81944e-05 0)
(-0.000245988 2.03063e-05 0)
(-0.000319158 2.22051e-05 0)
(-0.000398161 2.38886e-05 0)
(-0.000482321 2.53654e-05 0)
(-0.000571006 2.6633e-05 0)
(-0.000663638 2.76854e-05 0)
(-0.000759583 2.85527e-05 0)
(-0.000858276 2.92711e-05 0)
(-0.000959178 2.9821e-05 0)
(-0.00106173 3.02183e-05 0)
(-0.00116543 3.0472e-05 0)
(-0.00126976 3.05704e-05 0)
(-0.00137424 3.05216e-05 0)
(-0.00147839 3.03501e-05 0)
(-0.00158175 3.00556e-05 0)
(-0.00168388 2.96265e-05 0)
(-0.00178435 2.90708e-05 0)
(-0.00188276 2.84016e-05 0)
(-0.00197873 2.76273e-05 0)
(-0.0020719 2.67539e-05 0)
(-0.00216193 2.57907e-05 0)
(-0.00224848 2.47384e-05 0)
(-0.00233126 2.35923e-05 0)
(-0.00240996 2.23572e-05 0)
(-0.0024843 2.1043e-05 0)
(-0.00255403 1.96582e-05 0)
(-0.0026189 1.82054e-05 0)
(-0.00267868 1.6688e-05 0)
(-0.00273317 1.51163e-05 0)
(-0.00278219 1.34929e-05 0)
(-0.00282556 1.18198e-05 0)
(-0.00286315 1.01045e-05 0)
(-0.0028948 8.3488e-06 0)
(-0.0029204 6.55915e-06 0)
(-0.00293987 4.74663e-06 0)
(-0.00295313 2.91369e-06 0)
(-0.00296011 1.06848e-06 0)
(-0.00296081 -7.73915e-07 0)
(-0.0029552 -2.61159e-06 0)
(-0.00294329 -4.44665e-06 0)
(-0.00292511 -6.27153e-06 0)
(-0.00290072 -8.07968e-06 0)
(-0.00287017 -9.86566e-06 0)
(-0.00283357 -1.16169e-05 0)
(-0.00279102 -1.33248e-05 0)
(-0.00274266 -1.49916e-05 0)
(-0.00268862 -1.66157e-05 0)
(-0.0026291 -1.81866e-05 0)
(-0.00256428 -1.96959e-05 0)
(-0.00249437 -2.11385e-05 0)
(-0.00241962 -2.25064e-05 0)
(-0.0023403 -2.37925e-05 0)
(-0.00225667 -2.49958e-05 0)
(-0.00216904 -2.61133e-05 0)
(-0.00207774 -2.71348e-05 0)
(-0.0019831 -2.80503e-05 0)
(-0.00188552 -2.8853e-05 0)
(-0.00178538 -2.95336e-05 0)
(-0.00168311 -3.0081e-05 0)
(-0.00157916 -3.04905e-05 0)
(-0.00147398 -3.07628e-05 0)
(-0.00136808 -3.08939e-05 0)
(-0.00126195 -3.0873e-05 0)
(-0.00115612 -3.06925e-05 0)
(-0.0010511 -3.03517e-05 0)
(-0.000947462 -2.98506e-05 0)
(-0.000845746 -2.91851e-05 0)
(-0.000746529 -2.83507e-05 0)
(-0.000650388 -2.73452e-05 0)
(-0.000557913 -2.61654e-05 0)
(-0.000469698 -2.48046e-05 0)
(-0.000386343 -2.3255e-05 0)
(-0.000308451 -2.15133e-05 0)
(-0.000236621 -1.95826e-05 0)
(-0.000171437 -1.74668e-05 0)
(-0.000113462 -1.51672e-05 0)
(-6.32266e-05 -1.26862e-05 0)
(-2.12172e-05 -1.00323e-05 0)
(1.2146e-05 -7.2249e-06 0)
(3.6545e-05 -4.29709e-06 0)
(5.18167e-05 -1.30252e-06 0)
(5.8042e-05 1.66145e-06 0)
(5.56856e-05 4.42181e-06 0)
(4.57818e-05 6.67187e-06 0)
(3.03637e-05 7.85757e-06 0)
(1.3629e-05 7.00848e-06 0)
(2.88778e-06 2.89756e-06 0)
(6.21726e-06 -1.33257e-05 0)
(2.59451e-05 -2.77878e-05 0)
(5.2143e-05 -2.97981e-05 0)
(7.25445e-05 -2.24243e-05 0)
(7.85549e-05 -9.33488e-06 0)
(6.52387e-05 6.94737e-06 0)
(2.97908e-05 2.47607e-05 0)
(-2.91857e-05 4.3052e-05 0)
(-0.000112175 6.11714e-05 0)
(-0.00021886 7.86631e-05 0)
(-0.000348517 9.53131e-05 0)
(-0.000500089 0.000110915 0)
(-0.000672222 0.000125398 0)
(-0.000863461 0.00013868 0)
(-0.00107232 0.000150729 0)
(-0.00129714 0.000161553 0)
(-0.0015363 0.000171169 0)
(-0.00178817 0.00017955 0)
(-0.00205107 0.000186751 0)
(-0.00232341 0.000192784 0)
(-0.00260359 0.000197694 0)
(-0.00289005 0.000201531 0)
(-0.00318127 0.000204325 0)
(-0.00347578 0.000206103 0)
(-0.00377213 0.000206887 0)
(-0.00406893 0.000206709 0)
(-0.00436485 0.000205608 0)
(-0.00465857 0.000203617 0)
(-0.00494883 0.000200767 0)
(-0.00523444 0.000197097 0)
(-0.00551425 0.000192645 0)
(-0.00578715 0.00018745 0)
(-0.00605211 0.000181558 0)
(-0.00630814 0.000175006 0)
(-0.0065543 0.000167826 0)
(-0.0067897 0.000160041 0)
(-0.0070135 0.000151683 0)
(-0.00722491 0.00014279 0)
(-0.0074232 0.000133396 0)
(-0.00760767 0.000123542 0)
(-0.0077777 0.000113263 0)
(-0.00793269 0.000102597 0)
(-0.00807212 9.15841e-05 0)
(-0.00819551 8.02527e-05 0)
(-0.00830243 6.86355e-05 0)
(-0.00839252 5.67754e-05 0)
(-0.00846546 4.47082e-05 0)
(-0.00852097 3.2471e-05 0)
(-0.00855885 2.01095e-05 0)
(-0.00857896 7.66734e-06 0)
(-0.00858117 -4.81582e-06 0)
(-0.00856547 -1.7302e-05 0)
(-0.00853188 -2.97536e-05 0)
(-0.00848047 -4.21312e-05 0)
(-0.00841136 -5.4393e-05 0)
(-0.00832475 -6.64958e-05 0)
(-0.00822089 -7.83975e-05 0)
(-0.00810009 -9.00605e-05 0)
(-0.00796272 -0.000101446 0)
(-0.00780924 -0.00011251 0)
(-0.00764011 -0.000123208 0)
(-0.00745588 -0.000133499 0)
(-0.00725719 -0.000143339 0)
(-0.00704472 -0.000152683 0)
(-0.00681921 -0.000161488 0)
(-0.00658144 -0.000169714 0)
(-0.00633232 -0.000177319 0)
(-0.00607278 -0.000184255 0)
(-0.0058038 -0.000190474 0)
(-0.00552645 -0.000195928 0)
(-0.00524188 -0.000200568 0)
(-0.00495126 -0.000204342 0)
(-0.00465585 -0.000207211 0)
(-0.00435695 -0.000209141 0)
(-0.00405593 -0.000210098 0)
(-0.00375423 -0.000210045 0)
(-0.00345328 -0.000208948 0)
(-0.00315457 -0.00020678 0)
(-0.00285966 -0.00020352 0)
(-0.0025701 -0.000199144 0)
(-0.00228751 -0.00019363 0)
(-0.00201348 -0.000186963 0)
(-0.00174966 -0.000179132 0)
(-0.00149769 -0.000170127 0)
(-0.00125922 -0.00015994 0)
(-0.00103584 -0.000148576 0)
(-0.000829151 -0.000136055 0)
(-0.000640658 -0.000122419 0)
(-0.000471803 -0.000107726 0)
(-0.000323895 -9.20617e-05 0)
(-0.000198069 -7.55477e-05 0)
(-9.52202e-05 -5.836e-05 0)
(-1.59052e-05 -4.07624e-05 0)
(3.97992e-05 -2.31574e-05 0)
(7.24994e-05 -6.1589e-06 0)
(8.37566e-05 9.29182e-06 0)
(7.63955e-05 2.17614e-05 0)
(5.50604e-05 2.90576e-05 0)
(2.77301e-05 2.78057e-05 0)
(6.9519e-06 1.35954e-05 0)
(6.37203e-06 -2.82405e-05 0)
(2.49899e-05 -5.26202e-05 0)
(4.523e-05 -5.1153e-05 0)
(5.30417e-05 -3.00161e-05 0)
(3.84692e-05 4.2414e-06 0)
(-4.70563e-06 4.62605e-05 0)
(-8.03677e-05 9.25953e-05 0)
(-0.000190695 0.000140631 0)
(-0.000336536 0.000188746 0)
(-0.000517763 0.000235749 0)
(-0.000733549 0.000280834 0)
(-0.000982515 0.000323503 0)
(-0.00126288 0.000363378 0)
(-0.00157264 0.000400184 0)
(-0.00190952 0.000433811 0)
(-0.00227122 0.000464178 0)
(-0.00265529 0.000491221 0)
(-0.00305921 0.000514994 0)
(-0.00348051 0.000535474 0)
(-0.00391669 0.000552739 0)
(-0.00436524 0.000566841 0)
(-0.00482374 0.00057787 0)
(-0.00528982 0.000585903 0)
(-0.00576109 0.000591035 0)
(-0.00623528 0.000593334 0)
(-0.00671018 0.000592879 0)
(-0.00718364 0.000589774 0)
(-0.0076536 0.000584116 0)
(-0.00811805 0.000575997 0)
(-0.00857508 0.000565526 0)
(-0.00902284 0.000552813 0)
(-0.00945958 0.000537959 0)
(-0.00988363 0.000521076 0)
(-0.0102934 0.000502272 0)
(-0.0106873 0.000481643 0)
(-0.0110641 0.000459286 0)
(-0.0114222 0.000435295 0)
(-0.0117606 0.000409776 0)
(-0.0120779 0.000382829 0)
(-0.0123731 0.000354554 0)
(-0.0126452 0.000325066 0)
(-0.0128932 0.000294468 0)
(-0.0131164 0.000262862 0)
(-0.0133138 0.000230355 0)
(-0.013485 0.000197048 0)
(-0.0136292 0.000163042 0)
(-0.013746 0.000128454 0)
(-0.0138349 9.33922e-05 0)
(-0.0138956 5.79642e-05 0)
(-0.0139279 2.22933e-05 0)
(-0.0139316 -1.35045e-05 0)
(-0.0139066 -4.93271e-05 0)
(-0.013853 -8.50604e-05 0)
(-0.0137709 -0.000120581 0)
(-0.0136604 -0.000155774 0)
(-0.013522 -0.000190525 0)
(-0.0133559 -0.000224708 0)
(-0.0131627 -0.00025821 0)
(-0.012943 -0.000290916 0)
(-0.0126975 -0.000322698 0)
(-0.012427 -0.000353426 0)
(-0.0121322 -0.000382979 0)
(-0.0118144 -0.000411237 0)
(-0.0114744 -0.00043807 0)
(-0.0111137 -0.00046335 0)
(-0.0107333 -0.000486953 0)
(-0.0103347 -0.000508754 0)
(-0.00991954 -0.000528622 0)
(-0.00948928 -0.000546426 0)
(-0.00904565 -0.000562038 0)
(-0.00859046 -0.000575326 0)
(-0.00812561 -0.000586165 0)
(-0.00765307 -0.000594435 0)
(-0.00717491 -0.000600031 0)
(-0.00669331 -0.00060285 0)
(-0.0062105 -0.000602795 0)
(-0.00572878 -0.000599779 0)
(-0.00525051 -0.000593726 0)
(-0.00477813 -0.000584565 0)
(-0.00431412 -0.000572234 0)
(-0.003861 -0.000556682 0)
(-0.00342128 -0.000537875 0)
(-0.00299754 -0.000515792 0)
(-0.00259231 -0.000490428 0)
(-0.00220813 -0.000461799 0)
(-0.00184746 -0.000429956 0)
(-0.00151269 -0.00039499 0)
(-0.00120609 -0.000357046 0)
(-0.000929756 -0.000316333 0)
(-0.000685585 -0.000273148 0)
(-0.000475149 -0.000227898 0)
(-0.000299617 -0.000181149 0)
(-0.000159603 -0.000133701 0)
(-5.49887e-05 -8.66903e-05 0)
(1.53238e-05 -4.17354e-05 0)
(5.37161e-05 -1.13757e-06 0)
(6.41604e-05 3.1847e-05 0)
(5.26998e-05 5.26935e-05 0)
(2.89929e-05 5.51127e-05 0)
(7.79069e-06 3.025e-05 0)
(4.9408e-06 -4.09107e-05 0)
(1.66697e-05 -6.96947e-05 0)
(2.18823e-05 -5.81584e-05 0)
(6.95269e-06 -1.54629e-05 0)
(-3.84387e-05 4.8463e-05 0)
(-0.000121064 0.000125824 0)
(-0.000245195 0.000210751 0)
(-0.000413453 0.000299238 0)
(-0.000626915 0.000388228 0)
(-0.000885594 0.000475665 0)
(-0.00118853 0.000559994 0)
(-0.00153418 0.000640164 0)
(-0.00192044 0.000715402 0)
(-0.00234478 0.000785198 0)
(-0.0028045 0.000849172 0)
(-0.0032966 0.000907117 0)
(-0.00381798 0.000958907 0)
(-0.00436546 0.00100451 0)
(-0.00493581 0.00104392 0)
(-0.00552575 0.00107721 0)
(-0.00613206 0.00110447 0)
(-0.0067515 0.00112578 0)
(-0.00738089 0.00114132 0)
(-0.00801714 0.00115123 0)
(-0.00865721 0.00115565 0)
(-0.00929813 0.00115475 0)
(-0.00993703 0.00114871 0)
(-0.0105711 0.0011377 0)
(-0.0111978 0.00112192 0)
(-0.0118144 0.00110156 0)
(-0.0124185 0.00107684 0)
(-0.0130078 0.00104794 0)
(-0.0135799 0.00101508 0)
(-0.0141327 0.000978445 0)
(-0.0146642 0.000938245 0)
(-0.0151724 0.000894674 0)
(-0.0156556 0.000847929 0)
(-0.016112 0.000798208 0)
(-0.0165401 0.000745712 0)
(-0.0169383 0.000690641 0)
(-0.0173053 0.000633201 0)
(-0.0176399 0.000573603 0)
(-0.0179408 0.000512045 0)
(-0.0182072 0.000448727 0)
(-0.018438 0.000383861 0)
(-0.0186325 0.000317651 0)
(-0.0187899 0.000250302 0)
(-0.0189098 0.000182033 0)
(-0.0189916 0.000113065 0)
(-0.0190351 4.36115e-05 0)
(-0.0190401 -2.6107e-05 0)
(-0.0190063 -9.58712e-05 0)
(-0.018934 -0.000165466 0)
(-0.0188231 -0.000234661 0)
(-0.0186741 -0.000303219 0)
(-0.0184873 -0.000370912 0)
(-0.0182633 -0.000437517 0)
(-0.0180027 -0.0005028 0)
(-0.0177063 -0.000566518 0)
(-0.0173751 -0.00062843 0)
(-0.0170102 -0.000688297 0)
(-0.0166126 -0.000745872 0)
(-0.0161839 -0.000800908 0)
(-0.0157255 -0.000853164 0)
(-0.0152389 -0.000902392 0)
(-0.0147259 -0.000948343 0)
(-0.0141885 -0.000990767 0)
(-0.0136287 -0.00102942 0)
(-0.0130485 -0.00106406 0)
(-0.0124503 -0.00109442 0)
(-0.0118366 -0.00112028 0)
(-0.0112097 -0.0011414 0)
(-0.0105725 -0.00115757 0)
(-0.00992768 -0.00116856 0)
(-0.00927808 -0.00117417 0)
(-0.00862673 -0.00117424 0)
(-0.00797668 -0.00116859 0)
(-0.00733108 -0.00115708 0)
(-0.00669317 -0.00113957 0)
(-0.00606623 -0.00111596 0)
(-0.00545358 -0.00108617 0)
(-0.00485855 -0.00105013 0)
(-0.0042845 -0.00100783 0)
(-0.00373475 -0.000959287 0)
(-0.0032126 -0.000904575 0)
(-0.00272123 -0.000843833 0)
(-0.00226368 -0.000777277 0)
(-0.00184283 -0.000705228 0)
(-0.00146134 -0.000628134 0)
(-0.00112153 -0.000546615 0)
(-0.000825275 -0.00046151 0)
(-0.000573942 -0.000373951 0)
(-0.000368174 -0.00028548 0)
(-0.000207717 -0.000198195 0)
(-9.11662e-05 -0.000114961 0)
(-1.56771e-05 -3.96735e-05 0)
(2.33087e-05 2.24003e-05 0)
(3.24807e-05 6.42619e-05 0)
(2.19653e-05 7.65788e-05 0)
(6.65115e-06 4.56343e-05 0)
(2.72587e-06 -4.78023e-05 0)
(4.13248e-06 -7.20295e-05 0)
(-1.17052e-05 -4.20402e-05 0)
(-5.6753e-05 3.0338e-05 0)
(-0.000140436 0.000132184 0)
(-0.000269586 0.00025309 0)
(-0.000448586 0.000385265 0)
(-0.00068004 0.000522838 0)
(-0.000965164 0.000661562 0)
(-0.00130386 0.000798221 0)
(-0.00169516 0.000930473 0)
(-0.00213726 0.00105658 0)
(-0.00262777 0.00117531 0)
(-0.00316388 0.00128573 0)
(-0.00374235 0.00138724 0)
(-0.00435972 0.00147939 0)
(-0.00501233 0.00156194 0)
(-0.00569637 0.00163471 0)
(-0.00640799 0.00169774 0)
(-0.00714329 0.00175101 0)
(-0.00789833 0.00179466 0)
(-0.00866923 0.00182883 0)
(-0.00945211 0.00185371 0)
(-0.0102432 0.00186951 0)
(-0.0110388 0.00187648 0)
(-0.0118352 0.00187487 0)
(-0.012629 0.00186496 0)
(-0.0134167 0.00184703 0)
(-0.014195 0.00182138 0)
(-0.0149608 0.00178832 0)
(-0.015711 0.00174817 0)
(-0.0164427 0.00170126 0)
(-0.0171531 0.0016479 0)
(-0.0178395 0.00158843 0)
(-0.0184994 0.00152315 0)
(-0.0191304 0.00145239 0)
(-0.0197303 0.00137648 0)
(-0.0202969 0.00129574 0)
(-0.0208283 0.0012105 0)
(-0.0213226 0.00112109 0)
(-0.0217782 0.00102784 0)
(-0.0221934 0.000931079 0)
(-0.022567 0.000831139 0)
(-0.0228975 0.000728352 0)
(-0.023184 0.000623052 0)
(-0.0234253 0.000515577 0)
(-0.0236206 0.000406265 0)
(-0.0237693 0.000295458 0)
(-0.0238707 0.000183516 0)
(-0.0239246 7.07911e-05 0)
(-0.0239305 -4.23715e-05 0)
(-0.0238885 -0.000155616 0)
(-0.0237985 -0.000268575 0)
(-0.0236608 -0.000380881 0)
(-0.0234757 -0.000492168 0)
(-0.0232436 -0.000602057 0)
(-0.0229654 -0.00071017 0)
(-0.0226419 -0.000816129 0)
(-0.0222739 -0.000919547 0)
(-0.0218627 -0.00102003 0)
(-0.0214097 -0.00111719 0)
(-0.0209163 -0.00121062 0)
(-0.0203841 -0.00129993 0)
(-0.0198151 -0.00138471 0)
(-0.0192112 -0.00146457 0)
(-0.0185746 -0.00153911 0)
(-0.0179077 -0.00160792 0)
(-0.0172129 -0.00167061 0)
(-0.0164929 -0.00172679 0)
(-0.0157505 -0.00177606 0)
(-0.0149888 -0.00181804 0)
(-0.0142108 -0.00185237 0)
(-0.0134198 -0.0018787 0)
(-0.0126192 -0.00189669 0)
(-0.0118126 -0.00190604 0)
(-0.0110036 -0.00190645 0)
(-0.010196 -0.00189766 0)
(-0.00939356 -0.00187944 0)
(-0.00860033 -0.0018516 0)
(-0.00782026 -0.00181398 0)
(-0.00705738 -0.00176646 0)
(-0.00631575 -0.00170897 0)
(-0.00559939 -0.00164151 0)
(-0.00491233 -0.00156415 0)
(-0.00425849 -0.00147706 0)
(-0.00364166 -0.0013805 0)
(-0.00306546 -0.00127486 0)
(-0.00253328 -0.00116071 0)
(-0.00204819 -0.00103883 0)
(-0.00161287 -0.000910239 0)
(-0.0012295 -0.000776325 0)
(-0.000899572 -0.000638906 0)
(-0.000623813 -0.000500394 0)
(-0.000401937 -0.000363967 0)
(-0.000232434 -0.000233829 0)
(-0.000112324 -0.000115518 0)
(-3.69003e-05 -1.62938e-05 0)
(6.44177e-07 5.44605e-05 0)
(1.00024e-05 8.45017e-05 0)
(4.5064e-06 5.57177e-05 0)
(2.16835e-07 -4.73828e-05 0)
(-1.07639e-05 -5.57505e-05 0)
(-5.18287e-05 2.47232e-06 0)
(-0.000131936 0.000113321 0)
(-0.000259374 0.000261401 0)
(-0.000440369 0.000433968 0)
(-0.000679058 0.000621252 0)
(-0.000977906 0.000815857 0)
(-0.00133786 0.00101211 0)
(-0.00175883 0.00120573 0)
(-0.00223958 0.00139346 0)
(-0.00277812 0.00157287 0)
(-0.00337182 0.00174209 0)
(-0.00401747 0.00189981 0)
(-0.00471149 0.00204505 0)
(-0.00545 0.00217713 0)
(-0.00622883 0.00229562 0)
(-0.00704366 0.00240024 0)
(-0.00789008 0.00249089 0)
(-0.00876365 0.00256759 0)
(-0.00965981 0.00263043 0)
(-0.0105741 0.0026796 0)
(-0.011502 0.00271533 0)
(-0.0124392 0.00273792 0)
(-0.0133813 0.00274769 0)
(-0.0143242 0.00274499 0)
(-0.0152636 0.00273022 0)
(-0.0161957 0.00270377 0)
(-0.0171165 0.00266609 0)
(-0.0180223 0.00261759 0)
(-0.0189096 0.00255875 0)
(-0.0197748 0.00249002 0)
(-0.0206148 0.00241187 0)
(-0.0214264 0.00232476 0)
(-0.0222066 0.00222918 0)
(-0.0229526 0.00212558 0)
(-0.0236618 0.00201444 0)
(-0.0243316 0.00189624 0)
(-0.0249597 0.00177145 0)
(-0.025544 0.00164057 0)
(-0.0260825 0.00150407 0)
(-0.0265732 0.00136243 0)
(-0.0270147 0.00121615 0)
(-0.0274053 0.00106571 0)
(-0.0277437 0.000911591 0)
(-0.0280288 0.000754296 0)
(-0.0282595 0.000594324 0)
(-0.0284351 0.000432179 0)
(-0.0285548 0.000268369 0)
(-0.0286182 0.000103406 0)
(-0.0286251 -6.21897e-05 0)
(-0.0285752 -0.000227897 0)
(-0.0284687 -0.000393187 0)
(-0.0283058 -0.000557518 0)
(-0.0280868 -0.000720349 0)
(-0.0278124 -0.000881135 0)
(-0.0274835 -0.00103932 0)
(-0.027101 -0.00119435 0)
(-0.026666 -0.00134565 0)
(-0.02618 -0.00149265 0)
(-0.0256446 -0.00163477 0)
(-0.0250614 -0.00177144 0)
(-0.0244325 -0.00190208 0)
(-0.02376 -0.00202609 0)
(-0.0230464 -0.0021429 0)
(-0.022294 -0.00225191 0)
(-0.0215058 -0.00235256 0)
(-0.0206847 -0.00244426 0)
(-0.0198338 -0.00252645 0)
(-0.0189563 -0.00259857 0)
(-0.0180559 -0.00266008 0)
(-0.0171361 -0.00271044 0)
(-0.0162009 -0.00274917 0)
(-0.0152541 -0.00277578 0)
(-0.0143 -0.00278983 0)
(-0.0133427 -0.00279092 0)
(-0.0123867 -0.00277867 0)
(-0.0114365 -0.00275277 0)
(-0.0104966 -0.00271294 0)
(-0.0095717 -0.00265898 0)
(-0.0086664 -0.00259075 0)
(-0.0077854 -0.00250817 0)
(-0.00693334 -0.00241128 0)
(-0.00611483 -0.00230023 0)
(-0.00533436 -0.00217529 0)
(-0.00459625 -0.00203691 0)
(-0.00390459 -0.00188571 0)
(-0.00326321 -0.00172254 0)
(-0.00267557 -0.00154858 0)
(-0.00214467 -0.00136535 0)
(-0.00167292 -0.00117485 0)
(-0.00126202 -0.000979665 0)
(-0.000912836 -0.000783137 0)
(-0.000625168 -0.000589578 0)
(-0.000397609 -0.000404547 0)
(-0.000227308 -0.000235187 0)
(-0.000109756 -9.06411e-05 0)
(-3.84349e-05 1.75265e-05 0)
(-4.76772e-06 7.44853e-05 0)
(1.89325e-06 5.85955e-05 0)
(-2.42009e-06 -3.8862e-05 0)
(-2.68973e-05 -1.84168e-05 0)
(-9.56178e-05 7.89545e-05 0)
(-0.000214262 0.000237793 0)
(-0.000389073 0.000440618 0)
(-0.000625716 0.000672769 0)
(-0.000927691 0.000922738 0)
(-0.00129699 0.00118163 0)
(-0.00173437 0.00144246 0)
(-0.00223932 0.00169989 0)
(-0.00281048 0.00194974 0)
(-0.00344556 0.00218878 0)
(-0.00414161 0.00241461 0)
(-0.00489514 0.00262537 0)
(-0.00570221 0.00281968 0)
(-0.00655852 0.00299662 0)
(-0.0074595 0.00315549 0)
(-0.00840039 0.00329591 0)
(-0.00937626 0.00341762 0)
(-0.0103822 0.00352062 0)
(-0.011413 0.00360499 0)
(-0.0124639 0.00367092 0)
(-0.0135297 0.0037187 0)
(-0.0146055 0.00374869 0)
(-0.0156865 0.00376131 0)
(-0.0167678 0.00375701 0)
(-0.017845 0.00373631 0)
(-0.0189133 0.00369974 0)
(-0.0199685 0.00364787 0)
(-0.0210064 0.00358129 0)
(-0.0220228 0.0035006 0)
(-0.0230139 0.00340641 0)
(-0.023976 0.00329937 0)
(-0.0249053 0.0031801 0)
(-0.0257987 0.00304924 0)
(-0.0266528 0.00290743 0)
(-0.0274647 0.00275533 0)
(-0.0282315 0.00259358 0)
(-0.0289505 0.00242284 0)
(-0.0296193 0.00224376 0)
(-0.0302356 0.002057 0)
(-0.0307973 0.00186323 0)
(-0.0313025 0.00166311 0)
(-0.0317494 0.0014573 0)
(-0.0321366 0.00124648 0)
(-0.0324628 0.00103133 0)
(-0.0327267 0.000812519 0)
(-0.0329275 0.000590747 0)
(-0.0330644 0.000366707 0)
(-0.0331368 0.000141096 0)
(-0.0331445 -8.53792e-05 0)
(-0.0330873 -0.000312 0)
(-0.0329652 -0.000538038 0)
(-0.0327786 -0.00076276 0)
(-0.0325279 -0.000985426 0)
(-0.0322138 -0.00120529 0)
(-0.0318372 -0.00142159 0)
(-0.0313994 -0.00163357 0)
(-0.0309015 -0.00184043 0)
(-0.0303453 -0.00204142 0)
(-0.0297325 -0.00223573 0)
(-0.029065 -0.00242258 0)
(-0.0283453 -0.00260119 0)
(-0.0275757 -0.00277073 0)
(-0.0267589 -0.00293043 0)
(-0.0258979 -0.00307949 0)
(-0.0249957 -0.00321713 0)
(-0.0240558 -0.00334257 0)
(-0.0230817 -0.00345504 0)
(-0.0220772 -0.00355378 0)
(-0.0210462 -0.00363808 0)
(-0.0199929 -0.00370723 0)
(-0.0189216 -0.00376056 0)
(-0.0178369 -0.00379744 0)
(-0.0167434 -0.00381727 0)
(-0.015646 -0.00381952 0)
(-0.0145495 -0.00380371 0)
(-0.0134591 -0.00376941 0)
(-0.0123799 -0.00371629 0)
(-0.011317 -0.00364408 0)
(-0.0102758 -0.00355262 0)
(-0.00926142 -0.00344187 0)
(-0.00827907 -0.00331192 0)
(-0.00733388 -0.003163 0)
(-0.00643084 -0.00299554 0)
(-0.00557472 -0.00281018 0)
(-0.00477007 -0.00260781 0)
(-0.00402108 -0.00238965 0)
(-0.00333159 -0.0021573 0)
(-0.00270489 -0.00191284 0)
(-0.00214368 -0.00165892 0)
(-0.0016499 -0.00139895 0)
(-0.0012246 -0.00113721 0)
(-0.000867836 -0.000879158 0)
(-0.000578463 -0.000631659 0)
(-0.000353991 -0.000403362 0)
(-0.000190375 -0.000205115 0)
(-8.17104e-05 -5.03905e-05 0)
(-2.09916e-05 4.38279e-05 0)
(-8.98739e-07 5.33044e-05 0)
(-5.04221e-06 -2.18807e-05 0)
(-4.35548e-05 4.13874e-05 0)
(-0.000141366 0.000189633 0)
(-0.000300435 0.000406482 0)
(-0.000525115 0.000672898 0)
(-0.000819898 0.00097253 0)
(-0.0011876 0.00129252 0)
(-0.00162967 0.00162252 0)
(-0.00214625 0.00195446 0)
(-0.00273657 0.00228186 0)
(-0.00339886 0.00259969 0)
(-0.00413053 0.00290401 0)
(-0.00492834 0.00319172 0)
(-0.00578846 0.00346046 0)
(-0.00670657 0.00370847 0)
(-0.00767803 0.00393446 0)
(-0.00869787 0.0041375 0)
(-0.00976091 0.00431703 0)
(-0.0108618 0.0044727 0)
(-0.0119951 0.00460439 0)
(-0.0131554 0.00471218 0)
(-0.014337 0.00479626 0)
(-0.0155346 0.00485697 0)
(-0.0167427 0.00489474 0)
(-0.017956 0.00491005 0)
(-0.0191691 0.0049035 0)
(-0.0203771 0.00487572 0)
(-0.0215748 0.00482737 0)
(-0.0227575 0.00475918 0)
(-0.0239204 0.0046719 0)
(-0.0250591 0.00456629 0)
(-0.0261693 0.00444316 0)
(-0.0272467 0.00430329 0)
(-0.0282874 0.00414753 0)
(-0.0292876 0.00397668 0)
(-0.0302438 0.00379159 0)
(-0.0311527 0.0035931 0)
(-0.032011 0.00338204 0)
(-0.0328157 0.00315928 0)
(-0.0335642 0.00292566 0)
(-0.0342539 0.00268205 0)
(-0.0348824 0.0024293 0)
(-0.0354477 0.00216829 0)
(-0.0359478 0.00189988 0)
(-0.036381 0.00162494 0)
(-0.0367458 0.00134436 0)
(-0.0370411 0.00105903 0)
(-0.0372656 0.000769849 0)
(-0.0374187 0.000477719 0)
(-0.0374996 0.000183551 0)
(-0.0375081 -0.000111734 0)
(-0.037444 -0.000407196 0)
(-0.0373073 -0.000701889 0)
(-0.0370984 -0.000994859 0)
(-0.0368179 -0.00128514 0)
(-0.0364664 -0.00157177 0)
(-0.036045 -0.00185374 0)
(-0.0355551 -0.00213006 0)
(-0.034998 -0.00239973 0)
(-0.0343757 -0.00266172 0)
(-0.03369 -0.00291502 0)
(-0.0329432 -0.0031586 0)
(-0.0321379 -0.00339143 0)
(-0.0312767 -0.00361247 0)
(-0.0303627 -0.00382069 0)
(-0.0293991 -0.00401508 0)
(-0.0283895 -0.00419461 0)
(-0.0273374 -0.00435828 0)
(-0.026247 -0.0045051 0)
(-0.0251222 -0.00463411 0)
(-0.0239677 -0.00474438 0)
(-0.0227879 -0.00483501 0)
(-0.0215878 -0.00490515 0)
(-0.0203722 -0.00495399 0)
(-0.0191463 -0.00498078 0)
(-0.0179155 -0.00498483 0)
(-0.0166852 -0.00496555 0)
(-0.0154611 -0.00492242 0)
(-0.0142486 -0.00485503 0)
(-0.0130537 -0.00476306 0)
(-0.0118819 -0.00464635 0)
(-0.010739 -0.00450488 0)
(-0.00963081 -0.0043388 0)
(-0.00856278 -0.00414847 0)
(-0.00754039 -0.00393448 0)
(-0.00656885 -0.00369771 0)
(-0.00565309 -0.00343936 0)
(-0.00479769 -0.00316102 0)
(-0.00400683 -0.00286477 0)
(-0.00328413 -0.00255327 0)
(-0.00263258 -0.00222986 0)
(-0.00205442 -0.00189875 0)
(-0.00155101 -0.00156518 0)
(-0.00112275 -0.00123569 0)
(-0.00076892 -0.000918383 0)
(-0.00048757 -0.000623268 0)
(-0.000275327 -0.000362689 0)
(-0.000127135 -0.000151718 0)
(-3.78323e-05 -9.0263e-06 0)
(-3.718e-06 3.93983e-05 0)
(-7.62321e-06 3.68059e-06 0)
(-6.03026e-05 0.000124232 0)
(-0.000187785 0.000335709 0)
(-0.000388379 0.00062106 0)
(-0.000664218 0.000960074 0)
(-0.00101874 0.0013353 0)
(-0.0014538 0.00173247 0)
(-0.00197005 0.00214025 0)
(-0.00256715 0.00254938 0)
(-0.00324376 0.0029525 0)
(-0.00399768 0.0033437 0)
(-0.00482598 0.00371828 0)
(-0.00572505 0.00407255 0)
(-0.0066907 0.00440362 0)
(-0.00771828 0.00470932 0)
(-0.00880276 0.00498795 0)
(-0.00993881 0.00523842 0)
(-0.0111208 0.00545986 0)
(-0.0123431 0.00565187 0)
(-0.0135998 0.00581421 0)
(-0.0148849 0.00594693 0)
(-0.0161926 0.00605021 0)
(-0.0175169 0.00612443 0)
(-0.0188519 0.00617008 0)
(-0.0201919 0.00618776 0)
(-0.0215311 0.00617815 0)
(-0.022864 0.00614202 0)
(-0.0241852 0.00608018 0)
(-0.0254893 0.00599353 0)
(-0.0267714 0.00588297 0)
(-0.0280264 0.00574945 0)
(-0.0292496 0.00559396 0)
(-0.0304366 0.0054175 0)
(-0.031583 0.00522108 0)
(-0.0326847 0.00500574 0)
(-0.0337377 0.00477252 0)
(-0.0347385 0.00452246 0)
(-0.0356835 0.00425664 0)
(-0.0365695 0.00397611 0)
(-0.0373935 0.00368195 0)
(-0.0381527 0.00337523 0)
(-0.0388445 0.00305704 0)
(-0.0394666 0.00272846 0)
(-0.040017 0.0023906 0)
(-0.0404938 0.00204454 0)
(-0.0408953 0.0016914 0)
(-0.0412201 0.0013323 0)
(-0.0414672 0.000968368 0)
(-0.0416356 0.000600736 0)
(-0.0417247 0.000230552 0)
(-0.0417341 -0.000141018 0)
(-0.0416635 -0.000512798 0)
(-0.0415131 -0.000883603 0)
(-0.0412832 -0.00125224 0)
(-0.0409745 -0.00161748 0)
(-0.0405878 -0.00197811 0)
(-0.0401242 -0.00233289 0)
(-0.0395851 -0.00268055 0)
(-0.0389721 -0.00301985 0)
(-0.0382873 -0.00334949 0)
(-0.0375327 -0.00366821 0)
(-0.0367109 -0.00397472 0)
(-0.0358246 -0.00426771 0)
(-0.0348768 -0.00454591 0)
(-0.0338707 -0.00480802 0)
(-0.03281 -0.00505276 0)
(-0.0316984 -0.00527888 0)
(-0.0305399 -0.00548511 0)
(-0.029339 -0.00567023 0)
(-0.0281001 -0.00583305 0)
(-0.0268281 -0.00597241 0)
(-0.025528 -0.0060872 0)
(-0.024205 -0.00617637 0)
(-0.0228646 -0.00623893 0)
(-0.0215123 -0.00627396 0)
(-0.0201539 -0.00628062 0)
(-0.0187954 -0.0062582 0)
(-0.0174428 -0.00620607 0)
(-0.0161023 -0.00612374 0)
(-0.0147799 -0.00601086 0)
(-0.013482 -0.00586726 0)
(-0.0122147 -0.00569297 0)
(-0.0109842 -0.00548821 0)
(-0.00979636 -0.00525347 0)
(-0.00865717 -0.00498954 0)
(-0.00757221 -0.00469754 0)
(-0.00654679 -0.004379 0)
(-0.00558589 -0.00403593 0)
(-0.00469401 -0.00367089 0)
(-0.00387512 -0.00328712 0)
(-0.00313257 -0.00288867 0)
(-0.00246894 -0.00248054 0)
(-0.001886 -0.00206888 0)
(-0.00138461 -0.00166125 0)
(-0.000964575 -0.00126687 0)
(-0.000624641 -0.00089696 0)
(-0.000362258 -0.000565142 0)
(-0.00017337 -0.000287781 0)
(-5.47886e-05 -8.47982e-05 0)
(-6.49154e-06 1.67614e-05 0)
(-1.01244e-05 3.77292e-05 0)
(-7.68899e-05 0.000230286 0)
(-0.000234117 0.000517642 0)
(-0.000476571 0.00088225 0)
(-0.000804222 0.00130325 0)
(-0.00121927 0.00176214 0)
(-0.00172257 0.00224382 0)
(-0.00231393 0.00273585 0)
(-0.00299229 0.00322812 0)
(-0.00375574 0.00371239 0)
(-0.00460161 0.00418194 0)
(-0.00552649 0.00463139 0)
(-0.00652639 0.00505644 0)
(-0.00759673 0.0054537 0)
(-0.0087325 0.00582055 0)
(-0.00992829 0.006155 0)
(-0.0111784 0.0064556 0)
(-0.0124769 0.00672137 0)
(-0.0138176 0.00695167 0)
(-0.0151943 0.00714623 0)
(-0.0166007 0.00730503 0)
(-0.0180304 0.00742825 0)
(-0.0194771 0.00751631 0)
(-0.0209346 0.00756974 0)
(-0.0223966 0.00758925 0)
(-0.023857 0.00757562 0)
(-0.0253099 0.00752978 0)
(-0.0267494 0.00745269 0)
(-0.0281699 0.00734538 0)
(-0.0295659 0.00720897 0)
(-0.0309321 0.0070446 0)
(-0.0322634 0.00685343 0)
(-0.033555 0.00663669 0)
(-0.0348022 0.00639561 0)
(-0.0360006 0.00613143 0)
(-0.0371459 0.00584541 0)
(-0.0382342 0.00553886 0)
(-0.0392618 0.00521304 0)
(-0.0402251 0.00486926 0)
(-0.0411209 0.00450884 0)
(-0.0419462 0.00413307 0)
(-0.0426983 0.0037433 0)
(-0.0433745 0.00334083 0)
(-0.0439727 0.00292701 0)
(-0.0444909 0.00250319 0)
(-0.0449273 0.00207074 0)
(-0.0452804 0.001631 0)
(-0.045549 0.00118536 0)
(-0.0457321 0.000735213 0)
(-0.045829 0.00028196 0)
(-0.0458393 -0.000172976 0)
(-0.0457627 -0.000628159 0)
(-0.0455994 -0.00108214 0)
(-0.0453498 -0.00153345 0)
(-0.0450144 -0.00198061 0)
(-0.0445944 -0.00242213 0)
(-0.0440907 -0.00285647 0)
(-0.0435051 -0.00328211 0)
(-0.0428392 -0.00369752 0)
(-0.0420951 -0.00410114 0)
(-0.0412752 -0.00449141 0)
(-0.0403821 -0.00486674 0)
(-0.0394189 -0.00522558 0)
(-0.0383887 -0.00556635 0)
(-0.0372951 -0.00588749 0)
(-0.036142 -0.00618744 0)
(-0.0349333 -0.00646467 0)
(-0.0336734 -0.00671765 0)
(-0.0323671 -0.00694491 0)
(-0.0310193 -0.00714501 0)
(-0.029635 -0.00731654 0)
(-0.0282197 -0.00745818 0)
(-0.026779 -0.00756866 0)
(-0.0253188 -0.00764678 0)
(-0.023845 -0.00769145 0)
(-0.022364 -0.0077017 0)
(-0.0208819 -0.00767665 0)
(-0.0194054 -0.00761559 0)
(-0.0179409 -0.00751795 0)
(-0.0164951 -0.00738334 0)
(-0.0150746 -0.0072116 0)
(-0.013686 -0.00700278 0)
(-0.012336 -0.00675721 0)
(-0.0110308 -0.00647552 0)
(-0.00977678 -0.0061587 0)
(-0.00857995 -0.00580814 0)
(-0.00744599 -0.00542571 0)
(-0.00638024 -0.00501383 0)
(-0.00538759 -0.00457557 0)
(-0.0044724 -0.00411474 0)
(-0.00363838 -0.00363608 0)
(-0.00288856 -0.00314533 0)
(-0.00222516 -0.00264952 0)
(-0.00164959 -0.00215714 0)
(-0.00116231 -0.00167841 0)
(-0.000762852 -0.00122559 0)
(-0.000449591 -0.00081337 0)
(-0.000219558 -0.000459128 0)
(-7.15606e-05 -0.000183655 0)
(-9.17816e-06 -1.45294e-05 0)
(-1.25442e-05 8.0112e-05 0)
(-9.31345e-05 0.000359375 0)
(-0.000279903 0.000735383 0)
(-0.000564096 0.00119031 0)
(-0.00094361 0.00170276 0)
(-0.00141945 0.00225367 0)
(-0.00199135 0.00282713 0)
(-0.00265823 0.00340994 0)
(-0.00341822 0.00399117 0)
(-0.0042688 0.00456182 0)
(-0.00520671 0.00511446 0)
(-0.00622806 0.00564308 0)
(-0.00732839 0.0061428 0)
(-0.00850274 0.00660975 0)
(-0.00974567 0.00704087 0)
(-0.0110514 0.00743388 0)
(-0.0124139 0.00778699 0)
(-0.0138267 0.00809907 0)
(-0.0152835 0.00836931 0)
(-0.0167775 0.00859732 0)
(-0.0183022 0.00878305 0)
(-0.0198507 0.00892668 0)
(-0.0214163 0.00902864 0)
(-0.0229925 0.00908954 0)
(-0.0245726 0.00911017 0)
(-0.0261501 0.00909145 0)
(-0.0277188 0.00903442 0)
(-0.0292724 0.00894021 0)
(-0.0308049 0.00881004 0)
(-0.0323105 0.0086452 0)
(-0.0337836 0.00844703 0)
(-0.0352187 0.00821693 0)
(-0.0366107 0.00795632 0)
(-0.0379545 0.00766666 0)
(-0.0392455 0.00734944 0)
(-0.0404792 0.00700615 0)
(-0.0416513 0.00663833 0)
(-0.0427578 0.00624751 0)
(-0.043795 0.00583524 0)
(-0.0447595 0.00540307 0)
(-0.045648 0.00495258 0)
(-0.0464576 0.00448535 0)
(-0.0471856 0.00400296 0)
(-0.0478296 0.00350702 0)
(-0.0483874 0.00299912 0)
(-0.0488572 0.00248091 0)
(-0.0492374 0.001954 0)
(-0.0495266 0.00142005 0)
(-0.0497238 0.000880723 0)
(-0.0498283 0.000337692 0)
(-0.0498396 -0.000207338 0)
(-0.0497575 -0.000752654 0)
(-0.049582 -0.00129652 0)
(-0.0493137 -0.00183719 0)
(-0.0489532 -0.00237289 0)
(-0.0485015 -0.00290183 0)
(-0.0479599 -0.00342218 0)
(-0.04733 -0.00393214 0)
(-0.0466137 -0.00442986 0)
(-0.0458132 -0.00491349 0)
(-0.0449311 -0.00538116 0)
(-0.0439702 -0.00583099 0)
(-0.0429336 -0.00626113 0)
(-0.0418248 -0.00666969 0)
(-0.0406476 -0.00705482 0)
(-0.039406 -0.00741467 0)
(-0.0381044 -0.00774741 0)
(-0.0367475 -0.00805124 0)
(-0.0353402 -0.00832441 0)
(-0.0338877 -0.00856522 0)