/*--------------------------------*- C++ -*----------------------------------*\
  =========                 |
  \\      /  F ield         | OpenFOAM: The Open Source CFD Toolbox
   \\    /   O peration     | Website:  https://openfoam.org
    \\  /    A nd           | Version:  11
     \\/     M anipulation  |
\*---------------------------------------------------------------------------*/
FoamFile
{
    format      ascii;
    class       volScalarField;
    location    "6.7";
    object      p;
}
// * * * * * * * * * * * * * * * * * * * * * * * * * * * * * * * * * * * * * //

dimensions      [0 2 -2 0 0 0 0];

internalField   nonuniform List<scalar> 
10100
(
1.87577e-07
0.00020538
0.00015784
-0.000251082
-0.000993558
-0.00200013
-0.00320979
-0.0045669
-0.00602196
-0.00753202
-0.00905945
-0.0105716
-0.0120403
-0.0134412
-0.0147534
-0.0159588
-0.0170413
-0.0179874
-0.0187862
-0.0194287
-0.0199073
-0.0202158
-0.0203493
-0.0203044
-0.0200791
-0.0196723
-0.0190839
-0.0183146
-0.0173662
-0.0162414
-0.0149439
-0.0134779
-0.0118482
-0.01006
-0.00811915
-0.00603209
-0.00380573
-0.00144729
0.00103571
0.00363529
0.00634291
0.00914965
0.0120465
0.015024
0.0180723
0.0211815
0.0243418
0.0275431
0.0307752
0.034027
0.0372876
0.0405462
0.0437922
0.0470149
0.0502035
0.0533467
0.0564337
0.0594538
0.0623968
0.0652527
0.0680112
0.0706622
0.0731959
0.0756032
0.0778754
0.0800043
0.0819822
0.0838016
0.0854553
0.0869371
0.0882414
0.0893637
0.0903004
0.0910486
0.0916065
0.091973
0.0921484
0.0921342
0.0919333
0.09155
0.0909899
0.0902602
0.0893696
0.0883287
0.0871498
0.0858476
0.0844391
0.0829437
0.081384
0.0797853
0.0781764
0.0765899
0.075063
0.0736368
0.0723578
0.071276
0.0704434
0.0699098
0.0697177
0.0698193
2.89546e-05
0.000225903
0.000150045
-0.000228021
-0.000868455
-0.00172905
-0.00276622
-0.00393605
-0.00519774
-0.00651414
-0.00785231
-0.00918269
-0.010479
-0.0117185
-0.0128812
-0.0139499
-0.0149094
-0.0157464
-0.01645
-0.0170108
-0.0174213
-0.0176751
-0.0177673
-0.0176942
-0.0174534
-0.0170436
-0.0164643
-0.015716
-0.0147998
-0.0137182
-0.0124741
-0.0110712
-0.00951411
-0.00780792
-0.00595775
-0.00396934
-0.00184921
0.000395798
0.00275865
0.00523187
0.0078074
0.0104768
0.0132315
0.0160625
0.0189604
0.021916
0.0249198
0.0279626
0.0310343
0.0341246
0.037223
0.0403194
0.0434036
0.0464656
0.0494949
0.052481
0.0554135
0.0582825
0.0610784
0.0637915
0.0664123
0.0689312
0.071339
0.0736272
0.0757878
0.0778132
0.0796962
0.0814297
0.0830072
0.084423
0.085672
0.0867504
0.0876548
0.0883831
0.0889336
0.0893057
0.0895
0.0895182
0.0893635
0.0890405
0.0885549
0.087914
0.0871265
0.0862026
0.0851545
0.0839964
0.0827445
0.0814176
0.0800367
0.0786256
0.0772105
0.075821
0.0744897
0.0732519
0.0721461
0.071212
0.0704876
0.0700079
0.0698186
0.0699214
0.00041072
0.000566216
0.000447129
7.00471e-05
-0.000522267
-0.00130004
-0.00223043
-0.00327794
-0.00440815
-0.00558903
-0.00679149
-0.00798908
-0.00915788
-0.0102764
-0.0113259
-0.0122901
-0.0131546
-0.0139069
-0.0145362
-0.015033
-0.01539
-0.0156006
-0.0156601
-0.0155648
-0.0153118
-0.0148995
-0.0143275
-0.0135961
-0.0127061
-0.0116593
-0.0104584
-0.00910697
-0.00760914
-0.00596954
-0.00419306
-0.00228512
-0.000251799
0.0019005
0.00416517
0.0065351
0.00900262
0.0115597
0.0141979
0.0169089
0.0196838
0.0225137
0.0253897
0.0283026
0.0312432
0.0342013
0.0371672
0.0401311
0.0430834
0.0460142
0.0489135
0.0517715
0.0545782
0.0573243
0.0600005
0.0625977
0.0651067
0.0675184
0.0698242
0.0720161
0.0740865
0.0760282
0.0778345
0.0794987
0.0810147
0.0823773
0.0835818
0.0846246
0.0855031
0.0862152
0.0867596
0.0871358
0.0873447
0.0873883
0.0872698
0.0869939
0.0865665
0.0859947
0.085287
0.0844534
0.0835057
0.0824573
0.0813239
0.0801232
0.078875
0.0776012
0.0763259
0.0750756
0.0738792
0.0727676
0.0717732
0.0709295
0.0702673
0.0698164
0.0696282
0.0697311
0.00112176
0.00118832
0.00100808
0.000605534
2.10958e-05
-0.000720492
-0.00159238
-0.00256528
-0.00360987
-0.0046983
-0.00580479
-0.00690584
-0.00797991
-0.0090073
-0.00997046
-0.0108539
-0.0116442
-0.0123295
-0.0128996
-0.0133452
-0.013659
-0.013835
-0.0138682
-0.0137548
-0.0134921
-0.0130785
-0.012513
-0.0117957
-0.0109276
-0.00991035
-0.00874632
-0.00743859
-0.00599101
-0.00440791
-0.00269394
-0.00085431
0.0011052
0.00317858
0.00535967
0.00764172
0.0100173
0.0124785
0.0150175
0.0176262
0.0202963
0.0230192
0.0257862
0.0285887
0.0314174
0.0342632
0.0371164
0.0399677
0.0428077
0.0456271
0.0484162
0.0511655
0.0538658
0.0565079
0.0590829
0.0615822
0.0639968
0.0663181
0.0685381
0.070649
0.0726436
0.074515
0.0762569
0.077863
0.0793275
0.0806454
0.0818126
0.0828257
0.0836823
0.0843805
0.0849193
0.0852984
0.0855186
0.0855822
0.0854925
0.0852542
0.084873
0.0843558
0.083711
0.0829481
0.0820784
0.0811148
0.080072
0.0789665
0.0778168
0.0766431
0.0754675
0.0743137
0.0732075
0.0721759
0.0712474
0.0704508
0.0698133
0.0693624
0.069147
0.0691996
0.00209542
0.002036
0.00177249
0.00132463
0.000723332
-9.39341e-06
-0.00085056
-0.00177578
-0.00276036
-0.00378042
-0.00481325
-0.00583785
-0.00683506
-0.00778725
-0.00867828
-0.00949378
-0.010221
-0.0108488
-0.0113675
-0.0117687
-0.0120451
-0.0121907
-0.0122008
-0.0120719
-0.0118012
-0.0113869
-0.010828
-0.0101243
-0.00927673
-0.00828688
-0.00715703
-0.00588997
-0.00448915
-0.00295857
-0.0013027
0.0004734
0.00236426
0.00436429
0.00646768
0.00866796
0.0109579
0.0133299
0.0157766
0.0182901
0.0208627
0.0234859
0.0261515
0.0288511
0.0315761
0.0343174
0.037066
0.0398127
0.0425484
0.0452643
0.0479512
0.0506
0.0532017
0.0557475
0.0582289
0.0606376
0.0629651
0.0652032
0.0673441
0.0693804
0.0713052
0.073112
0.0747946
0.0763472
0.0777643
0.0790412
0.080174
0.0811597
0.0819959
0.082681
0.083214
0.083595
0.0838247
0.0839055
0.0838406
0.0836348
0.0832934
0.0828234
0.0822324
0.0815299
0.0807264
0.079834
0.0788667
0.0778397
0.07677
0.0756761
0.0745778
0.0734966
0.0724552
0.0714773
0.0705877
0.0698114
0.0691724
0.0686955
0.0684191
0.0683678
0.00329608
0.00307784
0.00270898
0.00219695
0.00155772
0.000810851
-2.34649e-05
-0.000924556
-0.00187182
-0.00284498
-0.00382444
-0.00479151
-0.00572895
-0.0066212
-0.00745378
-0.00821339
-0.00888826
-0.00946806
-0.00994359
-0.010307
-0.0105515
-0.0106714
-0.0106622
-0.0105203
-0.0102431
-0.00982885
-0.0092766
-0.00858604
-0.00775782
-0.00679356
-0.00569534
-0.00446572
-0.00310795
-0.00162587
-2.37512e-05
0.0016937
0.00352134
0.00545383
0.00748554
0.00961026
0.0118211
0.0141109
0.0164724
0.0188982
0.0213807
0.023912
0.026484
0.0290889
0.0317183
0.0343635
0.0370156
0.0396658
0.0423056
0.0449264
0.0475195
0.0500761
0.0525873
0.0550447
0.0574402
0.059766
0.0620138
0.0641759
0.0662445
0.0682127
0.0700737
0.0718215
0.0734501
0.0749539
0.0763279
0.0775673
0.0786688
0.0796292
0.0804466
0.0811192
0.0816464
0.0820282
0.0822655
0.0823605
0.0823166
0.0821382
0.0818305
0.0814
0.0808542
0.0802018
0.0794529
0.0786188
0.0777124
0.0767478
0.0757406
0.0747074
0.0736662
0.0726358
0.0716364
0.0706886
0.0698139
0.0690338
0.0683696
0.0678431
0.0674772
0.067283
0.00468032
0.00428072
0.00378836
0.0031953
0.00249984
0.00171904
0.000870968
-2.7049e-05
-0.000957761
-0.00190376
-0.00284828
-0.0037754
-0.0046697
-0.00551689
-0.0063042
-0.0070199
-0.00765308
-0.00819411
-0.00863455
-0.00896707
-0.00918542
-0.00928432
-0.00925941
-0.00910731
-0.00882546
-0.00841218
-0.00786657
-0.00718843
-0.00637837
-0.0054378
-0.00436857
-0.00317312
-0.00185465
-0.000416886
0.0011362
0.00280024
0.00457029
0.0064412
0.00840755
0.0104634
0.0126022
0.014817
0.0171008
0.0194467
0.0218472
0.0242947
0.0267816
0.0293003
0.0318427
0.0344004
0.0369648
0.0395274
0.0420801
0.0446147
0.0471228
0.0495956
0.0520247
0.0544021
0.05672
0.0589708
0.0611468
0.0632403
0.0652437
0.0671504
0.068954
0.0706486
0.0722286
0.0736887
0.0750238
0.0762296
0.0773026
0.0782402
0.0790401
0.0797011
0.0802224
0.080604
0.0808469
0.0809534
0.0809265
0.0807703
0.0804901
0.0800917
0.0795823
0.0789701
0.0782645
0.0774759
0.0766162
0.0756985
0.0747369
0.0737465
0.0727431
0.0717435
0.0707651
0.0698261
0.0689448
0.0681396
0.0674293
0.0668331
0.0663557
0.065993
0.00620457
0.00561009
0.00498072
0.00429268
0.00352581
0.00269497
0.00181603
0.000903391
-2.82604e-05
-0.000964374
-0.00189056
-0.00279292
-0.0036583
-0.00447407
-0.00522851
-0.0059111
-0.00651223
-0.00702317
-0.00743613
-0.00774428
-0.00794189
-0.00802409
-0.00798693
-0.00782722
-0.00754249
-0.00713115
-0.00659241
-0.00592614
-0.00513294
-0.00421412
-0.00317144
-0.00200727
-0.000724656
0.000672859
0.0021815
0.00379707
0.00551481
0.00732976
0.00923681
0.0112303
0.0133037
0.0154505
0.0176639
0.0199372
0.0222633
0.024635
0.027045
0.0294857
0.0319494
0.0344278
0.0369128
0.0393963
0.0418705
0.0443274
0.0467587
0.049156
0.0515112
0.0538165
0.0560647
0.0582482
0.0603597
0.0623916
0.0643366
0.0661882
0.0679403
0.0695873
0.0711238
0.0725447
0.073845
0.0750207
0.0760682
0.076985
0.077769
0.078419
0.0789342
0.0793148
0.0795617
0.0796769
0.0796633
0.0795248
0.0792661
0.0788929
0.0784119
0.0778306
0.0771578
0.0764032
0.0755776
0.074693
0.073762
0.0727981
0.0718155
0.0708289
0.0698536
0.0689051
0.067999
0.0671507
0.0663772
0.065695
0.0650903
0.0645433
0.00782926
0.0070327
0.00625733
0.0054637
0.00461312
0.00371885
0.00279511
0.00185333
0.000905778
-3.51409e-05
-0.000957229
-0.00184856
-0.00269774
-0.00349376
-0.00422624
-0.00488577
-0.00546379
-0.00595249
-0.00634482
-0.0066346
-0.00681659
-0.00688627
-0.00684005
-0.00667507
-0.0063891
-0.00598066
-0.00544905
-0.00479415
-0.00401661
-0.00311776
-0.00209937
-0.000963675
0.000286415
0.00164754
0.00311603
0.00468778
0.00635825
0.00812274
0.00997633
0.0119135
0.013928
0.0160134
0.0181633
0.0203712
0.0226304
0.024934
0.0272747
0.0296452
0.032038
0.0344451
0.0368589
0.0392715
0.0416754
0.0440626
0.046425
0.0487547
0.0510437
0.0532847
0.0554706
0.0575943
0.0596483
0.0616253
0.0635182
0.0653207
0.067027
0.0686318
0.0701298
0.0715158
0.0727852
0.073934
0.0749587
0.0758567
0.0766262
0.077266
0.0777752
0.0781541
0.0784034
0.0785248
0.0785211
0.0783959
0.0781535
0.0777991
0.0773391
0.0767804
0.076131
0.0754
0.074597
0.0737329
0.0728192
0.0718677
0.0708911
0.0699022
0.0689142
0.0679406
0.0669943
0.0660884
0.065238
0.0644574
0.0637146
0.0629745
0.0095196
0.00851842
0.00759137
0.00668444
0.00574081
0.00477216
0.00379182
0.00280893
0.0018331
0.000874778
-5.55789e-05
-0.000947795
-0.00179197
-0.00257864
-0.00329888
-0.0039444
-0.00450746
-0.00498109
-0.00535911
-0.005636
-0.00580698
-0.005868
-0.00581578
-0.00564781
-0.00536209
-0.00495733
-0.00443296
-0.00378898
-0.00302606
-0.00214556
-0.00114923
-3.92411e-05
0.00118157
0.00250994
0.00394231
0.00547474
0.00710291
0.00882228
0.010628
0.0125148
0.0144765
0.0165069
0.0186
0.0207496
0.0229491
0.0251918
0.0274707
0.0297785
0.032108
0.0344518
0.0368023
0.0391519
0.0414932
0.0438184
0.0461198
0.0483894
0.0506199
0.052804
0.0549351
0.0570058
0.0590091
0.0609376
0.0627846
0.064544
0.0662101
0.0677777
0.0692418
0.0705973
0.0718395
0.0729645
0.073969
0.0748504
0.0756068
0.0762371
0.0767406
0.0771171
0.0773673
0.0774927
0.0774958
0.0773798
0.0771488
0.0768075
0.0763618
0.0758181
0.0751837
0.0744667
0.0736761
0.0728215
0.0719132
0.0709616
0.069978
0.0689734
0.0679595
0.0669475
0.0659484
0.0649728
0.0640347
0.0631467
0.0622589
0.0613218
0.0112455
0.0100399
0.0089583
0.00793264
0.00688885
0.0058375
0.00479097
0.00375666
0.00274217
0.00175595
0.000806756
-9.66212e-05
-0.000945643
-0.00173228
-0.00244894
-0.00308837
-0.00364373
-0.00410888
-0.00447835
-0.00474728
-0.00491142
-0.00496726
-0.00491188
-0.00474301
-0.0044589
-0.00405851
-0.00354146
-0.00290791
-0.00215857
-0.00129481
-0.000318376
0.000768551
0.00196318
0.0032623
0.00466251
0.00616004
0.0077507
0.00943007
0.0111934
0.0130353
0.0149502
0.0169319
0.0189748
0.0210729
0.0232197
0.0254086
0.0276328
0.0298852
0.0321591
0.0344471
0.0367419
0.0390362
0.0413224
0.0435932
0.0458409
0.048058
0.0502373
0.052372
0.0544551
0.0564799
0.0584389
0.0603253
0.0621324
0.0638543
0.0654856
0.0670211
0.0684559
0.0697849
0.0710036
0.072108
0.0730949
0.0739617
0.0747066
0.0753283
0.0758261
0.0761998
0.0764497
0.0765771
0.0765841
0.0764737
0.0762496
0.0759162
0.0754788
0.0749433
0.0743163
0.073605
0.0728175
0.0719625
0.071049
0.0700865
0.0690845
0.0680529
0.0670015
0.0659402
0.0648779
0.063823
0.0627889
0.0617869
0.0607502
0.0596156
0.0129812
0.011573
0.0103357
0.00918773
0.00803858
0.00689809
0.00577791
0.00468369
0.00362169
0.00259868
0.00162183
0.00069858
-0.000163883
-0.000958735
-0.00167946
-0.0023198
-0.00287389
-0.00333638
-0.0037025
-0.00396795
-0.0041291
-0.00418288
-0.00412677
-0.00395883
-0.00367756
-0.00328218
-0.0027725
-0.0021488
-0.00141192
-0.000563292
0.000395314
0.0014617
0.00263314
0.0039065
0.00527846
0.0067454
0.00830319
0.00994743
0.0116734
0.0134761
0.01535
0.0172893
0.0192884
0.0213415
0.0234423
0.0255842
0.0277607
0.029965
0.0321904
0.03443
0.0366766
0.0389228
0.0411614
0.0433851
0.0455864
0.0477583
0.0498937
0.0519859
0.054028
0.0560133
0.0579346
0.0597849
0.061558
0.0632481
0.0648499
0.0663583
0.0677682
0.0690749
0.0702736
0.0713605
0.0723324
0.0731867
0.0739217
0.0745359
0.0750284
0.0753989
0.0756474
0.075775
0.0757834
0.0756754
0.0754543
0.0751241
0.0746897
0.0741563
0.0735299
0.0728168
0.0720243
0.0711601
0.0702322
0.0692491
0.0682191
0.0671506
0.0660523
0.0649324
0.0637983
0.0626568
0.0615204
0.0604
0.0592125
0.0578819
0.0147038
0.0130966
0.0117036
0.0104311
0.00917285
0.00793821
0.00673853
0.00557779
0.00446089
0.00339351
0.00238155
0.00143093
0.000547594
-0.000262603
-0.000994053
-0.00164149
-0.00219999
-0.00266499
-0.00303232
-0.00329832
-0.00345989
-0.00351437
-0.00345969
-0.00329425
-0.00301687
-0.00262699
-0.00212459
-0.00151011
-0.000784571
5.05243e-05
0.00099336
0.00204173
0.00319295
0.00444398
0.00579155
0.00723207
0.00876143
0.0103753
0.0120691
0.013838
0.0156767
0.0175795
0.019541
0.0215554
0.0236166
0.0257183
0.0278539
0.030017
0.0322013
0.0343996
0.0366051
0.0388104
0.0410084
0.0431921
0.0453543
0.0474881
0.0495866
0.0516431
0.053651
0.0556032
0.0574929
0.0593133
0.0610583
0.0627222
0.0642997
0.0657857
0.0671753
0.0684636
0.0696461
0.0707187
0.0716782
0.0725223
0.0732489
0.0738567
0.0743444
0.0747115
0.0749579
0.0750841
0.0750919
0.0749834
0.0747618
0.0744308
0.0739946
0.073458
0.072826
0.0721046
0.0712999
0.0704188
0.0694686
0.0684566
0.0673902
0.0662766
0.0651232
0.0639372
0.0627245
0.0614905
0.0602474
0.0590056
0.0576669
0.056143
0.016394
0.0145916
0.0130442
0.011646
0.010276
0.00894336
0.00765944
0.00642692
0.00524928
0.00413126
0.00307766
0.00209317
0.00118267
0.000351101
-0.000396863
-0.00105688
-0.00162483
-0.00209683
-0.00246937
-0.0027394
-0.00290431
-0.00296195
-0.00291061
-0.00274902
-0.00247632
-0.00209219
-0.00159686
-0.00099095
-0.000275589
0.000547606
0.00147676
0.00250967
0.00364368
0.00487577
0.00620268
0.00762079
0.00912605
0.0107142
0.0123809
0.0141214
0.0159304
0.0178026
0.0197324
0.0217143
0.0237423
0.0258102
0.0279118
0.0300407
0.0321905
0.0343546
0.0365258
0.0386971
0.0408616
0.0430123
0.0451425
0.0472452
0.0493136
0.0513412
0.0533211
0.0552467
0.057111
0.0589075
0.0606301
0.0622733
0.0638317
0.0653003
0.066674
0.067948
0.0691177
0.0701793
0.0711294
0.0719655
0.0726857
0.0732882
0.0737718
0.0741356
0.0743791
0.0745029
0.0745082
0.074397
0.074172
0.0738366
0.0733945
0.0728497
0.072207
0.0714713
0.0706481
0.0697436
0.0687641
0.067716
0.066606
0.0654404
0.0642254
0.0629671
0.0616703
0.0603393
0.0589862
0.0576213
0.0561318
0.0544179
0.0180346
0.0160412
0.014341
0.0128169
0.0113335
0.00990008
0.00852815
0.00721954
0.00597651
0.00480268
0.00370191
0.00267805
0.00173507
0.000876945
0.00010743
-0.000569917
-0.00115166
-0.00163458
-0.00201577
-0.00229281
-0.00246362
-0.0025265
-0.00248009
-0.00232342
-0.00205596
-0.00167769
-0.00118908
-0.000590952
0.000115451
0.000928439
0.00184609
0.00286615
0.00398593
0.00520238
0.00651224
0.0079119
0.00939739
0.0109646
0.0126091
0.0143264
0.0161113
0.0179585
0.0198625
0.0218179
0.0238189
0.0258595
0.0279335
0.0300348
0.032157
0.0342935
0.0364373
0.0385815
0.0407193
0.042844
0.044949
0.0470274
0.0490724
0.0510775
0.0530359
0.054941
0.0567861
0.0585646
0.0602706
0.0618985
0.063443
0.0648989
0.0662612
0.0675251
0.0686859
0.0697397
0.0706833
0.0715139
0.0722295
0.0728282
0.0733086
0.0736693
0.0739098
0.0740303
0.0740317
0.0739159
0.0736852
0.0733423
0.0728906
0.0723337
0.0716755
0.0709204
0.0700734
0.0691397
0.0681249
0.0670348
0.0658751
0.0646515
0.0633694
0.0620337
0.0606485
0.059217
0.0577516
0.0562624
0.0546232
0.052723
0.019611
0.0174306
0.0155794
0.0139296
0.0123319
0.0107957
0.00933298
0.00794476
0.00663241
0.00539851
0.00424608
0.00317828
0.00219827
0.00130909
0.000513703
-0.000184984
-0.00078418
-0.00128132
-0.00167417
-0.00196081
-0.00213968
-0.00220948
-0.00216921
-0.00201826
-0.00175641
-0.00138394
-0.000901582
-0.00031031
0.000388521
0.00119314
0.00210151
0.00311131
0.00421981
0.00542391
0.00672033
0.00810548
0.0095755
0.0111263
0.0127537
0.0144529
0.016219
0.0180466
0.0199305
0.0218654
0.0238456
0.0258652
0.0279182
0.0299983
0.0320995
0.0342149
0.036338
0.0384618
0.0405798
0.0426853
0.0447718
0.0468326
0.0488608
0.0508498
0.0527931
0.0546839
0.0565157
0.0582822
0.0599773
0.0615953
0.063131
0.0645791
0.0659345
0.0671924
0.0683481
0.0693977
0.0703377
0.0711654
0.0718785
0.0724751
0.0729532
0.0733115
0.073549
0.0736658
0.0736625
0.0735405
0.0733019
0.0729491
0.0724849
0.0719122
0.0712346
0.0704559
0.0695802
0.0686124
0.0675573
0.06642
0.0652056
0.0639191
0.0625652
0.061148
0.0596708
0.0581362
0.0565566
0.0549429
0.0531551
0.0510719
0.0211099
0.0187463
0.0167461
0.0149709
0.0132585
0.0116183
0.0100627
0.00859206
0.00720709
0.00590964
0.00470195
0.00358643
0.00256549
0.00164144
0.000816599
9.32395e-05
-0.000526492
-0.00104068
-0.0014477
-0.00174611
-0.0019348
-0.00201282
-0.00197957
-0.00183485
-0.0015788
-0.00121194
-0.000735154
-0.000149591
0.000543221
0.00134138
0.00224276
0.00324493
0.00434508
0.0055401
0.0068267
0.00820138
0.00966026
0.0111993
0.0128142
0.0145004
0.0162529
0.0180665
0.0199361
0.0218564
0.0238218
0.0258266
0.0278648
0.0299302
0.0320166
0.0341176
0.0362265
0.0383367
0.0404415
0.0425346
0.0446093
0.0466589
0.0486767
0.050656
0.0525903
0.054473
0.0562977
0.0580579
0.0597478
0.0613614
0.0628934
0.0643385
0.0656917
0.0669478
0.0681023
0.0691511
0.0700908
0.0709183
0.0716313
0.0722274
0.0727046
0.0730613
0.0732963
0.0734093
0.0734006
0.0732715
0.0730235
0.0726586
0.0721793
0.071588
0.0708878
0.0700817
0.0691734
0.0681673
0.0670675
0.0658787
0.0646053
0.0632518
0.0618222
0.0603201
0.058748
0.057108
0.0554132
0.0536746
0.0517396
0.0494767
0.0225191
0.0199761
0.0178289
0.015929
0.0141015
0.0123565
0.0107064
0.00915126
0.00769109
0.00632725
0.0050613
0.00389491
0.00282984
0.00186783
0.00101059
0.000259762
-0.000383107
-0.000916707
-0.00133994
-0.00165185
-0.00185165
-0.00193884
-0.00191327
-0.00177513
-0.00152481
-0.00116305
-0.000690921
-0.000109775
0.000578695
0.00137244
0.00226918
0.00326637
0.00436116
0.00555045
0.00683097
0.00819919
0.00965123
0.011183
0.0127902
0.0144684
0.0162125
0.0180176
0.0198785
0.02179
0.0237467
0.0257428
0.0277723
0.0298291
0.0319073
0.0340002
0.0361016
0.0382046
0.040303
0.0423901
0.0444595
0.0465045
0.0485182
0.0504942
0.0524258
0.0543066
0.0561301
0.05789
0.0595801
0.0611947
0.0627282
0.0641753
0.0655307
0.0667895
0.0679468
0.0689985
0.0699411
0.0707714
0.0714866
0.0720843
0.0725621
0.0729183
0.0731515
0.0732609
0.0732468
0.0731098
0.0728513
0.0724728
0.0719763
0.0713641
0.0706384
0.0698019
0.0688578
0.0678097
0.0666617
0.0654178
0.0640818
0.0626577
0.0611492
0.0595592
0.0578899
0.0561428
0.0543317
0.0524682
0.0503874
0.0479476
0.0238279
0.0211086
0.0188165
0.0167926
0.0148499
0.0129994
0.0112538
0.00961256
0.0080752
0.00664268
0.005316
0.00409619
0.00298443
0.00198195
0.00108989
0.000309321
-0.000358837
-0.000913782
-0.00135481
-0.00168142
-0.0018933
-0.0019904
-0.00197294
-0.00184141
-0.00159645
-0.00123903
-0.000770416
-0.000192189
0.000493748
0.00128518
0.00217969
0.00317465
0.00426721
0.00545425
0.00673246
0.00809823
0.00954767
0.0110767
0.012681
0.014356
0.016097
0.017899
0.0197568
0.0216654
0.0236192
0.0256125
0.0276395
0.029694
0.0317701
0.0338615
0.0359617
0.0380642
0.0401625
0.0422503
0.0443208
0.0463675
0.0483836
0.0503625
0.0522977
0.0541827
0.0560111
0.0577764
0.0594725
0.0610935
0.0626337
0.0640877
0.0654501
0.0667158
0.0678801
0.0689386
0.0698875
0.0707236
0.0714437
0.0720452
0.0725256
0.0728827
0.0731149
0.0732214
0.0732019
0.0730568
0.0727871
0.072394
0.0718789
0.0712437
0.0704903
0.0696209
0.0686382
0.0675454
0.0663461
0.0650439
0.0636423
0.0621447
0.0605544
0.0588741
0.0571054
0.0552498
0.0533217
0.0513334
0.0491078
0.0464935
0.0250262
0.0221334
0.019698
0.0175511
0.0154935
0.0135369
0.0116949
0.00996636
0.00835034
0.00684737
0.00545799
0.00418273
0.00302226
0.00197732
0.0010485
0.000236303
-0.000458832
-0.00103651
-0.00149649
-0.00183872
-0.00206336
-0.00217079
-0.00216154
-0.00203635
-0.00179609
-0.00144198
-0.000975524
-0.000398576
0.000286745
0.00107808
0.00197291
0.00296856
0.00406212
0.00525045
0.00653013
0.00789748
0.00934856
0.0108793
0.0124853
0.0141623
0.0159054
0.0177097
0.0195701
0.0214814
0.0234381
0.0254346
0.027465
0.0295234
0.0316037
0.0336999
0.0358054
0.0379138
0.0400185
0.0421133
0.0441914
0.0462462
0.0482711
0.0502593
0.0522043
0.0540997
0.0559389
0.0577155
0.0594233
0.0610562
0.0626083
0.0640741
0.0654483
0.0667256
0.0679011
0.0689704
0.0699293
0.0707743
0.0715022
0.07211
0.072595
0.0729547
0.0731874
0.0732918
0.0732674
0.0731144
0.0728332
0.0724248
0.0718901
0.0712306
0.0704477
0.0695433
0.0685198
0.06738
0.0661269
0.0647639
0.063294
0.0617203
0.0600458
0.058273
0.0564034
0.054438
0.0523923
0.0502791
0.0479096
0.0451228
0.0261052
0.0230409
0.0204636
0.0181944
0.0160223
0.0139594
0.0120203
0.0102035
0.00850768
0.00693287
0.00547926
0.004147
0.00293625
0.00184724
0.000880104
3.48849e-05
-0.000688415
-0.00128983
-0.00176956
-0.00212801
-0.00236581
-0.00248367
-0.00248239
-0.00236291
-0.00212641
-0.00177435
-0.00130856
-0.000731131
-4.43587e-05
0.000749275
0.00164717
0.00264654
0.00374444
0.00493764
0.00622259
0.00759555
0.00905253
0.0105895
0.0122021
0.013886
0.0156364
0.0174484
0.0193168
0.0212365
0.0232018
0.0252074
0.0272473
0.0293156
0.0314065
0.0335137
0.0356309
0.0377515
0.0398691
0.0419772
0.0440693
0.0461387
0.0481787
0.0501826
0.0521437
0.0540557
0.0559118
0.0577057
0.0594309
0.0610811
0.0626505
0.0641333
0.0655242
0.0668178
0.068009
0.0690931
0.0700658
0.0709234
0.0716621
0.0722789
0.0727708
0.0731352
0.0733699
0.0734735
0.0734451
0.0732847
0.0729922
0.0725682
0.0720134
0.0713285
0.0705149
0.0695741
0.0685081
0.0673192
0.0660103
0.0645843
0.063044
0.061392
0.0596313
0.0577642
0.0557921
0.053716
0.051552
0.0493138
0.046801
0.0438429
0.0270563
0.0238222
0.021104
0.0187131
0.0164267
0.0142575
0.0122208
0.010315
0.00853849
0.00689085
0.00537187
0.00398138
0.00271913
0.00158486
0.000578284
-0.000300947
-0.0010532
-0.00167898
-0.00217894
-0.00255395
-0.00280496
-0.00293297
-0.00293903
-0.00282436
-0.00259043
-0.00223904
-0.00177226
-0.00119241
-0.000501934
0.000296571
0.0012004
0.00220668
0.00331233
0.004514
0.00580807
0.00719068
0.00865789
0.0102056
0.0118297
0.0135255
0.0152884
0.0171134
0.0189952
0.0209288
0.0229086
0.024929
0.0269844
0.0290689
0.0311765
0.0333011
0.0354363
0.0375755
0.0397123
0.0418402
0.0439527
0.0460431
0.0481046
0.0501305
0.0521141
0.0540488
0.055928
0.0577451
0.0594934
0.0611667
0.0627588
0.064264
0.0656767
0.0669914
0.0682029
0.0693062
0.0702968
0.0711704
0.0719234
0.0725522
0.0730537
0.073425
0.0736638
0.0737682
0.0737372
0.0735702
0.073267
0.0728276
0.0722523
0.0715417
0.0706965
0.0697182
0.0686083
0.067369
0.0660026
0.0645118
0.0628992
0.0611672
0.0593186
0.0573557
0.0552798
0.053092
0.050809
0.0484455
0.0457896
0.0426611
0.0278713
0.0244688
0.0216103
0.0190981
0.0166975
0.014422
0.0122875
0.0102922
0.00843427
0.006713
0.00512784
0.00367824
0.00236359
0.00118322
0.000136457
-0.000777374
-0.00155904
-0.00220951
-0.00272989
-0.00312142
-0.00338531
-0.00352283
-0.00353534
-0.00342435
-0.00319167
-0.00283937
-0.00236975
-0.00178533
-0.00108871
-0.00028259
0.000630199
0.00164662
0.00276348
0.0039773
0.00528435
0.00668077
0.0081626
0.00972577
0.011366
0.0130787
0.0148592
0.0167025
0.0186032
0.0205563
0.0225561
0.0245974
0.0266744
0.0287812
0.0309118
0.03306
0.0352194
0.0373836
0.039546
0.0417002
0.0438395
0.0459574
0.0480469
0.0501012
0.0521136
0.0540774
0.0559858
0.057832
0.0596094
0.0613115
0.062932
0.064465
0.0659048
0.0672457
0.0684822
0.0696091
0.0706218
0.0715156
0.0722864
0.0729306
0.0734446
0.0738255
0.0740707
0.074178
0.0741461
0.0739739
0.0736608
0.0732065
0.072611
0.0718744
0.0709974
0.0699808
0.0688262
0.0675353
0.0661102
0.0645532
0.0628668
0.0610533
0.0591154
0.0570555
0.0548747
0.0525741
0.0501714
0.0476821
0.0448829
0.0415841
0.0285418
0.0249721
0.0219741
0.0193408
0.0168261
0.0144442
0.0122116
0.0101265
0.0081866
0.00639114
0.00473923
0.00322992
0.00186224
0.000635242
-0.000452083
-0.00140077
-0.00221204
-0.00288726
-0.00342793
-0.00383555
-0.00411163
-0.00425774
-0.00427557
-0.00416696
-0.00393401
-0.00357903
-0.00310453
-0.00251319
-0.00180778
-0.000991143
-6.6274e-05
0.000963613
0.00209518
0.00332488
0.00464893
0.0060634
0.00756431
0.00914756
0.0108088
0.0125434
0.0143466
0.0162134
0.0181385
0.0201166
0.0221424
0.0242104
0.026315
0.0284502
0.03061
0.0327881
0.0349781
0.0371737
0.0393682
0.0415551
0.0437278
0.0458796
0.0480035
0.0500927
0.0521402
0.0541394
0.0560832
0.0579648
0.0597774
0.0615141
0.0631688
0.0647352
0.0662075
0.0675798
0.0688464
0.0700018
0.0710409
0.071959
0.0727516
0.0734148
0.0739449
0.0743384
0.0745926
0.0747052
0.0746744
0.0744986
0.0741769
0.0737087
0.0730935
0.0723314
0.0714224
0.0703674
0.0691675
0.0678243
0.0663395
0.0647153
0.062954
0.0610579
0.0590296
0.0568715
0.0545847
0.0521703
0.0496469
0.047031
0.0440879
0.0406183
0.0290604
0.0253239
0.022187
0.0194327
0.0168039
0.0143154
0.0119846
0.00980934
0.0077872
0.00591718
0.0041981
0.00262867
0.00120766
-6.61745e-05
-0.00119415
-0.00217773
-0.00301852
-0.00371823
-0.00427866
-0.00470162
-0.00498894
-0.00514251
-0.00516436
-0.00505662
-0.00482166
-0.00446202
-0.00398036
-0.00337955
-0.00266254
-0.00183237
-0.000892223
0.000154519
0.00130442
0.00255388
0.00389903
0.00533589
0.00686042
0.00846843
0.0101555
0.011917
0.0137481
0.0156437
0.0175986
0.0196074
0.021665
0.0237657
0.025904
0.0280738
0.030269
0.0324833
0.0347103
0.0369437
0.0391768
0.041403
0.0436156
0.0458078
0.0479727
0.0501032
0.0521924
0.0542333
0.0562189
0.0581421
0.059996
0.0617735
0.0634682
0.0650739
0.0665843
0.0679934
0.0692953
0.0704841
0.0715545
0.0725013
0.0733199
0.0740061
0.0745558
0.0749655
0.0752319
0.0753524
0.075325
0.0751477
0.0748192
0.0743383
0.0737045
0.0729174
0.071977
0.0708837
0.0696383
0.0682423
0.0666973
0.0650052
0.0631681
0.0611885
0.0590688
0.0568114
0.0544175
0.0518881
0.0492429
0.0464993
0.0434112
0.0397699
0.0294197
0.0255166
0.0222406
0.0193656
0.0166226
0.0140273
0.0115981
0.00933243
0.00722782
0.00528296
0.00349645
0.00186676
0.000392365
-0.000928261
-0.00209678
-0.00311504
-0.00398497
-0.00470858
-0.00528796
-0.00572525
-0.00602263
-0.00618233
-0.00620669
-0.00609811
-0.00585918
-0.00549264
-0.00500132
-0.00438831
-0.00365676
-0.00280994
-0.00185121
-0.000784094
0.000387918
0.00166115
0.00303165
0.00449532
0.00604804
0.00768557
0.00940338
0.0111968
0.0130609
0.0149908
0.016981
0.0190264
0.0211215
0.023261
0.025439
0.0276495
0.0298864
0.0321433
0.0344138
0.0366915
0.0389697
0.0412418
0.043501
0.0457403
0.0479527
0.0501311
0.0522685
0.0543576
0.0563914
0.0583626
0.0602641
0.0620887
0.0638296
0.0654804
0.0670347
0.0684863
0.0698288
0.0710563
0.0721629
0.0731433
0.0739925
0.0747059
0.0752794
0.0757089
0.075991
0.0761226
0.0761012
0.0759248
0.0755914
0.0750997
0.0744486
0.0736376
0.0726664
0.0715353
0.0702447
0.0687959
0.0671904
0.0654299
0.0635164
0.0614525
0.0592404
0.0568827
0.0543805
0.0517347
0.0489664
0.0460938
0.0428593
0.0390446
0.0296124
0.0255423
0.022127
0.0191311
0.0162737
0.0135715
0.0110435
0.00868739
0.00650014
0.00448029
0.00262628
0.000936362
-0.000591256
-0.00195844
-0.0031672
-0.00421966
-0.00511806
-0.00586469
-0.00646195
-0.00691235
-0.00721841
-0.00738271
-0.00740785
-0.00729646
-0.00705136
-0.00667543
-0.00617175
-0.00554364
-0.00479451
-0.0039278
-0.00294703
-0.00185583
-0.000657771
0.000643398
0.00204358
0.00353856
0.00512413
0.00679599
0.00854951
0.0103799
0.0122825
0.014252
0.0162832
0.0183709
0.0205095
0.0226937
0.0249176
0.0271751
0.0294599
0.0317658
0.0340863
0.0364149
0.038745
0.0410696
0.043382
0.0456751
0.0479417
0.0501747
0.0523668
0.0545108
0.0565994
0.0586252
0.0605807
0.0624587
0.0642522
0.0659543
0.0675586
0.0690584
0.0704473
0.0717188
0.072867
0.0738861
0.0747707
0.0755161
0.0761176
0.076571
0.0768725
0.0770187
0.0770065
0.0768336
0.0764978
0.0759974
0.0753308
0.0744973
0.0734965
0.0723282
0.070993
0.0694917
0.0678256
0.0659964
0.0640062
0.0618572
0.0595518
0.0570927
0.0544808
0.0517173
0.0488244
0.0458212
0.0424385
0.0384483
0.029631
0.0253932
0.0218382
0.0187208
0.0157489
0.0129395
0.0103126
0.00786572
0.0055957
0.00350087
0.00157948
-0.00017043
-0.00175097
-0.00316431
-0.00441274
-0.00549866
-0.00642457
-0.00719308
-0.00780695
-0.00826904
-0.0085822
-0.00874933
-0.00877327
-0.00865685
-0.00840308
-0.00801509
-0.00749618
-0.00684995
-0.00608004
-0.00519002
-0.00418357
-0.00306441
-0.0018362
-0.000502815
0.000931495
0.00246237
0.00408554
0.00579659
0.00759085
0.00946352
0.0114098
0.0134245
0.0155025
0.0176383
0.0198264
0.0220613
0.0243371
0.0266478
0.028987
0.0313483
0.0337254
0.0361116
0.0385002
0.0408842
0.0432565
0.0456101
0.0479377
0.050232
0.0524857
0.0546914
0.0568416
0.0589286
0.0609448
0.0628828
0.0647353
0.0664952
0.0681557
0.0697099
0.071151
0.0724725
0.0736678
0.074731
0.0756563
0.0764385
0.0770728
0.0775545
0.0778796
0.078044
0.0780446
0.0778784
0.0775429
0.0770361
0.0763562
0.075502
0.074473
0.0732688
0.0718898
0.0703364
0.06861
0.0667121
0.0646447
0.0624099
0.0600104
0.0574486
0.0547257
0.051843
0.0488237
0.045688
0.0421551
0.0379869
0.0294678
0.0250615
0.021366
0.0181265
0.0150395
0.0121227
0.00939662
0.00685882
0.00450599