/*--------------------------------*- C++ -*----------------------------------*\
  =========                 |
  \\      /  F ield         | OpenFOAM: The Open Source CFD Toolbox
   \\    /   O peration     | Website:  https://openfoam.org
    \\  /    A nd           | Version:  11
     \\/     M anipulation  |
\*---------------------------------------------------------------------------*/
FoamFile
{
    format      ascii;
    class       volVectorField;
    location    "6.7";
    object      U;
}
// * * * * * * * * * * * * * * * * * * * * * * * * * * * * * * * * * * * * * //

dimensions      [0 1 -1 0 0 0 0];

internalField   nonuniform List<vector> 
10100
(
(3.61064e-06 -2.3005e-06 0)
(1.43377e-05 -6.64728e-06 0)
(3.25939e-05 -8.3544e-06 0)
(4.92247e-05 -7.24963e-06 0)
(6.03638e-05 -4.85825e-06 0)
(6.31463e-05 -1.84871e-06 0)
(5.63895e-05 1.41595e-06 0)
(3.95613e-05 4.7306e-06 0)
(1.25534e-05 7.97994e-06 0)
(-2.4462e-05 1.10999e-05 0)
(-7.11248e-05 1.40527e-05 0)
(-0.000126969 1.68141e-05 0)
(-0.00019144 1.93766e-05 0)
(-0.00026394 2.17379e-05 0)
(-0.000343837 2.38911e-05 0)
(-0.000430476 2.58314e-05 0)
(-0.000523187 2.7556e-05 0)
(-0.000621305 2.9072e-05 0)
(-0.000724165 3.03868e-05 0)
(-0.000831106 3.15063e-05 0)
(-0.000941483 3.24354e-05 0)
(-0.00105466 3.31737e-05 0)
(-0.00117 3.37263e-05 0)
(-0.0012869 3.41033e-05 0)
(-0.00140478 3.43074e-05 0)
(-0.00152304 3.43423e-05 0)
(-0.00164115 3.42148e-05 0)
(-0.00175855 3.39294e-05 0)
(-0.00187472 3.34935e-05 0)
(-0.00198917 3.29179e-05 0)
(-0.00210143 3.22099e-05 0)
(-0.00221103 3.1373e-05 0)
(-0.00231754 3.04127e-05 0)
(-0.00242056 2.93349e-05 0)
(-0.00251968 2.81463e-05 0)
(-0.00261455 2.68554e-05 0)
(-0.00270481 2.54711e-05 0)
(-0.00279013 2.39974e-05 0)
(-0.00287021 2.24353e-05 0)
(-0.00294476 2.079e-05 0)
(-0.00301351 1.90716e-05 0)
(-0.00307622 1.7289e-05 0)
(-0.00313266 1.54461e-05 0)
(-0.00318263 1.35456e-05 0)
(-0.00322596 1.1594e-05 0)
(-0.00326248 9.60014e-06 0)
(-0.00329205 7.57166e-06 0)
(-0.00331456 5.514e-06 0)
(-0.00332993 3.43185e-06 0)
(-0.00333808 1.3319e-06 0)
(-0.00333897 -7.77252e-07 0)
(-0.00333258 -2.88729e-06 0)
(-0.00331891 -4.99103e-06 0)
(-0.00329801 -7.08253e-06 0)
(-0.00326991 -9.1562e-06 0)
(-0.0032347 -1.12051e-05 0)
(-0.00319248 -1.32213e-05 0)
(-0.00314339 -1.51973e-05 0)
(-0.00308757 -1.71257e-05 0)
(-0.0030252 -1.89987e-05 0)
(-0.0029565 -2.08084e-05 0)
(-0.0028817 -2.25465e-05 0)
(-0.00280106 -2.42044e-05 0)
(-0.00271489 -2.57743e-05 0)
(-0.00262348 -2.7249e-05 0)
(-0.00252719 -2.8621e-05 0)
(-0.00242638 -2.98823e-05 0)
(-0.00232146 -3.10254e-05 0)
(-0.00221284 -3.20422e-05 0)
(-0.00210097 -3.29242e-05 0)
(-0.00198634 -3.36632e-05 0)
(-0.00186943 -3.4252e-05 0)
(-0.00175078 -3.46839e-05 0)
(-0.00163093 -3.49533e-05 0)
(-0.00151043 -3.50543e-05 0)
(-0.00138989 -3.49807e-05 0)
(-0.00126989 -3.47267e-05 0)
(-0.00115106 -3.42872e-05 0)
(-0.00103403 -3.36579e-05 0)
(-0.000919451 -3.28342e-05 0)
(-0.000807975 -3.18115e-05 0)
(-0.00070027 -3.05858e-05 0)
(-0.00059701 -2.91539e-05 0)
(-0.000498872 -2.75136e-05 0)
(-0.000406531 -2.56629e-05 0)
(-0.000320655 -2.36021e-05 0)
(-0.000241896 -2.13345e-05 0)
(-0.000170884 -1.88648e-05 0)
(-0.000108217 -1.61999e-05 0)
(-5.44444e-05 -1.33517e-05 0)
(-1.0052e-05 -1.03387e-05 0)
(2.45654e-05 -7.18777e-06 0)
(4.91434e-05 -3.94001e-06 0)
(6.36103e-05 -6.63418e-07 0)
(6.81842e-05 2.52728e-06 0)
(6.35248e-05 5.43233e-06 0)
(5.09501e-05 7.70206e-06 0)
(3.28899e-05 8.71586e-06 0)
(1.4213e-05 7.41179e-06 0)
(2.78085e-06 2.77758e-06 0)
(8.36877e-06 -1.47239e-05 0)
(3.13318e-05 -2.92574e-05 0)
(6.12103e-05 -3.17676e-05 0)
(8.4962e-05 -2.4126e-05 0)
(9.34559e-05 -1.04845e-05 0)
(8.12527e-05 6.61938e-06 0)
(4.51226e-05 2.5515e-05 0)
(-1.67145e-05 4.51356e-05 0)
(-0.000104941 6.47644e-05 0)
(-0.00021947 8.39524e-05 0)
(-0.000359671 0.000102382 0)
(-0.000524521 0.000119849 0)
(-0.000712732 0.000136215 0)
(-0.000922826 0.000151392 0)
(-0.00115318 0.000165319 0)
(-0.0014021 0.00017796 0)
(-0.00166781 0.000189294 0)
(-0.00194852 0.000199313 0)
(-0.00224243 0.000208032 0)
(-0.00254773 0.000215462 0)
(-0.00286262 0.000221624 0)
(-0.00318534 0.000226543 0)
(-0.00351415 0.000230241 0)
(-0.00384735 0.000232746 0)
(-0.00418326 0.000234098 0)
(-0.00452028 0.000234331 0)
(-0.00485683 0.000233478 0)
(-0.00519139 0.000231573 0)
(-0.0055225 0.00022866 0)
(-0.00584874 0.000224783 0)
(-0.00616875 0.000219983 0)
(-0.00648125 0.0002143 0)
(-0.00678498 0.000207778 0)
(-0.00707877 0.000200457 0)
(-0.00736149 0.00019238 0)
(-0.00763208 0.00018359 0)
(-0.00788955 0.000174129 0)
(-0.00813294 0.000164037 0)
(-0.00836136 0.000153351 0)
(-0.00857401 0.000142114 0)
(-0.0087701 0.00013037 0)
(-0.00894894 0.000118161 0)
(-0.00910989 0.00010553 0)
(-0.00925237 9.25177e-05 0)
(-0.00937587 7.91689e-05 0)
(-0.00947992 6.55296e-05 0)
(-0.00956415 5.16429e-05 0)
(-0.00962822 3.75519e-05 0)
(-0.00967188 2.33016e-05 0)
(-0.00969494 8.94041e-06 0)
(-0.00969729 -5.48151e-06 0)
(-0.00967886 -1.99151e-05 0)
(-0.00963967 -3.43129e-05 0)
(-0.00957981 -4.86276e-05 0)
(-0.00949944 -6.28111e-05 0)
(-0.0093988 -7.6814e-05 0)
(-0.00927817 -9.05851e-05 0)
(-0.00913794 -0.000104073 0)
(-0.00897855 -0.000117228 0)
(-0.00880053 -0.000129995 0)
(-0.00860449 -0.000142319 0)
(-0.00839111 -0.000154147 0)
(-0.00816114 -0.000165424 0)
(-0.00791541 -0.000176097 0)
(-0.00765484 -0.000186115 0)
(-0.0073804 -0.000195425 0)
(-0.00709316 -0.000203974 0)
(-0.00679425 -0.00021171 0)
(-0.00648488 -0.000218579 0)
(-0.00616632 -0.000224532 0)
(-0.00583993 -0.000229518 0)
(-0.00550711 -0.000233491 0)
(-0.00516935 -0.000236408 0)
(-0.00482818 -0.000238227 0)
(-0.0044852 -0.000238908 0)
(-0.00414207 -0.000238415 0)
(-0.00380046 -0.000236713 0)
(-0.00346212 -0.000233772 0)
(-0.00312883 -0.000229565 0)
(-0.00280239 -0.000224071 0)
(-0.00248462 -0.00021727 0)
(-0.00217738 -0.000209148 0)
(-0.00188251 -0.000199697 0)
(-0.00160186 -0.00018892 0)
(-0.00133725 -0.000176826 0)
(-0.00109046 -0.00016344 0)
(-0.00086321 -0.000148805 0)
(-0.000657139 -0.000132979 0)
(-0.000473761 -0.000116047 0)
(-0.000314423 -9.81232e-05 0)
(-0.00018025 -7.93734e-05 0)
(-7.20666e-05 -6.00293e-05 0)
(9.71804e-06 -4.0421e-05 0)
(6.52618e-05 -2.10286e-05 0)
(9.5513e-05 -2.56473e-06 0)
(0.000102516 1.38979e-05 0)
(8.97567e-05 2.67388e-05 0)
(6.27202e-05 3.35058e-05 0)
(3.06663e-05 3.06107e-05 0)
(7.43559e-06 1.42101e-05 0)
(8.9046e-06 -3.31594e-05 0)
(3.27563e-05 -6.02255e-05 0)
(5.97356e-05 -5.84494e-05 0)
(7.31567e-05 -3.58564e-05 0)
(6.21646e-05 6.34901e-07 0)
(1.99078e-05 4.583e-05 0)
(-5.81335e-05 9.60102e-05 0)
(-0.00017463 0.000148538 0)
(-0.000330795 0.000201576 0)
(-0.00052673 0.000253821 0)
(-0.000761707 0.000304361 0)
(-0.00103438 0.000352548 0)
(-0.00134295 0.000397923 0)
(-0.00168527 0.000440172 0)
(-0.00205899 0.000479079 0)
(-0.00246154 0.0005145 0)
(-0.00289026 0.000546351 0)
(-0.0033424 0.000574584 0)
(-0.00381519 0.000599191 0)
(-0.00430584 0.000620199 0)
(-0.00481154 0.000637641 0)
(-0.00532952 0.000651566 0)
(-0.00585707 0.000662043 0)
(-0.00639149 0.000669151 0)
(-0.00693015 0.000672974 0)
(-0.00747051 0.000673607 0)
(-0.00801007 0.000671148 0)
(-0.00854641 0.000665698 0)
(-0.0090772 0.000657368 0)
(-0.00960018 0.000646268 0)
(-0.0101132 0.000632513 0)
(-0.0106142 0.00061622 0)
(-0.0111011 0.000597507 0)
(-0.0115721 0.000576494 0)
(-0.0120254 0.000553298 0)
(-0.0124593 0.000528036 0)
(-0.0128721 0.000500829 0)
(-0.0132623 0.000471794 0)
(-0.0136285 0.000441051 0)
(-0.0139694 0.000408721 0)
(-0.0142837 0.000374924 0)
(-0.0145704 0.000339784 0)
(-0.0148284 0.000303424 0)
(-0.0150567 0.000265969 0)
(-0.0152545 0.000227547 0)
(-0.0154212 0.000188285 0)
(-0.0155561 0.000148312 0)
(-0.0156586 0.000107757 0)
(-0.0157284 6.67517e-05 0)
(-0.0157651 2.54334e-05 0)
(-0.0157686 -1.60589e-05 0)
(-0.0157388 -5.75855e-05 0)
(-0.0156757 -9.90076e-05 0)
(-0.0155795 -0.000140185 0)
(-0.0154504 -0.000180977 0)
(-0.0152888 -0.000221237 0)
(-0.0150952 -0.00026082 0)
(-0.0148702 -0.000299578 0)
(-0.0146145 -0.000337361 0)
(-0.0143289 -0.000374017 0)
(-0.0140146 -0.000409392 0)
(-0.0136725 -0.000443331 0)
(-0.0133038 -0.00047568 0)
(-0.01291 -0.00050629 0)
(-0.0124924 -0.000535008 0)
(-0.0120526 -0.000561684 0)
(-0.0115924 -0.000586169 0)
(-0.0111136 -0.000608315 0)
(-0.010618 -0.000627974 0)
(-0.0101078 -0.000645007 0)
(-0.00958503 -0.000659276 0)
(-0.009052 -0.000670651 0)
(-0.00851104 -0.000679008 0)
(-0.0079646 -0.000684231 0)
(-0.00741522 -0.00068621 0)
(-0.0068655 -0.000684844 0)
(-0.00631814 -0.000680041 0)
(-0.00577587 -0.000671722 0)
(-0.00524149 -0.000659819 0)
(-0.00471784 -0.000644278 0)
(-0.0042078 -0.000625057 0)
(-0.00371424 -0.000602135 0)
(-0.00324003 -0.00057551 0)
(-0.00278803 -0.000545207 0)
(-0.00236102 -0.000511286 0)
(-0.00196173 -0.000473843 0)
(-0.00159275 -0.000433023 0)
(-0.00125653 -0.000389034 0)
(-0.000955271 -0.000342155 0)
(-0.000690923 -0.000292766 0)
(-0.000465037 -0.000241385 0)
(-0.000278669 -0.000188718 0)
(-0.000132223 -0.000135734 0)
(-2.52443e-05 -8.37706e-05 0)
(4.3851e-05 -3.4698e-05 0)
(7.81202e-05 8.86367e-06 0)
(8.24246e-05 4.3251e-05 0)
(6.38923e-05 6.34357e-05 0)
(3.37786e-05 6.27352e-05 0)
(8.79196e-06 3.29544e-05 0)
(7.6392e-06 -5.09881e-05 0)
(2.51321e-05 -8.50195e-05 0)
(3.76839e-05 -7.22519e-05 0)
(2.82536e-05 -2.61871e-05 0)
(-1.46141e-05 4.29058e-05 0)
(-9.84701e-05 0.000127029 0)
(-0.000228461 0.000220173 0)
(-0.000407764 0.000317887 0)
(-0.000637909 0.000416913 0)
(-0.000919134 0.000514857 0)
(-0.00125066 0.000609978 0)
(-0.00163091 0.000700996 0)
(-0.00205772 0.000786979 0)
(-0.00252845 0.000867261 0)
(-0.00304012 0.000941369 0)
(-0.0035895 0.00100898 0)
(-0.00417318 0.00106988 0)
(-0.00478763 0.00112395 0)
(-0.00542922 0.00117115 0)
(-0.00609431 0.00121146 0)
(-0.00677924 0.00124496 0)
(-0.00748035 0.00127171 0)
(-0.00819403 0.00129183 0)
(-0.00891673 0.00130546 0)
(-0.00964496 0.00131274 0)
(-0.0103753 0.00131386 0)
(-0.0111044 0.00130898 0)
(-0.0118291 0.00129832 0)
(-0.0125462 0.00128206 0)
(-0.0132527 0.00126042 0)
(-0.0139458 0.00123361 0)
(-0.0146225 0.00120186 0)
(-0.0152802 0.00116538 0)
(-0.0159164 0.00112442 0)
(-0.0165287 0.00107919 0)
(-0.0171147 0.00102992 0)
(-0.0176722 0.000976842 0)
(-0.0181992 0.000920194 0)
(-0.0186938 0.000860208 0)
(-0.0191541 0.000797121 0)
(-0.0195786 0.000731169 0)
(-0.0199656 0.000662592 0)
(-0.0203139 0.000591632 0)
(-0.0206221 0.000518537 0)
(-0.0208891 0.000443555 0)
(-0.021114 0.000366934 0)
(-0.0212958 0.000288929 0)
(-0.021434 0.000209794 0)
(-0.021528 0.000129791 0)
(-0.0215773 4.91836e-05 0)
(-0.0215818 -3.17585e-05 0)
(-0.0215412 -0.000112765 0)
(-0.0214557 -0.000193562 0)
(-0.0213255 -0.000273873 0)
(-0.0211508 -0.000353419 0)
(-0.0209323 -0.000431916 0)
(-0.0206706 -0.000509079 0)
(-0.0203665 -0.000584617 0)
(-0.020021 -0.00065824 0)
(-0.0196353 -0.00072965 0)
(-0.0192107 -0.000798551 0)
(-0.0187486 -0.000864644 0)
(-0.0182509 -0.000927632 0)
(-0.0177191 -0.000987221 0)
(-0.0171553 -0.00104312 0)
(-0.0165617 -0.00109503 0)
(-0.0159405 -0.00114267 0)
(-0.0152942 -0.00118575 0)
(-0.0146253 -0.001224 0)
(-0.0139366 -0.00125714 0)
(-0.0132311 -0.00128492 0)
(-0.0125116 -0.00130709 0)
(-0.0117814 -0.0013234 0)
(-0.0110437 -0.00133364 0)
(-0.0103019 -0.0013376 0)
(-0.00955949 -0.0013351 0)
(-0.00882007 -0.00132595 0)
(-0.00808726 -0.00131003 0)
(-0.00736478 -0.00128721 0)
(-0.00665639 -0.00125739 0)
(-0.00596588 -0.00122053 0)
(-0.00529703 -0.00117659 0)
(-0.00465361 -0.00112561 0)
(-0.00403934 -0.00106766 0)
(-0.00345784 -0.00100288 0)
(-0.00291262 -0.000931497 0)
(-0.00240699 -0.000853832 0)
(-0.00194406 -0.000770321 0)
(-0.00152659 -0.000681551 0)
(-0.00115697 -0.000588307 0)
(-0.000837071 -0.000491625 0)
(-0.000568099 -0.000392887 0)
(-0.000350436 -0.00029393 0)
(-0.000183416 -0.000197212 0)
(-6.50489e-05 -0.000106034 0)
(8.30154e-06 -2.48234e-05 0)
(4.22125e-05 4.04962e-05 0)
(4.46037e-05 8.21596e-05 0)
(2.73986e-05 9.01701e-05 0)
(7.86137e-06 5.12394e-05 0)
(5.24702e-06 -6.25074e-05 0)
(1.17664e-05 -9.46121e-05 0)
(2.03106e-06 -6.21309e-05 0)
(-3.93508e-05 1.63465e-05 0)
(-0.00012337 0.000127189 0)
(-0.000257672 0.000259691 0)
(-0.000447558 0.000405556 0)
(-0.000696334 0.000558475 0)
(-0.00100563 0.000713657 0)
(-0.0013757 0.000867487 0)
(-0.00180567 0.00101725 0)
(-0.00229377 0.0011609 0)
(-0.00283752 0.00129693 0)
(-0.00343388 0.00142421 0)
(-0.00407938 0.00154191 0)
(-0.00477023 0.00164948 0)
(-0.00550238 0.0017465 0)
(-0.00627161 0.00183275 0)
(-0.00707363 0.0019081 0)
(-0.00790401 0.00197251 0)
(-0.00875834 0.00202603 0)
(-0.00963219 0.00206876 0)
(-0.0105212 0.00210087 0)
(-0.011421 0.00212255 0)
(-0.0123273 0.00213402 0)
(-0.0132359 0.00213556 0)
(-0.0141429 0.00212743 0)
(-0.0150441 0.00210994 0)
(-0.0159358 0.00208342 0)
(-0.0168141 0.00204818 0)
(-0.0176756 0.00200458 0)
(-0.0185168 0.00195295 0)
(-0.0193343 0.00189366 0)
(-0.020125 0.00182707 0)
(-0.0208858 0.00175355 0)
(-0.021614 0.00167346 0)
(-0.0223067 0.00158719 0)
(-0.0229615 0.00149511 0)
(-0.023576 0.00139759 0)
(-0.0241479 0.00129504 0)
(-0.0246752 0.00118782 0)
(-0.0251559 0.00107634 0)
(-0.0255884 0.000960984 0)
(-0.0259712 0.000842161 0)
(-0.0263027 0.000720272 0)
(-0.0265818 0.000595724 0)
(-0.0268075 0.000468931 0)
(-0.0269789 0.000340313 0)
(-0.0270953 0.000210293 0)
(-0.0271563 7.93017e-05 0)
(-0.0271615 -5.22261e-05 0)
(-0.0271108 -0.000183849 0)
(-0.0270042 -0.000315122 0)
(-0.0268421 -0.000445591 0)
(-0.0266248 -0.000574802 0)
(-0.0263531 -0.000702294 0)
(-0.0260277 -0.000827602 0)
(-0.0256497 -0.000950254 0)
(-0.0252203 -0.00106978 0)
(-0.024741 -0.00118569 0)
(-0.0242135 -0.00129752 0)
(-0.0236395 -0.00140478 0)
(-0.0230211 -0.00150698 0)
(-0.0223606 -0.00160367 0)
(-0.0216603 -0.00169435 0)
(-0.020923 -0.00177857 0)
(-0.0201515 -0.00185585 0)
(-0.0193487 -0.00192575 0)
(-0.018518 -0.00198782 0)
(-0.0176626 -0.00204162 0)
(-0.0167862 -0.00208675 0)
(-0.0158924 -0.00212281 0)
(-0.0149852 -0.00214942 0)
(-0.0140685 -0.00216623 0)
(-0.0131465 -0.00217292 0)
(-0.0122235 -0.00216919 0)
(-0.0113039 -0.00215479 0)
(-0.0103921 -0.00212949 0)
(-0.00949264 -0.00209312 0)
(-0.00861011 -0.00204556 0)
(-0.00774911 -0.00198673 0)
(-0.00691422 -0.00191663 0)
(-0.00610999 -0.00183533 0)
(-0.00534089 -0.001743 0)
(-0.00461126 -0.0016399 0)
(-0.00392527 -0.00152645 0)
(-0.00328686 -0.00140319 0)
(-0.00269967 -0.00127087 0)
(-0.00216693 -0.00113049 0)
(-0.00169139 -0.00098334 0)
(-0.00127518 -0.000831112 0)
(-0.000919659 -0.000675997 0)
(-0.00062524 -0.000520845 0)
(-0.00039118 -0.000369369 0)
(-0.000215326 -0.000226403 0)
(-9.38398e-05 -9.82422e-05 0)
(-2.09231e-05 6.94886e-06 0)
(1.15378e-05 7.87363e-05 0)
(1.51222e-05 0.000103879 0)
(5.70834e-06 6.42935e-05 0)
(2.30648e-06 -6.59847e-05 0)
(-4.91335e-06 -8.39703e-05 0)
(-4.22285e-05 -2.13025e-05 0)
(-0.000121977 9.92863e-05 0)
(-0.000253906 0.000261188 0)
(-0.000445301 0.000451181 0)
(-0.000701203 0.000658826 0)
(-0.00102475 0.000875978 0)
(-0.00141746 0.00109631 0)
(-0.00187945 0.00131494 0)
(-0.00240967 0.0015281 0)
(-0.00300612 0.0017329 0)
(-0.00366606 0.00192714 0)
(-0.00438607 0.00210918 0)
(-0.00516224 0.00227777 0)
(-0.0059903 0.00243203 0)
(-0.00686569 0.00257133 0)
(-0.00778359 0.00269526 0)
(-0.00873905 0.00280359 0)
(-0.00972705 0.00289623 0)
(-0.0107425 0.0029732 0)
(-0.0117803 0.00303461 0)
(-0.0128353 0.00308066 0)
(-0.0139025 0.00311161 0)
(-0.014977 0.00312778 0)
(-0.0160538 0.0031295 0)
(-0.0171283 0.00311718 0)
(-0.0181957 0.00309125 0)
(-0.0192516 0.00305214 0)
(-0.0202915 0.00300032 0)
(-0.0213113 0.00293629 0)
(-0.0223068 0.00286055 0)
(-0.0232743 0.00277361 0)
(-0.0242099 0.00267599 0)
(-0.0251102 0.00256823 0)
(-0.0259716 0.00245086 0)
(-0.0267912 0.00232443 0)
(-0.0275658 0.00218949 0)
(-0.0282925 0.0020466 0)
(-0.0289689 0.00189633 0)
(-0.0295925 0.00173923 0)
(-0.030161 0.00157589 0)
(-0.0306724 0.00140688 0)
(-0.0311248 0.00123279 0)
(-0.0315167 0.00105422 0)
(-0.0318466 0.000871762 0)
(-0.0321132 0.000686026 0)
(-0.0323157 0.000497628 0)
(-0.0324531 0.00030719 0)
(-0.0325248 0.00011534 0)
(-0.0325307 -7.72807e-05 0)
(-0.0324704 -0.000270027 0)
(-0.0323441 -0.000462243 0)
(-0.032152 -0.000653269 0)
(-0.0318948 -0.000842434 0)
(-0.0315732 -0.00102906 0)
(-0.0311882 -0.00121248 0)
(-0.030741 -0.00139199 0)
(-0.0302331 -0.0015669 0)
(-0.0296662 -0.00173651 0)
(-0.0290422 -0.00190013 0)
(-0.0283634 -0.00205705 0)
(-0.0276321 -0.00220659 0)
(-0.0268509 -0.00234803 0)
(-0.0260229 -0.0024807 0)
(-0.025151 -0.00260391 0)
(-0.0242386 -0.00271699 0)
(-0.0232892 -0.00281929 0)
(-0.0223067 -0.00291016 0)
(-0.021295 -0.00298899 0)
(-0.0202582 -0.00305517 0)
(-0.0192008 -0.00310814 0)
(-0.0181272 -0.00314737 0)
(-0.0170422 -0.00317235 0)
(-0.0159507 -0.00318262 0)
(-0.0148575 -0.00317777 0)
(-0.0137679 -0.00315745 0)
(-0.0126869 -0.00312136 0)
(-0.01162 -0.00306925 0)
(-0.0105723 -0.00300098 0)
(-0.00954916 -0.00291648 0)
(-0.00855593 -0.00281577 0)
(-0.00759782 -0.002699 0)
(-0.00667995 -0.00256644 0)
(-0.0058073 -0.00241855 0)
(-0.00498461 -0.00225595 0)
(-0.00421635 -0.00207949 0)
(-0.00350663 -0.00189031 0)
(-0.00285908 -0.00168988 0)
(-0.0022768 -0.0014801 0)
(-0.00176217 -0.00126339 0)
(-0.00131673 -0.00104285 0)
(-0.000941018 -0.000822422 0)
(-0.000634364 -0.000607124 0)
(-0.000394683 -0.00040335 0)
(-0.000218244 -0.000219223 0)
(-9.94199e-05 -6.50414e-05 0)
(-3.03681e-05 4.62822e-05 0)
(-6.26498e-07 9.8571e-05 0)
(2.95027e-06 6.97787e-05 0)
(-8.64947e-07 -6.02118e-05 0)
(-2.33909e-05 -4.98393e-05 0)
(-9.15974e-05 5.48322e-05 0)
(-0.000214029 0.000227981 0)
(-0.000398625 0.0004505 0)
(-0.000651929 0.000706972 0)
(-0.000978432 0.000984993 0)
(-0.00138084 0.00127471 0)
(-0.00186034 0.00156832 0)
(-0.00241675 0.00185965 0)
(-0.00304881 0.00214389 0)
(-0.00375422 0.00241725 0)
(-0.00452989 0.0026768 0)
(-0.00537209 0.00292031 0)
(-0.00627652 0.00314607 0)
(-0.00723847 0.00335282 0)
(-0.00825286 0.00353967 0)
(-0.0093144 0.003706 0)
(-0.0104176 0.00385144 0)
(-0.0115568 0.00397581 0)
(-0.0127264 0.0040791 0)
(-0.0139206 0.00416141 0)
(-0.0151337 0.00422298 0)
(-0.0163602 0.0042641 0)
(-0.0175942 0.00428519 0)
(-0.0188305 0.0042867 0)
(-0.0200636 0.00426914 0)
(-0.0212881 0.00423306 0)
(-0.0224991 0.00417905 0)
(-0.0236916 0.00410773 0)
(-0.0248607 0.00401977 0)
(-0.0260019 0.00391583 0)
(-0.0271107 0.00379661 0)
(-0.0281828 0.0036628 0)
(-0.0292143 0.00351514 0)
(-0.0302012 0.00335435 0)
(-0.03114 0.00318117 0)
(-0.0320272 0.00299636 0)
(-0.0328596 0.00280068 0)
(-0.0336343 0.0025949 0)
(-0.0343483 0.00237979 0)
(-0.0349992 0.00215614 0)
(-0.0355847 0.00192475 0)
(-0.0361027 0.00168642 0)
(-0.0365512 0.00144196 0)
(-0.0369287 0.0011922 0)
(-0.0372338 0.000937966 0)
(-0.0374653 0.000680102 0)
(-0.0376224 0.000419461 0)
(-0.0377043 0.000156907 0)
(-0.0377107 -0.000106684 0)
(-0.0376414 -0.000370429 0)
(-0.0374966 -0.00063343 0)
(-0.0372765 -0.000894784 0)
(-0.0369818 -0.00115357 0)
(-0.0366133 -0.00140888 0)
(-0.0361723 -0.00165976 0)
(-0.0356601 -0.00190529 0)
(-0.0350785 -0.00214451 0)
(-0.0344293 -0.00237647 0)
(-0.0337148 -0.00260023 0)
(-0.0329375 -0.00281483 0)
(-0.0321001 -0.00301932 0)
(-0.0312056 -0.00321275 0)
(-0.0302574 -0.0033942 0)
(-0.029259 -0.00356274 0)
(-0.0282141 -0.00371746 0)
(-0.0271268 -0.00385748 0)
(-0.0260014 -0.00398192 0)
(-0.0248424 -0.00408995 0)
(-0.0236545 -0.00418078 0)
(-0.0224427 -0.00425364 0)
(-0.0212121 -0.0043078 0)
(-0.0199681 -0.00434262 0)
(-0.0187161 -0.00435747 0)
(-0.0174618 -0.00435183 0)
(-0.0162108 -0.00432521 0)
(-0.0149692 -0.00427725 0)
(-0.0137427 -0.00420765 0)
(-0.0125374 -0.00411623 0)
(-0.0113591 -0.00400293 0)
(-0.010214 -0.00386784 0)
(-0.00910764 -0.00371119 0)
(-0.00804592 -0.00353341 0)
(-0.00703431 -0.00333515 0)
(-0.00607809 -0.00311731 0)
(-0.00518219 -0.00288109 0)
(-0.00435115 -0.00262806 0)
(-0.00358901 -0.00236025 0)
(-0.00289915 -0.00208021 0)
(-0.00228427 -0.00179115 0)
(-0.00174614 -0.00149713 0)
(-0.00128552 -0.0012032 0)
(-0.000901983 -0.000915693 0)
(-0.000593707 -0.000642516 0)
(-0.00035733 -0.000393518 0)
(-0.000187706 -0.000180955 0)
(-7.76268e-05 -1.99347e-05 0)
(-1.82877e-05 7.08828e-05 0)
(-7.20068e-08 6.64458e-05 0)
(-4.08617e-06 -4.46129e-05 0)
(-4.26912e-05 9.68871e-06 0)
(-0.00014373 0.000169242 0)
(-0.000311557 0.000406057 0)
(-0.000551981 0.000699061 0)
(-0.000870558 0.00103099 0)
(-0.00127096 0.00138774 0)
(-0.00175524 0.00175788 0)
(-0.00232409 0.00213224 0)
(-0.00297693 0.00250343 0)
(-0.00371209 0.00286558 0)
(-0.00452697 0.00321401 0)
(-0.00541813 0.00354505 0)
(-0.00638145 0.00385584 0)
(-0.00741226 0.00414417 0)
(-0.00850542 0.0044084 0)
(-0.00965543 0.00464729 0)
(-0.0108565 0.00486002 0)
(-0.0121027 0.00504603 0)
(-0.0133878 0.00520506 0)
(-0.0147057 0.00533701 0)
(-0.01605 0.00544199 0)
(-0.0174146 0.00552024 0)
(-0.0187931 0.00557214 0)
(-0.0201795 0.00559815 0)
(-0.0215676 0.00559884 0)
(-0.0229516 0.00557483 0)
(-0.0243255 0.00552684 0)
(-0.0256838 0.0054556 0)
(-0.0270209 0.00536191 0)
(-0.0283315 0.00524659 0)
(-0.0296105 0.0051105 0)
(-0.030853 0.00495455 0)
(-0.0320543 0.00477962 0)
(-0.0332098 0.00458666 0)
(-0.0343153 0.00437662 0)
(-0.0353667 0.00415044 0)
(-0.0363602 0.00390912 0)
(-0.0372923 0.00365364 0)
(-0.0381596 0.003385 0)
(-0.038959 0.00310421 0)
(-0.0396877 0.0028123 0)
(-0.040343 0.00251031 0)
(-0.0409227 0.00219928 0)
(-0.0414246 0.00188027 0)
(-0.0418471 0.00155437 0)
(-0.0421884 0.00122265 0)
(-0.0424474 0.000886219 0)
(-0.042623 0.000546185 0)
(-0.0427145 0.000203676 0)
(-0.0427215 -0.000140165 0)
(-0.0426437 -0.000484184 0)
(-0.0424814 -0.000827214 0)
(-0.0422349 -0.00116808 0)
(-0.0419049 -0.00150558 0)
(-0.0414925 -0.00183851 0)
(-0.0409988 -0.00216567 0)
(-0.0404254 -0.00248582 0)
(-0.0397743 -0.00279774 0)
(-0.0390476 -0.0031002 0)
(-0.0382479 -0.00339196 0)
(-0.0373777 -0.00367178 0)
(-0.0364403 -0.00393844 0)
(-0.035439 -0.00419071 0)
(-0.0343775 -0.00442738 0)
(-0.0332596 -0.00464726 0)
(-0.0320896 -0.00484918 0)
(-0.030872 -0.00503199 0)
(-0.0296115 -0.00519458 0)
(-0.0283131 -0.00533588 0)
(-0.0269822 -0.00545485 0)
(-0.0256241 -0.00555053 0)
(-0.0242445 -0.00562199 0)
(-0.0228495 -0.0056684 0)
(-0.0214449 -0.00568898 0)
(-0.020037 -0.00568307 0)
(-0.0186322 -0.00565007 0)
(-0.0172369 -0.00558952 0)
(-0.0158577 -0.00550108 0)
(-0.0145011 -0.00538456 0)
(-0.0131735 -0.00523991 0)
(-0.0118816 -0.00506729 0)
(-0.0106317 -0.00486706 0)
(-0.00943012 -0.0046398 0)
(-0.00828279 -0.00438641 0)
(-0.0071955 -0.00410809 0)
(-0.00617364 -0.00380645 0)
(-0.00522216 -0.00348352 0)
(-0.00434544 -0.0031419 0)
(-0.00354726 -0.00278486 0)
(-0.00283061 -0.00241642 0)
(-0.0021976 -0.00204161 0)
(-0.00164932 -0.00166658 0)
(-0.00118569 -0.00129894 0)
(-0.000805361 -0.000948004 0)
(-0.00050554 -0.000625215 0)
(-0.000281806 -0.000344559 0)
(-0.000127852 -0.000123009 0)
(-3.68727e-05 1.87919e-05 0)
(-3.17066e-06 5.36659e-05 0)
(-7.26784e-06 -1.8994e-05 0)
(-6.22269e-05 9.55758e-05 0)
(-0.000197046 0.000323627 0)
(-0.000411822 0.000635776 0)
(-0.000710032 0.00100947 0)
(-0.00109605 0.00142595 0)
(-0.00157259 0.00186967 0)
(-0.00214087 0.00232784 0)
(-0.00280091 0.00279001 0)
(-0.00355163 0.00324768 0)
(-0.00439089 0.00369396 0)
(-0.00531565 0.00412331 0)
(-0.00632209 0.00453131 0)
(-0.00740569 0.00491447 0)
(-0.0085614 0.00527007 0)
(-0.00978366 0.00559603 0)
(-0.0110665 0.00589081 0)
(-0.0124038 0.0061533 0)
(-0.0137891 0.00638278 0)
(-0.0152157 0.00657885 0)
(-0.016677 0.00674134 0)
(-0.0181662 0.00687034 0)
(-0.0196765 0.0069661 0)
(-0.0212011 0.00702905 0)
(-0.0227335 0.00705972 0)
(-0.024267 0.0070588 0)
(-0.0257952 0.00702704 0)
(-0.0273118 0.00696528 0)
(-0.0288105 0.00687444 0)
(-0.0302854 0.00675549 0)
(-0.0317307 0.00660945 0)
(-0.0331408 0.00643738 0)
(-0.0345104 0.00624038 0)
(-0.0358343 0.00601959 0)
(-0.0371075 0.00577617 0)
(-0.0383255 0.00551129 0)
(-0.0394837 0.00522616 0)
(-0.040578 0.00492201 0)
(-0.0416046 0.00460006 0)
(-0.0425596 0.00426159 0)
(-0.0434398 0.00390786 0)
(-0.0442421 0.00354015 0)
(-0.0449636 0.00315979 0)
(-0.0456017 0.00276807 0)
(-0.0461542 0.00236634 0)
(-0.0466192 0.00195596 0)
(-0.0469948 0.00153828 0)
(-0.0472798 0.00111469 0)
(-0.047473 0.000686594 0)
(-0.0475737 0.000255409 0)
(-0.0475813 -0.00017743 0)
(-0.0474957 -0.000610471 0)
(-0.047317 -0.00104225 0)
(-0.0470456 -0.00147127 0)
(-0.0466824 -0.00189605 0)
(-0.0462283 -0.00231507 0)
(-0.0456849 -0.00272681 0)
(-0.0450538 -0.00312973 0)
(-0.0443372 -0.00352229 0)
(-0.0435373 -0.00390295 0)
(-0.0426569 -0.00427015 0)
(-0.041699 -0.00462236 0)
(-0.040667 -0.00495803 0)
(-0.0395646 -0.00527564 0)
(-0.0383957 -0.00557367 0)
(-0.0371646 -0.00585065 0)
(-0.035876 -0.0061051 0)
(-0.0345347 -0.0063356 0)
(-0.033146 -0.00654078 0)
(-0.0317152 -0.00671929 0)
(-0.0302481 -0.00686987 0)
(-0.0287507 -0.0069913 0)
(-0.0272291 -0.00708247 0)
(-0.0256898 -0.00714234 0)
(-0.0241393 -0.00716996 0)
(-0.0225844 -0.00716452 0)
(-0.0210321 -0.00712531 0)
(-0.0194892 -0.0070518 0)
(-0.0179628 -0.00694358 0)
(-0.01646 -0.00680045 0)
(-0.014988 -0.0066224 0)
(-0.0135537 -0.00640966 0)
(-0.012164 -0.00616273 0)
(-0.0108256 -0.00588239 0)
(-0.00954514 -0.0055698 0)
(-0.00832871 -0.00522649 0)
(-0.00718215 -0.00485446 0)
(-0.00611082 -0.00445629 0)
(-0.00511952 -0.00403517 0)
(-0.00421238 -0.00359506 0)
(-0.00339279 -0.00314083 0)
(-0.00266323 -0.00267843 0)
(-0.00202524 -0.00221511 0)
(-0.00147924 -0.00175964 0)
(-0.00102446 -0.00132268 0)
(-0.000658869 -0.000917053 0)
(-0.000378936 -0.000558247 0)
(-0.000179447 -0.000264765 0)
(-5.57653e-05 -5.87565e-05 0)
(-6.24527e-06 3.12053e-05 0)
(-1.03612e-05 1.66074e-05 0)
(-8.16362e-05 0.00020815 0)
(-0.000250543 0.0005188 0)
(-0.000512955 0.000918372 0)
(-0.000869993 0.00138327 0)
(-0.00132474 0.00189357 0)
(-0.00187879 0.00243253 0)
(-0.00253242 0.0029862 0)
(-0.00328491 0.003543 0)
(-0.0041345 0.00409341 0)
(-0.00507851 0.00462961 0)
(-0.00611342 0.00514522 0)
(-0.00723494 0.00563512 0)
(-0.00843816 0.00609517 0)
(-0.00971756 0.00652216 0)
(-0.0110672 0.00691356 0)
(-0.0124807 0.0072675 0)
(-0.0139515 0.0075826 0)
(-0.0154727 0.00785794 0)
(-0.0170371 0.00809298 0)
(-0.0186378 0.00828747 0)
(-0.0202673 0.00844147 0)
(-0.0219186 0.00855523 0)
(-0.0235843 0.00862922 0)
(-0.0252574 0.00866407 0)
(-0.0269308 0.00866055 0)
(-0.0285976 0.00861956 0)
(-0.0302509 0.0085421 0)
(-0.0318842 0.00842924 0)
(-0.033491 0.00828215 0)
(-0.0350651 0.00810205 0)
(-0.0366005 0.00789023 0)
(-0.0380913 0.007648 0)
(-0.0395322 0.00737675 0)
(-0.0409176 0.00707787 0)
(-0.0422427 0.00675281 0)
(-0.0435027 0.00640301 0)
(-0.0446929 0.00602998 0)
(-0.0458093 0.00563523 0)
(-0.0468478 0.00522028 0)
(-0.0478049 0.00478669 0)
(-0.0486772 0.00433604 0)
(-0.0494615 0.00386992 0)
(-0.0501552 0.00338994 0)
(-0.0507558 0.00289774 0)
(-0.0512612 0.00239497 0)
(-0.0516696 0.0018833 0)
(-0.0519793 0.00136443 0)
(-0.0521894 0.000840065 0)
(-0.0522988 0.000311947 0)
(-0.0523072 -0.000218169 0)
(-0.0522142 -0.000748511 0)
(-0.0520201 -0.00127728 0)
(-0.0517253 -0.00180267 0)
(-0.0513307 -0.00232285 0)
(-0.0508374 -0.00283597 0)
(-0.0502469 -0.00334016 0)
(-0.0495612 -0.00383357 0)
(-0.0487824 -0.0043143 0)
(-0.0479131 -0.00478048 0)
(-0.0469563 -0.00523023 0)
(-0.0459151 -0.00566165 0)
(-0.0447933 -0.00607287 0)
(-0.0435948 -0.00646205 0)
(-0.0423238 -0.00682735 0)
(-0.0409851 -0.00716695 0)
(-0.0395835 -0.0074791 0)
(-0.0381244 -0.00776205 0)
(-0.0366133 -0.00801414 0)
(-0.035056 -0.00823376 0)
(-0.0334588 -0.00841938 0)
(-0.031828 -0.00856954 0)
(-0.0301704 -0.0086829 0)
(-0.0284927 -0.0087582 0)
(-0.026802 -0.00879434 0)
(-0.0251056 -0.00879033 0)
(-0.0234109 -0.00874537 0)
(-0.0217254 -0.00865881 0)
(-0.0200566 -0.00853022 0)
(-0.018412 -0.00835937 0)
(-0.0167994 -0.00814631 0)
(-0.0152261 -0.00789135 0)
(-0.0136996 -0.00759513 0)
(-0.012227 -0.00725866 0)
(-0.0108154 -0.00688335 0)
(-0.00947131 -0.0064711 0)
(-0.00820102 -0.00602435 0)
(-0.0070103 -0.00554616 0)
(-0.00590437 -0.00504036 0)
(-0.00488779 -0.0045116 0)
(-0.00396436 -0.00396558 0)
(-0.00313707 -0.00340915 0)
(-0.00240796 -0.00285056 0)
(-0.00177804 -0.00229971 0)
(-0.00124727 -0.0017684 0)
(-0.00081449 -0.00127072 0)
(-0.000477195 -0.000823381 0)
(-0.000231361 -0.000446117 0)
(-7.45887e-05 -0.000162168 0)
(-9.24279e-06 -9.32412e-07 0)
(-1.3349e-05 6.20336e-05 0)
(-0.00010071 0.000347324 0)
(-0.000303572 0.000754953 0)
(-0.000613732 0.00125435 0)
(-0.00102996 0.00182122 0)
(-0.00155401 0.00243479 0)
(-0.00218629 0.00307734 0)
(-0.00292605 0.00373395 0)
(-0.0037717 0.00439208 0)
(-0.00472075 0.00504128 0)
(-0.0057699 0.00567288 0)
(-0.00691507 0.00627975 0)
(-0.00815146 0.00685606 0)
(-0.00947369 0.0073971 0)
(-0.0108758 0.00789914 0)
(-0.0123515 0.00835923 0)
(-0.0138938 0.00877515 0)
(-0.0154959 0.00914525 0)
(-0.0171503 0.00946842 0)
(-0.0188496 0.00974396 0)
(-0.0205862 0.00997154 0)
(-0.0223525 0.0101512 0)
(-0.0241407 0.0102831 0)
(-0.0259433 0.0103679 0)
(-0.0277526 0.0104062 0)
(-0.0295612 0.0103989 0)
(-0.0313616 0.0103471 0)
(-0.0331468 0.0102519 0)
(-0.0349096 0.0101145 0)
(-0.0366432 0.00993641 0)
(-0.038341 0.00971894 0)
(-0.0399966 0.00946365 0)
(-0.0416038 0.00917209 0)
(-0.0431566 0.0088459 0)
(-0.0446496 0.00848674 0)
(-0.0460772 0.00809631 0)
(-0.0474344 0.00767636 0)
(-0.0487163 0.00722865 0)
(-0.0499186 0.006755 0)
(-0.0510369 0.00625722 0)
(-0.0520674 0.00573718 0)
(-0.0530065 0.00519676 0)
(-0.0538509 0.00463785 0)
(-0.0545977 0.0040624 0)
(-0.0552442 0.00347235 0)
(-0.0557883 0.00286969 0)
(-0.0562279 0.0022564 0)
(-0.0565615 0.00163452 0)
(-0.0567877 0.0010061 0)
(-0.0569057 0.000373208 0)
(-0.0569149 -0.00026205 0)
(-0.0568152 -0.000897556 0)
(-0.0566066 -0.00153116 0)
(-0.0562896 -0.00216071 0)
(-0.0558653 -0.002784 0)
(-0.0553348 -0.00339884 0)
(-0.0546997 -0.004003 0)
(-0.0539621 -0.00459425 0)
(-0.0531242 -0.00517036 0)
(-0.052189 -0.00572906 0)
(-0.0511594 -0.00626812 0)
(-0.050039 -0.0067853 0)
(-0.0488316 -0.00727837 0)
(-0.0475414 -0.00774512 0)
(-0.046173 -0.00818337 0)
(-0.0447314 -0.00859097 0)
(-0.0432218 -0.00896583 0)
(-0.0416498 -0.00930588 0)
(-0.0400215 -0.00960916 0)
(-0.0383429 -0.00987376 0)
(-0.0366207 -0.0100979 0)
(-0.0348617 -0.0102798 0)
(-0.033073 -0.0104179 0)