/*--------------------------------*- C++ -*----------------------------------*\
  =========                 |
  \\      /  F ield         | OpenFOAM: The Open Source CFD Toolbox
   \\    /   O peration     | Website:  https://openfoam.org
    \\  /    A nd           | Version:  11
     \\/     M anipulation  |
\*---------------------------------------------------------------------------*/
FoamFile
{
    format      ascii;
    class       volScalarField;
    location    "2.1";
    object      p;
}
// * * * * * * * * * * * * * * * * * * * * * * * * * * * * * * * * * * * * * //

dimensions      [0 2 -2 0 0 0 0];

internalField   nonuniform List<scalar> 
10100
(
-1.39158e-07
0.00101541
0.00220133
0.00301215
0.00333433
0.00335403
0.00317083
0.00285244
0.00245353
0.0020148
0.0015652
0.00113418
0.000738048
0.000385742
8.99996e-05
-0.000132092
-0.000264544
-0.000295693
-0.000219614
-3.18166e-05
0.000273152
0.000700449
0.00125621
0.00194514
0.00276756
0.00372207
0.00480769
0.00602358
0.00736796
0.00883675
0.0104259
0.0121348
0.0139649
0.0159148
0.0179806
0.0201565
0.0224365
0.024815
0.0272888
0.0298537
0.0325003
0.0352162
0.037992
0.0408234
0.0437059
0.0466288
0.0495769
0.0525389
0.0555111
0.0584934
0.0614818
0.0644659
0.0674327
0.0703737
0.0732868
0.0761719
0.0790257
0.0818389
0.0845992
0.0872961
0.089923
0.0924769
0.0949545
0.0973495
0.0996527
0.101855
0.103948
0.105928
0.107792
0.109537
0.11116
0.112656
0.114021
0.115248
0.116331
0.117264
0.118042
0.118662
0.119121
0.119419
0.119553
0.119526
0.119342
0.119005
0.118527
0.117916
0.117186
0.116351
0.115427
0.114432
0.113387
0.112316
0.111248
0.110214
0.109253
0.108406
0.107723
0.107256
0.107057
0.107105
0.000979451
0.00197179
0.00292066
0.00357912
0.00392212
0.00402062
0.00393758
0.00373082
0.00344477
0.00311025
0.00275773
0.00241276
0.00209766
0.00182664
0.00160885
0.00145659
0.00138335
0.00140201
0.00152272
0.00174985
0.00208623
0.00253702
0.0031077
0.00380277
0.00462478
0.00557217
0.0066424
0.00783614
0.0091527
0.0105864
0.0121332
0.0137955
0.0155747
0.0174667
0.0194661
0.0215695
0.0237738
0.0260739
0.0284648
0.0309405
0.0334919
0.0361083
0.0387828
0.0415119
0.0442904
0.0471059
0.049944
0.0527954
0.0556584
0.0585335
0.0614157
0.0642933
0.0671533
0.0699886
0.0727987
0.0755838
0.0783399
0.0810564
0.0837204
0.0863219
0.0888558
0.0913198
0.093711
0.0960228
0.0982459
0.100371
0.102391
0.104303
0.106105
0.107793
0.109365
0.110817
0.112142
0.113336
0.114393
0.115308
0.116078
0.116701
0.117173
0.117494
0.117663
0.117681
0.117554
0.117286
0.116889
0.116371
0.115747
0.115029
0.114233
0.113378
0.112481
0.111565
0.110655
0.10978
0.10897
0.108261
0.107687
0.107285
0.107101
0.107145
0.0026549
0.00335809
0.00397017
0.00442838
0.00469904
0.00479322
0.00474317
0.0045863
0.0043605
0.00409206
0.00380337
0.00351573
0.0032533
0.00303413
0.00286887
0.00276608
0.00273623
0.00279093
0.00294201
0.00319598
0.00355417
0.00402121
0.00460392
0.00530449
0.0061238
0.00706388
0.00812407
0.00930155
0.0105935
0.0119969
0.0135111
0.0151379
0.0168765
0.0187211
0.0206667
0.0227118
0.0248554
0.0270925
0.0294165
0.0318198
0.0342941
0.0368314
0.0394262
0.0420744
0.0447686
0.0474964
0.0502453
0.0530083
0.0557847
0.058574
0.0613695
0.0641592
0.0669315
0.0696812
0.0724084
0.0751128
0.0777891
0.0804261
0.0830113
0.0855355
0.0879946
0.0903864
0.0927077
0.0949519
0.0971097
0.0991724
0.101134
0.102991
0.104743
0.106386
0.107918
0.109333
0.110628
0.111796
0.112834
0.113737
0.114502
0.115127
0.115611
0.115951
0.116147
0.116201
0.116116
0.115902
0.115566
0.11512
0.114575
0.113945
0.113244
0.11249
0.111699
0.110893
0.110091
0.10932
0.108607
0.107979
0.107466
0.107095
0.106908
0.106928
0.00448497
0.00488908
0.00523284
0.00549821
0.00565527
0.00569046
0.00561884
0.00546553
0.00525606
0.00501704
0.00476543
0.00451697
0.00428874
0.00409986
0.00396567
0.003894
0.00389442
0.00397719
0.00414897
0.0044176
0.00479059
0.00527112
0.00586119
0.00656371
0.00738182
0.00831681
0.00936667
0.0105287
0.0118006
0.0131803
0.0146676
0.0162647
0.0179692
0.019774
0.0216748
0.0236725
0.0257668
0.0279514
0.0302177
0.0325588
0.0349691
0.0374422
0.0399717
0.0425514
0.0451734
0.047827
0.0505019
0.0531924
0.0558969
0.0586136
0.0613353
0.0640507
0.06675
0.0694287
0.0720867
0.0747231
0.0773316
0.0799012
0.0824198
0.0848794
0.087276
0.0896073
0.0918694
0.094056
0.0961587
0.0981696
0.100083
0.101896
0.103606
0.105211
0.106709
0.108095
0.109365
0.110513
0.111536
0.112429
0.11319
0.113818
0.11431
0.114665
0.114882
0.114964
0.114914
0.11474
0.114452
0.114061
0.113577
0.113013
0.112383
0.111702
0.110987
0.110254
0.109524
0.108818
0.10816
0.107573
0.107083
0.106712
0.106491
0.106444
0.00624256
0.00644336
0.00659032
0.00669411
0.00672823
0.00668388
0.00656889
0.00639467
0.00618014
0.00594755
0.00571296
0.00549068
0.00529064
0.00512581
0.00501338
0.00496503
0.00498767
0.00509001
0.0052797
0.00556226
0.00594403
0.00643135
0.00702697
0.00773126
0.0085464
0.00947443
0.0105132
0.0116597
0.0129125
0.0142708
0.0157344
0.0173035
0.0189744
0.0207411
0.0226012
0.024557
0.0266065
0.0287417
0.0309538
0.0332384
0.0355915
0.0380067
0.0404757
0.0429916
0.0455474
0.0481344
0.050743
0.0533674
0.0560053
0.0586547
0.0613089
0.0639573
0.0665905
0.0692043
0.0717983
0.0743714
0.0769174
0.0794251
0.0818832
0.0842834
0.086622
0.0888968
0.091104
0.0932375
0.0952899
0.097254
0.099124
0.100896
0.102569
0.10414
0.105607
0.106967
0.108215
0.109346
0.110356
0.111241
0.112
0.112629
0.113128
0.113495
0.11373
0.113835
0.113814
0.113675
0.113427
0.11308
0.112646
0.112135
0.111562
0.110938
0.11028
0.109603
0.108923
0.10826
0.107634
0.107065
0.106573
0.106179
0.1059
0.105747
0.00800936
0.00801664
0.00799518
0.0079545
0.00786926
0.00773421
0.00755772
0.00734737
0.00711486
0.00687507
0.00664257
0.00642842
0.00624472
0.00610118
0.00600579
0.00597129
0.00600972
0.00612724
0.00632877
0.00662144
0.00701161
0.00750361
0.00810017
0.00880325
0.00961521
0.0105362
0.0115628
0.0126929
0.013928
0.0152676
0.0167094
0.0182513
0.0198901
0.021622
0.023446
0.0253633
0.0273706
0.0294598
0.0316233
0.0338577
0.0361594
0.038521
0.0409341
0.0433921
0.045889
0.0484165
0.0509651
0.0535289
0.056106
0.0586948
0.0612889
0.0638774
0.0664509
0.0690052
0.0715404
0.0740556
0.076545
0.0789974
0.0814008
0.083747
0.0860323
0.0882551
0.0904125
0.0924989
0.094507
0.0964293
0.0982603
0.0999963
0.101635
0.103176
0.104617
0.105955
0.107185
0.108302
0.109301
0.11018
0.110935
0.111565
0.112069
0.112445
0.112694
0.112818
0.112822
0.112711
0.112496
0.112186
0.11179
0.11132
0.110789
0.110208
0.10959
0.10895
0.108303
0.107664
0.107051
0.106479
0.105967
0.105531
0.105172
0.10489
0.00979286
0.00960221
0.00942242
0.00924709
0.00904832
0.00881836
0.00856535
0.00830622
0.00804529
0.00778658
0.00754457
0.00732898
0.00714845
0.00701271
0.00692912
0.00690541
0.00695165
0.00707627
0.00728573
0.00758598
0.00798123
0.00847478
0.00907053
0.00977146
0.0105788
0.0114913
0.0125056
0.0136215
0.0148411
0.016163
0.0175833
0.0190997
0.0207103
0.0224117
0.0242029
0.0260844
0.0280533
0.0301013
0.0322216
0.0344109
0.0366658
0.0389791
0.0413424
0.0437493
0.0461936
0.0486672
0.0511614
0.053671
0.0561946
0.0587303
0.0612712
0.0638063
0.0663259
0.0688267
0.0713093
0.0737735
0.0762129
0.0786159
0.0809705
0.0832683
0.085506
0.0876828
0.0897967
0.0918425
0.0938128
0.0956993
0.097496
0.0991997
0.100809
0.102324
0.103744
0.105064
0.10628
0.107386
0.108377
0.10925
0.110001
0.110631
0.111138
0.111521
0.111781
0.111921
0.111944
0.111857
0.111667
0.111384
0.111017
0.110576
0.110074
0.109522
0.10893
0.108312
0.10768
0.107049
0.106431
0.105841
0.105292
0.104798
0.104345
0.103921
0.0115807
0.0111923
0.010854
0.0105491
0.0102373
0.00991382
0.00958534
0.00926394
0.00895987
0.00867508
0.00841423
0.00818713
0.00800178
0.00786392
0.00778104
0.00776103
0.00781137
0.00793935
0.00815172
0.00845411
0.0088502
0.00934354
0.00993795
0.0106352
0.0114359
0.0123389
0.0133422
0.0144459
0.0156514
0.0169564
0.0183565
0.0198499
0.0214353
0.0231096
0.0248714
0.0267211
0.0286557
0.030667
0.0327482
0.0348967
0.0371098
0.0393806
0.0417003
0.0440616
0.0464582
0.048883
0.0513287
0.053791
0.0562684
0.058758
0.0612517
0.0637384
0.0662097
0.0686631
0.0711
0.0735198
0.0759155
0.0782748
0.0805856
0.0828403
0.0850363
0.0871737
0.089251
0.091263
0.0932014
0.0950575
0.0968248
0.0985009
0.100086
0.10158
0.102982
0.104289
0.105495
0.106593
0.107577
0.108444
0.109192
0.10982
0.110328
0.110717
0.110986
0.111138
0.111177
0.111107
0.110936
0.110672
0.110324
0.109903
0.10942
0.108884
0.108306
0.107696
0.107067
0.106429
0.105793
0.10517
0.104571
0.104008
0.103453
0.102878
0.0133579
0.0127736
0.0122787
0.0118426
0.0114175
0.0110006
0.0105978
0.0102126
0.00985483
0.00953197
0.00924567
0.00900054
0.00880096
0.00865192
0.00856177
0.00853847
0.00858771
0.00871483
0.00892558
0.0092257
0.00961932
0.0101101
0.0107012
0.0113933
0.0121864
0.0130802
0.0140733
0.0151658
0.0163584
0.0176481
0.0190298
0.0205024
0.0220655
0.0237163
0.0254527
0.0272745
0.0291782
0.0311562
0.0332024
0.0353152
0.0374923
0.0397262
0.0420071
0.0443271
0.0466807
0.0490623
0.0514663
0.0538884
0.056326
0.0587748
0.0612262
0.0636699
0.0660986
0.068511
0.0709087
0.0732902
0.0756476
0.0779682
0.0802402
0.082457
0.0846175
0.0867224
0.0887701
0.0907546
0.0926668
0.0944972
0.0962399
0.0978931
0.0994582
0.100936
0.102326
0.103624
0.104822
0.105914
0.106893
0.107755
0.108499
0.109124
0.109633
0.110026
0.110303
0.110465
0.110514
0.110457
0.110298
0.110045
0.109709
0.109299
0.108825
0.108296
0.107722
0.107111
0.106473
0.105817
0.105152
0.104484
0.103825
0.103185
0.102521
0.101794
0.0151041
0.0143253
0.0136793
0.0131162
0.0125773
0.012065
0.0115828
0.011134
0.010722
0.0103533
0.0100325
0.00976117
0.00953974
0.00937358
0.00927098
0.00923814
0.0092797
0.00940049
0.00960571
0.00990058
0.0102891
0.0107747
0.0113601
0.0120455
0.0128308
0.013716
0.0147
0.0157823
0.0169628
0.018238
0.0196033
0.0210581
0.0226027
0.0242337
0.0259482
0.0277448
0.0296207
0.0315693
0.0335856
0.0356683
0.0378146
0.040016
0.0422618
0.0445447
0.0468607
0.0492059
0.051575
0.0539632
0.0563662
0.0587786
0.0611925
0.0635988
0.0659914
0.0683693
0.0707337
0.0730822
0.075406
0.0776926
0.079931
0.0821158
0.0842472
0.0863261
0.0883505
0.0903134
0.0922044
0.0940139
0.0957365
0.0973719
0.0989221
0.100389
0.10177
0.103062
0.104255
0.105342
0.106316
0.107174
0.107914
0.108539
0.109048
0.109444
0.109727
0.109895
0.109952
0.109902
0.10975
0.109504
0.109173
0.108766
0.108294
0.107764
0.107185
0.106563
0.105907
0.105223
0.104519
0.103799
0.103072
0.102349
0.101571
0.100693
0.0167975
0.0158294
0.0150361
0.0143523
0.0137025
0.0130941
0.0125307
0.0120141
0.0115467
0.0111305
0.0107685
0.0104618
0.0102125
0.0100258
0.00990652
0.00985846
0.00988646
0.00999602
0.0101921
0.0104791
0.0108601
0.0113381
0.0119158
0.0125933
0.013371
0.0142489
0.0152247
0.016297
0.0174657
0.0187278
0.0200793
0.0215202
0.02305
0.0246642
0.0263589
0.0281331
0.0299849
0.0319091
0.033901
0.0359586
0.0380782
0.0402505
0.0424652
0.044716
0.0470007
0.0493162
0.051657
0.0540163
0.0563889
0.0587694
0.061151
0.0635261
0.0658893
0.0682392
0.0705758
0.0728959
0.0751906
0.077448
0.0796582
0.0818174
0.0839261
0.0859853
0.0879919
0.0899379
0.0918122
0.0936053
0.0953128
0.0969352
0.0984755
0.099935
0.101312
0.1026
0.10379
0.104873
0.105843
0.106697
0.107435
0.108059
0.10857
0.108969
0.109255
0.109427
0.109488
0.109441
0.109291
0.109047
0.108716
0.108307
0.10783
0.107292
0.106701
0.106061
0.105378
0.104658
0.103906
0.103126
0.102326
0.101515
0.100623
0.0995935
0.0184273
0.0172723
0.0163318
0.0155319
0.0147781
0.0140743
0.0134296
0.0128432
0.0123175
0.0118512
0.0114435
0.0110971
0.0108166
0.0106051
0.0104638
0.0103956
0.0104064
0.010502
0.0106861
0.0109621
0.0113326
0.011801
0.0123701
0.0130403
0.013811
0.0146817
0.0156491
0.0167115
0.0178696
0.0191212
0.0204626
0.0218928
0.0234102
0.0250095
0.0266867
0.0284419
0.0302746
0.0321798
0.0341521
0.0361885
0.0382845
0.0404314
0.0426199
0.0448449
0.0471049
0.049397
0.0517144
0.0540492
0.0563958
0.0587494
0.0611047
0.0634552
0.0657954
0.0681233
0.0704373
0.0727337
0.075004
0.0772374
0.0794255
0.0815653
0.0836576
0.0857026
0.0876961
0.0896291
0.0914905
0.0932715
0.0949685
0.0965828
0.0981174
0.0995735
0.100948
0.102234
0.103421
0.104502
0.105469
0.10632
0.107056
0.10768
0.108193
0.108595
0.108883
0.109057
0.109118
0.10907
0.108919
0.108673
0.108337
0.107922
0.107435
0.106884
0.106273
0.105608
0.104892
0.104129
0.103323
0.102477
0.101599
0.100696
0.0996902
0.0985126
0.0199773
0.018644
0.0175592
0.0166417
0.0157867
0.0149924
0.0142674
0.0136112
0.0130234
0.0125025
0.0120476
0.0116616
0.0113475
0.0111057
0.010937
0.0108461
0.0108385
0.0109182
0.0110873
0.0113488
0.0117067
0.0121651
0.0127266
0.01339
0.0141537
0.0150163
0.0159749
0.0170287
0.0181789
0.0194233
0.0207574
0.0221788
0.0236853
0.0252717
0.0269347
0.0286756
0.0304943
0.0323851
0.0343414
0.0363596
0.0384356
0.0405618
0.04273
0.0449357
0.0471773
0.0494511
0.0517494
0.054064
0.0563894
0.0587221
0.0610578
0.0633903
0.0657138
0.0680249
0.0703213
0.0725989
0.0748501
0.0770654
0.0792377
0.0813643
0.0834457
0.0854811
0.0874651
0.0893884
0.0912404
0.0930131
0.0947039
0.0963143
0.097847
0.0993021
0.100676
0.101961
0.103146
0.104224
0.105188
0.106038
0.106774
0.107398
0.107913
0.108316
0.108605
0.108779
0.108839
0.108787
0.108632
0.108378
0.108035
0.107609
0.107108
0.106538
0.105903
0.105207
0.104452
0.103641
0.102775
0.101858
0.100898
0.0999037
0.098784
0.0974628
0.0214275
0.0199298
0.0187082
0.0176741
0.0167165
0.0158351
0.0150317
0.0143053
0.0136534
0.013076
0.0125739
0.0121477
0.0117965
0.0115203
0.0113225
0.0112083
0.0111808
0.0112416
0.0113925
0.0116383
0.0119841
0.0124337
0.0129879
0.0136441
0.0143998
0.0152541
0.0162052
0.0172529
0.0183984
0.0196382
0.0209662
0.0223799
0.0238772
0.0254539
0.0271073
0.0288388
0.0306476
0.0325272
0.0344704
0.0364738
0.0385343
0.0406456
0.0427997
0.0449921
0.0472204
0.0494803
0.0517638
0.054063
0.056373
0.0586913
0.0610141
0.0633351
0.0656476
0.0679471
0.0702308
0.0724949
0.0747329
0.0769365
0.0790993
0.0812185
0.0832937
0.085323
0.0873006
0.0892172
0.0910628
0.0928309
0.0945192
0.0961293
0.0976628
0.0991189
0.100493
0.101777
0.10296
0.104035
0.104997
0.105845
0.106581
0.107207
0.107723
0.108126
0.108415
0.108587
0.108643
0.108587
0.108423
0.10816
0.107805
0.107364
0.106846
0.106253
0.105589
0.104857
0.104058
0.103194
0.102265
0.101274
0.100231
0.0991451
0.0979148
0.0964554
0.0227618
0.0211126
0.0197643
0.0186192
0.0175604
0.0165903
0.0157097
0.0149135
0.0141985
0.0135654
0.013015
0.0125455
0.0121545
0.0118437
0.0116176
0.0114791
0.0114286
0.0114672
0.0115992
0.0118309
0.0121666
0.0126079
0.013154
0.0138017
0.0145492
0.0153968
0.0163433
0.0173879
0.0185307
0.0197669
0.0210898
0.0224973
0.0239886
0.0255597
0.0272079
0.0289339
0.0307359
0.032607
0.0345403
0.0365332
0.0385837
0.0406859
0.0428318
0.0450158
0.0472352
0.0494854
0.0517589
0.0540483
0.0563494
0.0586599
0.0609762
0.0632915
0.0655983
0.0678914
0.0701678
0.0724243
0.0746553
0.0768538
0.0790133
0.0811305
0.0832036
0.08523
0.0872039
0.0891165
0.0909592
0.092726
0.0944152
0.0960278
0.0975644
0.0990231
0.100398
0.101681
0.102863
0.103935
0.104894
0.105741
0.106477
0.107103
0.10762
0.108023
0.10831
0.108479
0.108529
0.108465
0.108292
0.108016
0.107645
0.107187
0.106648
0.106029
0.105334
0.104561
0.103714
0.102794
0.1018
0.100734
0.0996078
0.0984311
0.0970939
0.0955023
0.0239714
0.0221801
0.0207128
0.0194627
0.0183079
0.0172494
0.0162913
0.015426
0.0146499
0.0139619
0.0133612
0.0128462
0.0124157
0.0120718
0.0118171
0.0116514
0.0115753
0.0115917
0.0117069
0.0119266
0.012253
0.0126852
0.0132219
0.013861
0.0146022
0.0154462
0.0163909
0.0174343
0.0185751
0.0198081
0.0211276
0.022532
0.0240211
0.0255908
0.0272374
0.0289605
0.0307582
0.0326238
0.0345513
0.0365388
0.0385849
0.0406835
0.0428259
0.0450058
0.0472204
0.0494656
0.0517346
0.0540205
0.0563192
0.0586284
0.0609441
0.0632591
0.0655654
0.0678574
0.0701322
0.0723873
0.0746181
0.0768179
0.0789801
0.0811002
0.0831753
0.0852022
0.0871754
0.0890875
0.0909307
0.0926997
0.0943929
0.0960105
0.0975522
0.0990148
0.100392
0.101675
0.102854
0.103924
0.10488
0.105725
0.10646
0.107087
0.107604
0.108008
0.108292
0.108456
0.108498
0.108423
0.108238
0.107948
0.107559
0.107081
0.106517
0.10587
0.10514
0.104325
0.103428
0.102448
0.101388
0.100247
0.0990389
0.097774
0.0963344
0.094617
0.0250515
0.0231243
0.0215434
0.020194
0.018947
0.0178041
0.0167683
0.0158344
0.014998
0.0142553
0.0136041
0.013044
0.0125752
0.0121982
0.0119126
0.0117178
0.0116163
0.0116136
0.0117147
0.0119232
0.0122389
0.0126606
0.0131882
0.013821
0.0145591
0.0154021
0.0163464
0.0173889
0.018528
0.0197595
0.0210784
0.0224836
0.0239744
0.0255458
0.027193
0.0289155
0.0307116
0.0325756
0.0345021
0.0364897
0.0385365
0.040636
0.0427787
0.0449585
0.0471727
0.0494183
0.051689
0.0539779
0.0562806
0.0585944
0.060915
0.0632348
0.0655457
0.0678421
0.0701215
0.0723819
0.0746192
0.0768267
0.078997
0.0811247
0.083206
0.0852373
0.0872139
0.0891294
0.0909771
0.0927521
0.0944525
0.0960778
0.0976265
0.0990945
0.100475
0.101758
0.102936
0.104004
0.104958
0.105802
0.106536
0.107163
0.10768
0.108082
0.108364
0.10852
0.108553
0.108465
0.108264
0.107957
0.107551
0.10705
0.106461
0.105783
0.105015
0.104157
0.103208
0.102169
0.101041
0.0998265
0.0985379
0.0971877
0.0956498
0.0938125
0.0259965
0.0239403
0.0222503
0.0208057
0.0194686
0.0182441
0.0171327
0.0161312
0.0152344
0.0144372
0.0137366
0.0131328
0.012626
0.0122144
0.0118961
0.0116728
0.0115491
0.0115301
0.0116181
0.0118141
0.0121178
0.0125295
0.0130503
0.01368
0.0144174
0.0152605
0.0162045
0.0172462
0.0183852
0.0196179
0.0209399
0.0223495
0.0238449
0.0254199
0.0270697
0.0287941
0.0305922
0.0324592
0.0343899
0.0363823
0.0384341
0.040538
0.0426848
0.0448687
0.0470879
0.0493399
0.0516186
0.0539167
0.0562293
0.0585531
0.0608836
0.0632134
0.0655345
0.0678412
0.0701315
0.0724038
0.074654
0.0768749
0.0790586
0.0811985
0.0832904
0.0853308
0.0873155
0.089239
0.0910955
0.0928805
0.0945917
0.0962277
0.0977858
0.0992611
0.100646
0.101932
0.10311
0.104177
0.105131
0.105974
0.10671
0.107337
0.107853
0.108252
0.108528
0.108676
0.108697
0.108595
0.108378
0.108053
0.107626
0.107104
0.106487
0.105777
0.104971
0.104067
0.103066
0.101967
0.100773
0.0994852
0.0981181
0.0966852
0.0950526
0.0931004
0.0267999
0.0246223
0.0228288
0.0212906
0.0198657
0.0185608
0.0173771
0.0163096
0.0153524
0.0145007
0.013752
0.0131056
0.0125599
0.0121121
0.0117623
0.0115135
0.0113705
0.0113358
0.0114093
0.0115916
0.0118839
0.0122879
0.0128052
0.013434
0.0141713
0.0150141
0.0159577
0.0170002
0.0181419
0.0193796
0.0207081
0.0221246
0.0236263
0.0252067
0.0268616
0.0285915
0.0303963
0.0322713
0.0342107
0.036212
0.0382721
0.0403839
0.0425387
0.0447318
0.0469618
0.0492264
0.0515191
0.0538322
0.0561598
0.0584987
0.0608442
0.0631895
0.0655264
0.0678496
0.070157
0.0724471
0.0747158
0.0769555
0.0791573
0.0813143
0.0834217
0.0854763
0.0874744
0.0894111
0.0912812
0.0930805
0.0948062
0.096456
0.0980264
0.0995117
0.100904
0.102195
0.103376
0.104444
0.1054
0.106246
0.106983
0.107611
0.108126
0.108521
0.108789
0.108928
0.108936
0.10882
0.108586
0.108242
0.107795
0.107249
0.106605
0.105862
0.105016
0.104067
0.103013
0.101855
0.100594
0.0992351
0.0977913
0.0962776
0.0945526
0.0924891
0.0274569
0.0251638
0.0232713
0.0216427
0.0201327
0.0187492
0.0174956
0.0163632
0.015346
0.0144405
0.0136444
0.0129551
0.0123696
0.0118865
0.0115077
0.0112364
0.0110747
0.0110227
0.0110803
0.0112494
0.0115327
0.0119323
0.0124479
0.013076
0.0138127
0.014655
0.0155998
0.0166461
0.0177943
0.0190403
0.0203777
0.0218028
0.0233124
0.0249007
0.0265644
0.0283046
0.0301212
0.0320087
0.0339609
0.0359743
0.038046
0.0401696
0.0423375
0.0445454
0.0467924
0.0490757
0.0513882
0.0537213
0.056069
0.0584277
0.0607936
0.0631599
0.0655186
0.0678643
0.0701946
0.0725078
0.0747997
0.0770625
0.079287
0.0814656
0.0835937
0.0856679
0.087685
0.0896405
0.0915295
0.0933478
0.095092
0.0967591
0.0983448
0.0998429
0.101246
0.102545
0.103733
0.104808
0.105768
0.106618
0.107359
0.107989
0.108503
0.108893
0.109154
0.109281
0.109277
0.109146
0.108896
0.108534
0.108067
0.107497
0.106825
0.106047
0.105162
0.104167
0.10306
0.101842
0.100516
0.0990852
0.0975657
0.0959721
0.0941558
0.0919833
0.0279654
0.0255605
0.0235719
0.0218585
0.0202665
0.0188067
0.017483
0.0162861
0.0152101
0.0142515
0.0134076
0.0126749
0.0120501
0.0115336
0.011128
0.0108346
0.0106529
0.0105823
0.0106243
0.0107826
0.0110599
0.0114568
0.0119709
0.0125977
0.0133337
0.0141772
0.0151263
0.0161803
0.0173383
0.018595
0.0199431
0.0213787
0.0228988
0.0244988
0.0261762
0.027932
0.0297652
0.0316695
0.0336379
0.0356669
0.0377543
0.0398948
0.0420815
0.0443105
0.0465807
0.0488884
0.0512257
0.0535837
0.0559563
0.0583404
0.0607324
0.0631256
0.0655123
0.0678862
0.0702445
0.0725854
0.0749047
0.0771946
0.079446
0.081651
0.0838047
0.0859039
0.0879456
0.0899256
0.0918389
0.0936809
0.0954479
0.0971358
0.0987401
0.100254
0.101672
0.102984
0.104184
0.105268
0.106238
0.107096
0.107841
0.108474
0.108987
0.109373
0.109626
0.109743
0.109727
0.109582
0.109317
0.108937
0.108449
0.107855
0.107154
0.106343
0.105417
0.104374
0.103213
0.101935
0.100542
0.0990402
0.0974446
0.095771
0.0938634
0.0915834
0.0283252
0.0258116
0.0237299
0.0219357
0.0202648
0.0187298
0.0173353
0.0160743
0.0149405
0.0139292
0.0130367
0.0122599
0.0115972
0.0110491
0.010617
0.0102999
0.0100965
0.0100077
0.0100364
0.0101867
0.0104598
0.010854
0.0113659
0.0119915
0.0127286
0.0135769
0.0145345
0.0155997
0.0167701
0.0180394
0.0194
0.0208487
0.0223834
0.0240005
0.0256973
0.027474
0.0293283
0.0312531
0.0332413
0.0352903
0.0373987
0.0395621
0.0417741
0.0440308
0.04633
0.0486674
0.0510346
0.0534225
0.0558254
0.0582407
0.0606649
0.0630916
0.0655121
0.0679197
0.0703109
0.0726837
0.0750343
0.0773552
0.0796376
0.0818736
0.084058
0.0861876
0.0882594
0.0902691
0.0922118
0.0940822
0.0958759
0.0975886
0.0992151
0.10075
0.102185
0.103514
0.10473
0.10583
0.106813
0.107681
0.108434
0.10907
0.109583
0.109967
0.110214
0.110322
0.110294
0.110136
0.109856
0.109459
0.10895
0.10833
0.107599
0.106752
0.105784
0.104692
0.103475
0.102135
0.100675
0.0990999
0.0974271
0.0956726
0.0936736
0.0912873
0.028538
0.025919
0.0237473
0.0218725
0.0201242
0.0185148
0.0170502
0.0157254
0.0145335
0.0134686
0.0125268
0.0117063
0.0110066
0.0104272
0.00996723
0.00962467
0.00939955
0.00929435
0.00931251
0.0094565
0.00972545
0.0101164
0.0106263
0.0112527
0.0119947
0.012852
0.0138219
0.0149009
0.0160856
0.0173692
0.0187452
0.0202113
0.0217661
0.0234061
0.025128
0.0269305
0.02881
0.0307593
0.0327721
0.0348466
0.0369825
0.0391756
0.0414199
0.0437105
0.0460445
0.0484168
0.050819
0.0532422
0.0556813
0.0581342
0.0605974
0.0630638
0.065524
0.0679705
0.0703993
0.0728083
0.0751943
0.0775504
0.0798683
0.08214
0.0843601
0.0865253
0.0886325
0.0906773
0.0926542
0.0945573
0.0963817
0.0981227
0.0997756
0.101335
0.102793
0.104144
0.10538
0.106498
0.107498
0.108379
0.109142
0.109783
0.110298
0.110679
0.110922
0.111023
0.110985
0.110815
0.110519
0.110105
0.109574
0.108928
0.108165
0.10728
0.106266
0.105122
0.103847
0.102443
0.100913
0.0992628
0.097511
0.0956746
0.0935843
0.0910929
0.0286057
0.0258842
0.0236238
0.0216681
0.0198425
0.0181592
0.0166258
0.0152365
0.0139845
0.0128645
0.0118731
0.0110093
0.0102726
0.00966063
0.00917104
0.00880275
0.00855752
0.00843849
0.00844777
0.00858562
0.00884989
0.00923784
0.00974787
0.0103788
0.0111301
0.0120004
0.0129852
0.01408
0.0152809
0.0165817
0.0179773
0.0194663
0.0210472
0.0227159
0.0244678
0.0263002
0.028209
0.0301875
0.0322305
0.0343373
0.0365076
0.0387375
0.0410205
0.043351
0.0457252
0.0481377
0.0505803
0.0530449
0.0555267
0.058024
0.0605328
0.0630453
0.0655512
0.0680419
0.0705134
0.0729636
0.0753899
0.0777861
0.0801442
0.0824566
0.0847176
0.0869237
0.0890715
0.0911564
0.0931722
0.0951124
0.0969715
0.0987449
0.100428
0.102016
0.103502
0.104878
0.106138
0.107278
0.108297
0.109194
0.109968
0.110617
0.111135
0.111517
0.111756
0.111852
0.111805
0.111624
0.111314
0.110881
0.110327
0.109654
0.108856
0.107928
0.106866
0.105667
0.10433
0.102859
0.101257
0.0995293
0.0976971
0.0957781
0.0935969
0.0910014
0.0285293
0.0257066
0.0233576
0.0213222
0.0194186
0.0176614
0.0160585
0.0146028
0.0132886
0.0121123
0.0110713
0.0101645
0.00938953
0.00874319
0.00822349
0.00783088
0.0075679
0.00743669
0.00743726
0.0075684
0.00782818
0.00821521
0.0087291
0.00936898
0.0101334
0.0110192
0.0120206
0.013133
0.0143526
0.0156748
0.0170954
0.018613
0.0202256
0.0219276
0.0237134
0.0255796
0.0275222
0.0295354
0.0316151
0.0337611
0.0359728
0.0382461
0.0405737
0.0429496
0.0453692
0.0478274
0.0503164
0.0528287
0.0553601
0.0579085
0.0604695
0.0630342
0.0655914
0.0681321
0.0706518
0.073149
0.0756215
0.0780637
0.0804679
0.0828264
0.0851337
0.087386
0.0895795
0.0917092
0.0937685
0.0957503
0.0976487
0.0994589
0.101177
0.102797
0.104315
0.105721
0.107009
0.108173
0.109213
0.110128
0.110917
0.111576
0.1121
0.112484
0.112722
0.112813
0.112759
0.112567
0.112243
0.111791
0.111213
0.110509
0.109674
0.108702
0.107588
0.10633
0.104929
0.103387
0.10171
0.0999041
0.0979906
0.0959891
0.0937174
0.0910177
0.0283094
0.0253842
0.0229471
0.0208329
0.0188508
0.0170177
0.0153424
0.0138184
0.0124413
0.0112085
0.0101181
0.00916755
0.00835293
0.00767137
0.00712254
0.00670774
0.00642865
0.00628548
0.00627673
0.0064012
0.00665822
0.0070477
0.00756946
0.00822175
0.0090015
0.00990408
0.0109236
0.0120558
0.013298
0.0146464
0.0160974
0.0176489
0.0192974
0.0210362
0.0228594
0.0247634
0.0267448
0.0287988
0.0309221
0.0331141
0.0353737
0.037696
0.0400736
0.0425
0.0449706
0.0474802
0.0500217
0.0525883
0.0551758
0.0577817
0.0604008
0.0630233
0.0656374
0.0682337
0.0708078
0.0733584
0.0758838
0.0783787
0.0808355
0.0832465
0.085606
0.08791
0.0901544
0.0923339
0.0944415
0.09647
0.0984129
0.100265
0.102023
0.103681
0.105234
0.106673
0.107992
0.109185
0.11025
0.111185
0.11199
0.112662
0.113195
0.113583
0.113821
0.113909
0.11385
0.113648
0.11331
0.112838
0.112236
0.111499
0.110624
0.109604
0.108436
0.107117
0.105648
0.104035
0.102281
0.100396
0.0984012
0.0963171
0.0939542
0.0911487
0.0279461
0.0249162
0.0223904
0.0201962
0.0181343
0.0162223
0.0144718
0.0128788
0.0114391
0.0101502
0.00900959
0.00801372
0.00715859
0.0064425
0.0058663
0.0054308
0.00513586
0.00498012
0.00496194
0.00508117
0.00533843
0.00573395
0.00626662
0.00693319
0.00772927
0.00864976
0.00968938
0.0108449
0.0121143
0.0134941
0.0149802
0.0165693
0.0182566
0.0200351
0.0218992
0.0238456
0.0258716
0.0279728
0.030146
0.03239
0.0347028
0.0370793
0.0395118
0.0419939
0.044521
0.047088
0.0496884
0.0523156
0.0549654
0.0576346
0.0603171
0.0630027
0.0656793
0.0683373
0.0709725
0.0735838
0.0761695
0.0787244
0.0812409
0.0837111
0.0861292
0.0884909
0.090792
0.0930268
0.0951881
0.0972685
0.0992614
0.101162
0.102964
0.104665
0.106258
0.107735
0.109089
0.110314
0.111407
0.112366
0.113191
0.113878
0.114421
0.114816
0.115057
0.115144
0.11508
0.114871
0.114518
0.114027
0.113398
0.112627
0.11171
0.110641
0.109416
0.108034
0.106498
0.104812
0.102982
0.101017
0.0989398
0.096772
0.0943158
0.0914003
0.0274384
0.0243017
0.0216841
0.0194064
0.0172624
0.0152698
0.0134436
0.0117817
0.0102795
0.00893383
0.00774141
0.00669884
0.00580336
0.00505432
0.00445222
0.00399634
0.00368491
0.00351628
0.00348983
0.00360652
0.00386731
0.0042716
0.00481676
0.00549838
0.00631163
0.00725183
0.00831476
0.00949796
0.0107994
0.0122149
0.0137396
0.015369
0.0170975
0.0189188
0.0208279
0.0228222
0.0248988
0.0270533
0.0292821
0.0315833
0.0339543
0.0363895
0.0388818
0.041425
0.0440145
0.0466452
0.0493107
0.0520046
0.0547223
0.05746
0.0602109
0.0629648
0.0657095
0.0684358
0.0711394
0.0738192
0.0764731
0.0790958
0.0816793
0.0842155
0.0866986
0.0891243
0.0914882
0.0937844
0.0960054
0.0981435
0.100192
0.102146
0.103999
0.105748
0.107386
0.108905
0.110298
0.111559
0.112685
0.113673
0.114521
0.115225
0.115782
0.116186
0.116433
0.116522
0.116456
0.116238
0.115873
0.115362
0.114704
0.113899
0.112939
0.111819
0.110537
0.109092
0.107488
0.105729
0.103823
0.101777
0.0996164
0.0973618
0.0948075
0.0917759
0.0267828
0.0235366
0.0208228
0.018458
0.0162298
0.014157
0.0122559
0.0105246
0.00895884
0.00755474
0.00630902
0.00521954
0.00428489
0.00350434
0.0028768
0.00239995
0.00207159
0.00189092
0.0018585
0.00197562
0.00224242
0.00265686
0.00321511
0.00391238
0.00474435
0.00570719
0.00679754
0.00801298
0.00935056
0.0108052
0.0123711
0.014043
0.0158158
0.017684
0.0196435
0.0216917
0.023825
0.0260387
0.0283285
0.0306918
0.0331256
0.0356246
0.0381821
0.0407923
0.0434505
0.0461514
0.0488882
0.0516544
0.0544453
0.0572563
0.0600806
0.0629078
0.0657265
0.0685276
0.071307
0.0740629
0.0767928
0.0794909
0.0821486
0.0847578
0.0873124
0.0898083
0.0922412
0.094605
0.096892
0.0990942
0.101204
0.103217
0.105127
0.10693
0.108618
0.110185
0.111623
0.112925
0.114088
0.115108
0.115983
0.11671
0.117283
0.1177
0.117955
0.118049
0.117981
0.117757
0.117379
0.116847
0.116162
0.115321
0.114318
0.113148
0.111809
0.110301
0.108629
0.106797
0.104813
0.102684
0.100436
0.0980896
0.0954307
0.0922754
0.0259748
0.0226148
0.0198019
0.017348
0.0150345
0.0128818
0.0109053
0.00910278
0.00747097
0.00600658
0.00470708
0.00357153
0.00259888
0.00178709
0.00113346
0.000635059
0.000290354
9.96795e-05
6.39993e-05
0.00018388
0.000458056
0.000883252
0.00145519
0.00216965
0.00302325
0.00401283
0.00513517
0.00638706
0.00776421
0.00926056
0.0108701
0.0125878
0.0144093
0.01633
0.0183462
0.0204545
0.0226506
0.0249289
0.0272848
0.0297152
0.032217
0.0347852
0.0374139
0.0400976
0.0428313
0.0456088
0.048423
0.0512671
0.0541363
0.0570257
0.0599286
0.0628348
0.0657335
0.0686162
0.0714785
0.074318
0.0771314
0.0799119
0.0826508
0.0853397
0.0879725
0.090545
0.0930531
0.0954907
0.0978501
0.100123
0.102301
0.104379
0.106351
0.108213
0.109958
0.111579
0.113066
0.114414
0.115619
0.116676
0.117582
0.118334
0.118929
0.119362
0.119629
0.119729
0.119662
0.119433
0.119042
0.118491
0.117778
0.116901
0.115855
0.114635
0.113239
0.111668
0.109927
0.10802
0.105955
0.10374
0.101399
0.0989541
0.0961834
0.0928965
0.0250118
0.0215328
0.0186191
0.0160753
0.0136751
0.0114401
0.00938531
0.00750881
0.0058086
0.00428266
0.00292969
0.00174894
0.00073834