/*--------------------------------*- C++ -*----------------------------------*\
  =========                 |
  \\      /  F ield         | OpenFOAM: The Open Source CFD Toolbox
   \\    /   O peration     | Website:  https://openfoam.org
    \\  /    A nd           | Version:  11
     \\/     M anipulation  |
\*---------------------------------------------------------------------------*/
FoamFile
{
    format      ascii;
    class       surfaceScalarField;
    location    "2.1";
    object      phi;
}
// * * * * * * * * * * * * * * * * * * * * * * * * * * * * * * * * * * * * * //

dimensions      [0 3 -1 0 0 0 0];

internalField   nonuniform List<scalar> 
19980
(
6.38224e-07
-6.37734e-07
1.29284e-06
-6.54733e-07
2.08234e-06
-7.89509e-07
2.24616e-06
-1.6372e-07
1.69657e-06
5.49595e-07
3.76957e-07
1.31955e-06
-1.72402e-06
2.10107e-06
-4.57176e-06
2.8478e-06
-8.12606e-06
3.5543e-06
-1.23367e-05
4.2107e-06
-1.71543e-05
4.81752e-06
-2.25229e-05
5.36873e-06
-2.83947e-05
5.87169e-06
-3.47236e-05
6.32902e-06
-4.14689e-05
6.74534e-06
-4.85855e-05
7.11662e-06
-5.60273e-05
7.4417e-06
-6.37507e-05
7.72338e-06
-7.17173e-05
7.96654e-06
-7.98862e-05
8.1689e-06
-8.82131e-05
8.32686e-06
-9.66552e-05
8.44204e-06
-0.000105172
8.51665e-06
-0.000113722
8.5499e-06
-0.000122262
8.53965e-06
-0.000130752
8.49021e-06
-0.00013916
8.40858e-06
-0.000147454
8.29364e-06
-0.000155598
8.14422e-06
-0.000163566
7.96791e-06
-0.000171336
7.76989e-06
-0.000178882
7.54594e-06
-0.000186175
7.29333e-06
-0.000193191
7.0162e-06
-0.000199909
6.71735e-06
-0.000206304
6.39539e-06
-0.000212355
6.05059e-06
-0.000218041
5.68586e-06
-0.000223342
5.30144e-06
-0.000228237
4.89504e-06
-0.000232705
4.46768e-06
-0.00023673
4.02518e-06
-0.000240303
3.57285e-06
-0.000243414
3.11143e-06
-0.000246054
2.63972e-06
-0.000248213
2.15958e-06
-0.00024989
1.67637e-06
-0.000251084
1.1947e-06
-0.000251799
7.15174e-07
-0.000252035
2.35819e-07
-0.000251791
-2.44096e-07
-0.000251069
-7.22324e-07
-0.000249874
-1.19511e-06
-0.000248213
-1.66068e-06
-0.000246093
-2.12019e-06
-0.000243517
-2.57612e-06
-0.000240487
-3.02975e-06
-0.000237007
-3.47979e-06
-0.000233084
-3.92313e-06
-0.000228727
-4.35673e-06
-0.000223948
-4.77902e-06
-0.000218759
-5.18974e-06
-0.00021317
-5.58858e-06
-0.000207196
-5.9739e-06
-0.000200853
-6.34287e-06
-0.000194161
-6.69261e-06
-0.00018714
-7.02099e-06
-0.000179813
-7.3267e-06
-0.000172204
-7.60894e-06
-0.000164337
-7.86705e-06
-0.000156237
-8.10026e-06
-0.000147929
-8.30761e-06
-0.000139441
-8.48766e-06
-0.000130803
-8.63816e-06
-0.000122047
-8.75606e-06
-0.000113209
-8.83779e-06
-0.00010433
-8.87962e-06
-9.54518e-05
-8.87804e-06
-8.66219e-05
-8.82986e-06
-7.78898e-05
-8.73212e-06
-6.93078e-05
-8.58202e-06
-6.09305e-05
-8.37729e-06
-5.28142e-05
-8.11627e-06
-4.50163e-05
-7.7979e-06
-3.75947e-05
-7.42162e-06
-3.06075e-05
-6.98712e-06
-2.41132e-05
-6.49434e-06
-1.81695e-05
-5.94367e-06
-1.28332e-05
-5.33632e-06
-8.15879e-06
-4.67444e-06
-4.19731e-06
-3.96148e-06
-9.94401e-07
-3.2029e-06
1.41234e-06
-2.40673e-06
2.99731e-06
-1.58498e-06
3.7564e-06
-7.59108e-07
3.72453e-06
3.18139e-08
3.00362e-06
7.20831e-07
1.81421e-06
1.18957e-06
5.85651e-07
1.22893e-06
5.85952e-07
1.82019e-06
-2.45802e-06
3.62215e-06
-2.45645e-06
4.35445e-06
-1.52203e-06
3.72708e-06
4.63735e-07
1.30522e-06
2.97129e-06
-3.07925e-06
5.70416e-06
-9.48568e-06
8.50743e-06
-1.79082e-05
1.12702e-05
-2.82784e-05
1.39245e-05
-4.05007e-05
1.64329e-05
-5.44596e-05
1.87764e-05
-7.00294e-05
2.09384e-05
-8.70722e-05
2.29145e-05
-0.000105453
2.47092e-05
-0.000125034
2.63262e-05
-0.000145677
2.77601e-05
-0.000167251
2.90161e-05
-0.000189627
3.00987e-05
-0.000212669
3.10087e-05
-0.000236248
3.17481e-05
-0.000260243
3.2322e-05
-0.000284533
3.27319e-05
-0.000308994
3.29776e-05
-0.000333509
3.30653e-05
-0.000357973
3.30038e-05
-0.000382281
3.27981e-05
-0.000406328
3.24548e-05
-0.000430018
3.19844e-05
-0.000453271
3.13963e-05
-0.000476
3.06976e-05
-0.000498125
2.98942e-05
-0.00051957
2.8991e-05
-0.000540268
2.79922e-05
-0.000560154
2.69019e-05
-0.000579161
2.57244e-05
-0.00059723
2.44647e-05
-0.000614308
2.3128e-05
-0.00063034
2.17182e-05
-0.000645276
2.02371e-05
-0.000659068
1.86875e-05
-0.000671677
1.70762e-05
-0.000683064
1.54129e-05
-0.000693198
1.37061e-05
-0.000702047
1.19614e-05
-0.000709592
1.01839e-05
-0.000715812
8.38052e-06
-0.000720696
6.55973e-06
-0.00072423
4.72879e-06
-0.000726407
2.89216e-06
-0.000727224
1.05259e-06
-0.000726681
-7.86632e-07
-0.000724783
-2.6207e-06
-0.000721533
-4.44442e-06
-0.00071694
-6.25402e-06
-0.000711012
-8.04785e-06
-0.000703763
-9.82513e-06
-0.000695209
-1.15841e-05
-0.000685368
-1.33212e-05
-0.00067426
-1.50305e-05
-0.000661912
-1.67055e-05
-0.000648351
-1.83401e-05
-0.000633611
-1.99289e-05
-0.000617733
-2.1467e-05
-0.000600759
-2.29479e-05
-0.000582738
-2.43644e-05
-0.000563722
-2.57087e-05
-0.000543768
-2.69743e-05
-0.00052294
-2.81551e-05
-0.000501303
-2.92455e-05
-0.000478931
-3.02399e-05
-0.000455898
-3.11328e-05
-0.000432287
-3.19186e-05
-0.000408184
-3.2591e-05
-0.000383679
-3.31425e-05
-0.000358872
-3.35638e-05
-0.000333865
-3.38445e-05
-0.000308771
-3.39737e-05
-0.000283708
-3.39408e-05
-0.000258802
-3.37359e-05
-0.000234184
-3.33498e-05
-0.000209992
-3.27741e-05
-0.000186368
-3.20015e-05
-0.000163458
-3.10265e-05
-0.000141411
-2.98448e-05
-0.000120379
-2.84536e-05
-0.000100514
-2.68514e-05
-8.19707e-05
-2.50381e-05
-6.48982e-05
-2.30161e-05
-4.94433e-05
-2.07914e-05
-3.57437e-05
-1.83741e-05
-2.3925e-05
-1.578e-05
-1.40953e-05
-1.30327e-05
-6.33456e-06
-1.01675e-05
-6.81448e-07
-7.238e-06
2.88805e-06
-4.32849e-06
4.49267e-06
-1.57277e-06
4.39296e-06
8.20359e-07
3.05477e-06
2.52714e-06
1.21869e-06
3.06411e-06
1.80488e-06
1.46072e-06
-3.91874e-06
3.18769e-06
-4.18363e-06
3.2294e-06
-1.56375e-06
1.01262e-06
2.68062e-06
-3.89013e-06
7.87404e-06
-1.17535e-05
1.35673e-05
-2.26977e-05
1.94516e-05
-3.67338e-05
2.53063e-05
-5.37924e-05
3.0983e-05
-7.37586e-05
3.63991e-05
-9.64618e-05
4.14797e-05
-0.000121722
4.6199e-05
-0.000149337
5.05286e-05
-0.000179087
5.44594e-05
-0.000210753
5.79927e-05
-0.000244118
6.11249e-05
-0.000278958
6.38557e-05
-0.000315053
6.61941e-05
-0.000352194
6.81494e-05
-0.000390173
6.97268e-05
-0.000428782
7.09313e-05
-0.000467824
7.17736e-05
-0.000507114
7.22681e-05
-0.000546473
7.24243e-05
-0.000585721
7.22518e-05
-0.000624692
7.17692e-05
-0.000663233
7.09956e-05
-0.000701193
6.99442e-05
-0.000738426
6.86291e-05
-0.000774797
6.70689e-05
-0.000810182
6.52795e-05
-0.000844462
6.3271e-05
-0.000877523
6.10531e-05
-0.000909259
5.86384e-05
-0.000939575
5.60398e-05
-0.000968378
5.32681e-05
-0.000995583
5.03332e-05
-0.00102111
4.7245e-05
-0.00104489
4.40131e-05
-0.00106685
4.06475e-05
-0.00108693
3.71604e-05
-0.00110508
3.35657e-05
-0.00112125
2.98776e-05
-0.0011354
2.61088e-05
-0.00114749
2.22708e-05
-0.00115748
1.83758e-05
-0.00116536
1.44365e-05
-0.0011711
1.0465e-05
-0.00117468
6.47169e-06
-0.00117609
2.46564e-06
-0.00117533
-1.5446e-06
-0.0011724
-5.55013e-06
-0.0011673
-9.54186e-06
-0.00116005
-1.35112e-05
-0.00115064
-1.74505e-05
-0.00113912
-2.13529e-05
-0.00112549
-2.52112e-05
-0.0011098
-2.90163e-05
-0.00109207
-3.27574e-05
-0.00107235
-3.64223e-05
-0.00105069
-3.99982e-05
-0.00102715
-4.34727e-05
-0.00100178
-4.6833e-05
-0.000974666
-5.0066e-05
-0.000945873
-5.31573e-05
-0.000915489
-5.60922e-05
-0.000883607
-5.88564e-05
-0.000850326
-6.1436e-05
-0.000815754
-6.38172e-05
-0.000780008
-6.5986e-05
-0.000743212
-6.79287e-05
-0.0007055
-6.96311e-05
-0.000667012
-7.10784e-05
-0.000627901
-7.22544e-05
-0.000588323
-7.31412e-05
-0.000548448
-7.37195e-05
-0.000508452
-7.39696e-05
-0.000468521
-7.38724e-05
-0.000428847
-7.34094e-05
-0.000389634
-7.25633e-05
-0.000351089
-7.13183e-05
-0.00031343
-6.96607e-05
-0.000276878
-6.75789e-05
-0.000241659
-6.50642e-05
-0.000208002
-6.21108e-05
-0.000176137
-5.87162e-05
-0.000146293
-5.48818e-05
-0.000118695
-5.06145e-05
-9.35577e-05
-4.59284e-05
-7.10837e-05
-4.0848e-05
-5.14533e-05
-3.54105e-05
-3.48158e-05
-2.96703e-05
-2.12757e-05
-2.37076e-05
-1.08735e-05
-1.76402e-05
-3.55978e-06
-1.16423e-05
8.39244e-07
-5.97164e-06
2.66692e-06
-1.00686e-06
2.49002e-06
2.70426e-06
1.16422e-06
4.38954e-06
2.9691e-06
1.06324e-06
-4.98186e-06
1.57831e-06
-4.69864e-06
-1.81256e-07
1.95961e-07
-4.95548e-06
7.45485e-06
-1.3216e-05
1.61346e-05
-2.52671e-05
2.56185e-05
-4.12533e-05
3.54378e-05
-6.12073e-05
4.52602e-05
-8.50674e-05
5.48431e-05
-0.00011269
6.40213e-05
-0.00014389
7.26798e-05
-0.000178431
8.07404e-05
-0.000216059
8.81565e-05
-0.000256503
9.49037e-05
-0.000299474
0.000100963
-0.00034468
0.000106331
-0.000391837
0.000111013
-0.000440658
0.000115015
-0.000490851
0.000118343
-0.000542138
0.000121013
-0.000594253
0.000123046
-0.000646937
0.000124458
-0.000699933
0.000125264
-0.000752997
0.000125488
-0.000805904
0.000125158
-0.000858432
0.000124297
-0.000910365
0.000122929
-0.000961501
0.000121081
-0.00101165
0.000118781
-0.00106064
0.000116056
-0.00110829
0.000112928
-0.00115444
0.000109419
-0.00119894
0.000105552
-0.00124165
0.000101349
-0.00128244
9.68299e-05
-0.00132118
9.2015e-05
-0.00135777
8.69242e-05
-0.00139211
8.15761e-05
-0.00142408
7.59886e-05
-0.00145361
7.01806e-05
-0.00148063
6.41723e-05
-0.00150505
5.79852e-05
-0.00152681
5.16397e-05
-0.00154585
4.51554e-05
-0.00156214
3.85513e-05
-0.00157561
3.1847e-05
-0.00158623
2.50621e-05
-0.00159398
1.82148e-05
-0.00159883
1.13224e-05
-0.00160077
4.40077e-06
-0.00159978
-2.5344e-06
-0.00159586
-9.46734e-06
-0.00158902
-1.63821e-05
-0.00157927
-2.32632e-05
-0.00156662
-3.00955e-05
-0.00155111
-3.68642e-05
-0.00153277
-4.35541e-05
-0.00151164
-5.0148e-05
-0.00148777
-5.66273e-05
-0.00146122
-6.29718e-05
-0.00143206
-6.91604e-05
-0.00140036
-7.51715e-05
-0.00136621
-8.09833e-05
-0.0013297
-8.65726e-05
-0.00129094
-9.19158e-05
-0.00125005
-9.69884e-05
-0.00120714
-0.000101766
-0.00116235
-0.000106224
-0.00111583
-0.000110338
-0.00106773
-0.000114083
-0.00101822
-0.000117433
-0.000967492
-0.000120363
-0.000915724
-0.000122846
-0.000863123
-0.000124855
-0.000809903
-0.000126361
-0.000756288
-0.000127334
-0.000702514
-0.000127744
-0.000648826
-0.000127561
-0.000595479
-0.000126756
-0.000542739
-0.000125304
-0.000490878
-0.000123179
-0.000440179
-0.00012036
-0.000390929
-0.000116829
-0.000343421
-0.000112573
-0.000297948
-0.000107583
-0.000254808
-0.000101857
-0.000214291
-9.53989e-05
-0.000176681
-8.82246e-05
-0.000142248
-8.03612e-05
-0.000111242
-7.18535e-05
-8.38843e-05
-6.27684e-05
-6.03522e-05
-5.32023e-05
-4.07665e-05
-4.32932e-05
-2.51695e-05
-3.32373e-05
-1.35001e-05
-2.3312e-05
-5.56199e-06
-1.39099e-05
-9.85885e-07
-5.58299e-06
8.14349e-07
9.04315e-07
7.03444e-07
4.50029e-06
3.6725e-06
3.66217e-07
-5.34808e-06
-7.77646e-07
-3.55492e-06
-5.01817e-06
4.43648e-06
-1.30372e-05
1.54739e-05
-2.52891e-05
2.83865e-05
-4.20659e-05
4.23952e-05
-6.35157e-05
5.68876e-05
-8.96653e-05
7.14098e-05
-0.000120444
8.56221e-05
-0.000155691
9.92676e-05
-0.000195194
0.000112184
-0.000238696
0.000124242
-0.000285897
0.000135358
-0.000336473
0.00014548
-0.000390092
0.000154582
-0.000446413
0.000162652
-0.000505084
0.000169684
-0.000565755
0.000175686
-0.000628089
0.000180677
-0.000691751
0.000184675
-0.000756406
0.000187702
-0.000821735
0.000189787
-0.000887436
0.000190965
-0.000953213
0.000191266
-0.00101878
0.000190724
-0.00108386
0.000189379
-0.0011482
0.000187269
-0.00121155
0.000184432
-0.00127368
0.000180906
-0.00133435
0.000176731
-0.00139337
0.000171942
-0.00145052
0.000166575
-0.00150563
0.000160664
-0.00155853
0.000154242
-0.00160904
0.000147342
-0.00165702
0.000139996
-0.00170233
0.000132235
-0.00174484
0.000124088
-0.00178444
0.000115583
-0.00182101
0.00010675
-0.00185445
9.76203e-05
-0.00188469
8.82229e-05
-0.00191164
7.85868e-05
-0.00193522
6.874e-05
-0.00195538
5.8711e-05
-0.00197206
4.85278e-05
-0.00198522
3.82183e-05
-0.00199481
2.78088e-05
-0.00200082
1.73247e-05
-0.00200321
6.79065e-06
-0.00200197
-3.76908e-06
-0.00199711
-1.433e-05
-0.00198862
-2.48673e-05
-0.00197653
-3.53566e-05
-0.00196085
-4.57734e-05
-0.00194162
-5.60932e-05
-0.00191889
-6.62906e-05
-0.0018927
-7.63388e-05
-0.00186311
-8.62089e-05
-0.00183022
-9.58706e-05
-0.00179408
-0.000105292
-0.00175481
-0.000114442
-0.00171251
-0.000123286
-0.00166729
-0.000131789
-0.00161929
-0.000139916
-0.00156865
-0.000147632
-0.00151552
-0.000154897
-0.00146007
-0.000161676
-0.00140248
-0.000167931
-0.00134294
-0.000173621
-0.00128166
-0.000178709
-0.00121887
-0.000183155
-0.0011548
-0.000186918
-0.00108969
-0.000189958
-0.00102382
-0.000192232
-0.000957462
-0.000193697
-0.000890895
-0.000194311
-0.000824423
-0.000194033
-0.000758357
-0.000192822
-0.000693018
-0.000190642
-0.000628738
-0.000187459
-0.000565855
-0.000183242
-0.000504715
-0.000177969
-0.000445668
-0.00017162
-0.000389065
-0.000164186
-0.000335256
-0.000155665
-0.000284585
-0.00014607
-0.000237385
-0.000135425
-0.000193968
-0.000123778
-0.000154624
-0.000111197
-0.000119604
-9.77886e-05
-8.91093e-05
-8.3697e-05
-6.32761e-05
-6.91264e-05
-4.21557e-05
-5.43576e-05
-2.56917e-05
-3.97758e-05
-1.3695e-05
-2.59067e-05
-5.8125e-06
-1.34657e-05
-1.49689e-06
-3.41112e-06
4.34978e-08
2.95983e-06
3.71601e-06
-4.45501e-07
-4.90264e-06
-3.56175e-06
-4.38519e-07
-1.06739e-05
1.15485e-05
-2.23632e-05
2.71633e-05
-3.90158e-05
4.50391e-05
-6.0879e-05
6.42583e-05
-8.80734e-05
8.40819e-05
-0.000120602
0.000103938
-0.000158371
0.000123391
-0.000201213
0.000142109
-0.000248881
0.000159852
-0.000301084
0.000176444
-0.000357497
0.000191771
-0.000417765
0.000205748
-0.000481506
0.000218323
-0.000548329
0.000229475
-0.000617844
0.000239199
-0.000689658
0.0002475
-0.000763372
0.000254391
-0.000838599
0.000259902
-0.000914965
0.000264068
-0.000992101
0.000266923
-0.00106965
0.000268511
-0.00114726
0.000268879
-0.00122461
0.000268074
-0.00130138
0.000266149
-0.00137726
0.000263153
-0.00145197
0.00025914
-0.00152523
0.000254164
-0.00159678
0.000248276
-0.00166636
0.000241528
-0.00173375
0.000233968
-0.00179873
0.000225644
-0.0018611
0.000216606
-0.00192066
0.0002069
-0.00197723
0.00019657
-0.00203065
0.00018566
-0.00208078
0.000174211
-0.00212746
0.000162266
-0.00217058
0.000149867
-0.00221001
0.000137055
-0.00224566
0.000123871
-0.00227743
0.000110352
-0.00230523
9.6539e-05
-0.00232898
8.24697e-05
-0.00234864
6.81825e-05
-0.00236414
5.37148e-05
-0.00237543
3.91026e-05
-0.00238249
2.43814e-05
-0.00238528
9.5858e-06
-0.0023838
-5.24936e-06
-0.00237804
-2.00893e-05
-0.00236801
-3.4899e-05
-0.00235372
-4.9643e-05
-0.00233521
-6.4286e-05
-0.00231251
-7.87921e-05
-0.00228568
-9.31242e-05
-0.00225477
-0.000107244
-0.00221987
-0.00012111
-0.00218106
-0.00013468
-0.00213845
-0.000147911
-0.00209213
-0.000160756
-0.00204225
-0.00017317
-0.00198893
-0.000185105
-0.00193234
-0.00019651
-0.00187263
-0.000207336
-0.00181
-0.00021753
-0.00174464
-0.00022704
-0.00167675
-0.000235813
-0.00160658
-0.000243794
-0.00153436
-0.000250929
-0.00146036
-0.000257161
-0.00138484
-0.000262435
-0.0013081
-0.000266693
-0.00123045
-0.00026988
-0.00115222
-0.000271937
-0.00107372
-0.000272808
-0.000995313
-0.000272438
-0.00091736
-0.000270776
-0.00084023
-0.000267772
-0.000764305
-0.000263384
-0.000689976
-0.000257572
-0.000617637
-0.000250307
-0.00054769
-0.000241567
-0.000480534
-0.000231342
-0.000416566
-0.000219634
-0.000356172
-0.000206463
-0.000299727
-0.000191871
-0.000247581
-0.000175924
-0.000200054
-0.000158724
-0.000157426
-0.000140416
-0.000119921
-0.000121202
-8.7696e-05
-0.000101352
-6.08196e-05
-8.12339e-05
-3.92582e-05
-6.13371e-05
-2.28536e-05
-4.23114e-05
-1.13031e-05
-2.50163e-05
-4.14143e-06
-1.05727e-05
-7.05535e-07
-4.76044e-07
3.01049e-06
-1.29583e-06
-3.60671e-06
-6.53753e-06
4.80314e-06
-1.67345e-05
2.17455e-05
-3.23415e-05
4.27702e-05
-5.36383e-05
6.63359e-05
-8.08025e-05
9.14225e-05
-0.000113908
0.000117187
-0.000152922
0.000142953
-0.000197722
0.000168191
-0.000248105
0.000192493
-0.000303804
0.000215551
-0.000364506
0.000237146
-0.000429845
0.000257109
-0.000499428
0.000275332
-0.000572851
0.000291746
-0.000649688
0.000306311
-0.000729498
0.000319008
-0.000811842
0.000329845
-0.000896291
0.00033884
-0.000982415
0.000346026
-0.00106979
0.00035144
-0.001158
0.000355133
-0.00124664
0.000357159
-0.00133534
0.000357577
-0.00142372
0.00035645
-0.00151141
0.000353843
-0.00159808
0.000349822
-0.0016834
0.000344457
-0.00176705
0.000337817
-0.00184874
0.000329968
-0.00192819
0.000320977
-0.00200514
0.00031091
-0.00207932
0.000299832
-0.00215052
0.000287807
-0.00221852
0.000274896
-0.00228311
0.000261158
-0.0023441
0.000246651
-0.00240132
0.000231434
-0.00245462
0.000215562
-0.00250384
0.00019909
-0.00254886
0.000182072
-0.00258955
0.00016456
-0.0026258
0.000146607
-0.00265753
0.000128263
-0.00268463
0.000109578
-0.00270705
9.06027e-05
-0.00272472
7.13848e-05
-0.00273759
5.19721e-05
-0.00274562
3.24113e-05
-0.00274879
1.2749e-05
-0.00274707
-6.96849e-06
-0.00274046
-2.66943e-05
-0.00272898
-4.63814e-05
-0.00271264
-6.59823e-05
-0.00269148
-8.5449e-05
-0.00266554
-0.000104733
-0.00263488
-0.000123783
-0.00259957
-0.000142548
-0.00255971
-0.000160973
-0.00251539
-0.000179003
-0.00246672
-0.000196578
-0.00241384
-0.00021364
-0.00235688
-0.000230126
-0.00229601
-0.000245973
-0.00223141
-0.000261117
-0.00216325
-0.000275489
-0.00209176
-0.000289024
-0.00201715
-0.000301649
-0.00193967
-0.000313295
-0.00185957
-0.00032389
-0.00177714
-0.000333362
-0.00169266
-0.000341637
-0.00160646
-0.000348641
-0.00151885
-0.000354301
-0.00143019
-0.000358543
-0.00134083
-0.000361294
-0.00125116
-0.000362482
-0.00116156
-0.000362037
-0.00107244
-0.000359896
-0.000984212
-0.000355997
-0.00089731
-0.000350286
-0.000812165
-0.000342717
-0.000729218
-0.000333254
-0.000648913
-0.000321873
-0.000571691
-0.000308564
-0.000497989
-0.000293336
-0.000428234
-0.000276219
-0.000362834
-0.000257271
-0.000302172
-0.000236586
-0.000246598
-0.000214297
-0.000196421
-0.000190594
-0.000151889
-0.000165734
-0.000113185
-0.000140056
-8.04088e-05
-0.00011401
-5.35631e-05
-8.81828e-05
-3.25411e-05
-6.33335e-05
-1.71152e-05
-4.04421e-05
-6.93053e-06
-2.07575e-05
-1.484e-06
-5.92253e-06
1.52646e-06
-2.16272e-06
-1.44392e-06
-9.57036e-06
1.22107e-05
-2.29411e-05
3.51162e-05
-4.25699e-05
6.23991e-05
-6.86257e-05
9.23916e-05
-0.000101201
0.000123998
-0.000140302
0.000156288
-0.000185843
0.000188494
-0.000237663
0.00022001
-0.000295529
0.000250358
-0.00035914
0.000279162
-0.000428145
0.000306152
-0.000502159
0.000331123
-0.000580762
0.000353934
-0.000663505
0.00037449
-0.000749929
0.000392735
-0.000839567
0.000408646
-0.000931944
0.000422221
-0.00102659
0.000433483
-0.00112303
0.000442465
-0.0012208
0.000449216
-0.00131946
0.000453795
-0.00141857
0.000456268
-0.0015177
0.000456708
-0.00161645
0.000455192
-0.0017144
0.0004518
-0.0018112
0.000446617
-0.00190647
0.000439727
-0.00199987
0.000431215
-0.00209106
0.000421167
-0.00217975
0.000409667
-0.00226564
0.000396797
-0.00234845
0.000382641
-0.00242792
0.000367279
-0.00250381
0.000350787
-0.0025759
0.000333244
-0.00264397
0.000314723
-0.00270784
0.000295299
-0.00276731
0.000275042
-0.00282225
0.000254021
-0.00287248
0.000232306
-0.00291788
0.000209963
-0.00295833
0.000187058
-0.00299372
0.000163654
-0.00302396
0.000139815
-0.00304896
0.000115604
-0.00306866
9.10826e-05
-0.003083
6.63102e-05
-0.00309194
4.13468e-05
-0.00309544
1.62518e-05
-0.00309349
-8.91512e-06
-0.00308609
-3.40938e-05
-0.00307325
-5.92237e-05
-0.00305499
-8.4244e-05
-0.00303134
-0.000109093
-0.00300237
-0.000133706
-0.00296813
-0.00015802
-0.00292871
-0.000181967
-0.00288421
-0.000205478
-0.00283473
-0.000228481
-0.00278041
-0.000250903
-0.00272138
-0.000272667
-0.00265781
-0.000293695
-0.00258988
-0.000313907
-0.00251777
-0.00033322
-0.00244171
-0.000351549
-0.00236193
-0.000368809
-0.00227867
-0.000384912
-0.00219219
-0.000399766
-0.0021028
-0.000413281
-0.0020108
-0.000425367
-0.00191651
-0.00043593
-0.00182027
-0.000444878
-0.00172245
-0.000452118
-0.00162344
-0.000457558
-0.00152362
-0.000461109
-0.00142342
-0.000462682
-0.00132327
-0.000462193
-0.0012236
-0.000459562
-0.00112488
-0.000454717
-0.00102757
-0.000447594
-0.00093215
-0.000438138
-0.000839096
-0.000426308
-0.000748892
-0.000412078
-0.000662016
-0.00039544
-0.000578942
-0.000376409
-0.00050013
-0.00035503
-0.000426022
-0.000331379
-0.000357032
-0.000305576
-0.00029354
-0.000277789
-0.000235882
-0.000248252
-0.000184339
-0.000217277
-0.000139126
-0.000185269
-0.000100382
-0.000152754
-6.81597e-05
-0.000120405
-4.24201e-05
-8.9073e-05
-2.30264e-05
-5.98358e-05
-9.75002e-06
-3.40339e-05
-2.2598e-06
-1.34128e-05
-7.33364e-07
-3.01355e-06
1.56966e-06
-1.25774e-05
2.17746e-05
-2.91266e-05
5.16653e-05
-5.27924e-05
8.60648e-05
-8.36287e-05
0.000123228
-0.000121638
0.000162007
-0.000166744
0.000201394
-0.000218806
0.000240556
-0.000277607
0.000278812
-0.00034287
0.000315621
-0.000414267
0.00035056
-0.000491415
0.000383299
-0.00057389
0.000413598
-0.000661242
0.000441286
-0.000752997
0.000466245
-0.000848662
0.000488401
-0.000947736
0.00050772
-0.00104971
0.000524199
-0.00115409
0.000537857
-0.00126036
0.000548733
-0.00136802
0.000556884
-0.0014766
0.000562376
-0.00158563
0.00056529
-0.00169463
0.00056571
-0.00180317
0.00056373
-0.00191081
0.000559447
-0.00201716
0.000552961
-0.00212181
0.000544375
-0.00222438
0.000533793
-0.00232453
0.000521317
-0.00242192
0.00050705
-0.00251621
0.000491095
-0.00260713
0.000473553
-0.00269437
0.00045452
-0.00277768
0.000434095
-0.0028568
0.000412372
-0.00293152
0.000389442
-0.00300162
0.000365397
-0.0030669
0.000340324
-0.00312719
0.000314309
-0.00318232
0.000287436
-0.00323214
0.000259787
-0.00327653
0.000231444
-0.00331536
0.000202484
-0.00334853
0.000172986
-0.00337595
0.000143027
-0.00339755
0.000112682
-0.00341327
8.2025e-05
-0.00342305
5.11309e-05
-0.00342687
2.00728e-05
-0.00342471
-1.1075e-05
-0.00341657
-4.2238e-05
-0.00340245
-7.33408e-05
-0.00338239
-0.000104308
-0.00335642
-0.000135061
-0.0033246
-0.000165523
-0.00328701
-0.000195612
-0.00324373
-0.000225245
-0.00319487
-0.000254335
-0.00314056
-0.000282795
-0.00308093
-0.000310534
-0.00301614
-0.000337457
-0.00294636
-0.000363469
-0.0028718
-0.000388471
-0.00279266
-0.000412361
-0.00270917
-0.000435035
-0.0026216
-0.000456387
-0.0025302
-0.000476308
-0.00243528
-0.000494689
-0.00233714
-0.000511418
-0.00223612
-0.000526383
-0.00213258
-0.000539472
-0.00202689
-0.00055057
-0.00191944
-0.000559567
-0.00181065
-0.000566351
-0.00170094
-0.000570813
-0.00159078
-0.000572848
-0.00148061
-0.000572356
-0.00137093
-0.000569243
-0.00126223
-0.000563423
-0.001155
-0.000554822
-0.00104976
-0.000543378
-0.000947022
-0.000529044
-0.000847306
-0.000511793
-0.000751126
-0.00049162
-0.000658986
-0.000468549
-0.00057138
-0.000442637
-0.000488779
-0.00041398
-0.000411631
-0.000382724
-0.000340345
-0.000349075
-0.00027529
-0.000313307
-0.000216782
-0.000275785
-0.000165075
-0.000236975
-0.000120358
-0.000197471
-8.27435e-05
-0.000158019
-5.22688e-05
-0.000119548
-2.88982e-05
-8.32064e-05
-1.25348e-05
-5.03972e-05
-3.01754e-06
-2.29301e-05
-3.75087e-06
-3.83488e-06
5.40463e-06
-1.55057e-05
3.34453e-05
-3.51755e-05
7.13352e-05
-6.28385e-05
0.000113728
-9.84242e-05
0.000158814
-0.000141828
0.000205411
-0.000192897
0.000252464
-0.000251421
0.00029908
-0.000317134
0.000344524
-0.000389705
0.000388193
-0.000468763
0.000429617
-0.000553889
0.000468426
-0.000644633
0.000504342
-0.000740509
0.000537163
-0.000841012
0.000566747
-0.000945618
0.000593007
-0.0010538
0.0006159
-0.00116502
0.000635416
-0.00127873
0.000651574
-0.00139442
0.000664416
-0.00151154
0.000674005
-0.00162958
0.000680421
-0.00174805
0.000683753
-0.00186644
0.000684102
-0.00198428
0.000681576
-0.00210112
0.000676288
-0.00221652
0.000668358
-0.00233005
0.000657907
-0.00244132
0.000645056
-0.00254993
0.00062993
-0.00265553
0.000612649
-0.00275777
0.000593337
-0.00285633
0.000572113
-0.00295091
0.000549095
-0.00304121
0.000524399
-0.00312698
0.000498139
-0.00320796
0.000470426
-0.00328393
0.000441369
-0.00335468
0.000411073
-0.00342001
0.000379641
-0.00347975
0.000347175
-0.00353374
0.000313774
-0.00358183
0.000279535
-0.0036239
0.000244552
-0.00365983
0.000208919
-0.00368953
0.000172729
-0.00371292
0.000136072
-0.00372994
9.9038e-05
-0.00374052
6.17165e-05
-0.00374465
2.41966e-05
-0.00374229
-1.3432e-05
-0.00373345
-5.10789e-05
-0.00371814
-8.86532e-05
-0.00369638
-0.000126063
-0.00366823
-0.000163214
-0.00363374
-0.000200011
-0.003593
-0.000236357
-0.00354609
-0.000272149
-0.00349314
-0.000307285
-0.00343428
-0.000341659
-0.00336965
-0.000375159
-0.00329944
-0.000407674
-0.00322382
-0.000439088
-0.00314301
-0.000469283
-0.00305723
-0.000498136
-0.00296674
-0.000525522
-0.00287182
-0.000551315
-0.00277274
-0.000575383
-0.00266983
-0.000597597
-0.00256343
-0.000617821
-0.00245389
-0.000635924
-0.00234159
-0.000651769
-0.00222694
-0.000665224
-0.00211035
-0.000676153
-0.00199228
-0.000684427
-0.00187317
-0.000689918
-0.00175352
-0.000692501
-0.00163381
-0.00069206
-0.00151457
-0.000688486
-0.00139631
-0.000681681
-0.00127958
-0.000671559
-0.0011649
-0.00065805
-0.00105284
-0.000641103
-0.000943947
-0.00062069
-0.000838757
-0.00059681
-0.000737813
-0.000569493
-0.000641638
-0.000538811
-0.000550737
-0.000504881
-0.000465587
-0.000467874
-0.000386631
-0.00042803
-0.000314275
-0.000385664
-0.000248873
-0.000341187
-0.000190727
-0.000295121
-0.00014008
-0.000248118
-9.71127e-05
-0.000200987
-6.19453e-05
-0.000154715
-3.46464e-05
-0.000110505
-1.52487e-05
-6.97949e-05
-3.75058e-06
-3.44281e-05
-7.50142e-06
-4.61657e-06
1.00211e-05
-1.83203e-05
4.71491e-05
-4.10379e-05
9.40527e-05
-7.2609e-05
0.000145299
-0.00011286
0.000199064
-0.000161581
0.000254132
-0.000218539
0.000309421
-0.000283445
0.000363987
-0.00035597
0.000417049
-0.00043574
0.000467962
-0.000522333
0.00051621
-0.000615293
0.000561386
-0.00071413
0.000603179
-0.000818328
0.000641361
-0.00092735
0.000675769
-0.00104064
0.000706302
-0.00115765
0.000732906
-0.0012778
0.000755567
-0.00140053
0.000774303
-0.00152528
0.000789162
-0.00165148
0.000800213
-0.00177861
0.000807545
-0.00190612
0.00081126
-0.00203349
0.000811474
-0.00216022
0.00080831
-0.00228583
0.0008019
-0.00240986
0.000792382
-0.00253184
0.000779895
-0.00265137
0.000764582
-0.00276803
0.000746586
-0.00288143
0.00072605
-0.00299121
0.000703116
-0.00309702
0.000677927
-0.00319855
0.00065062
-0.00329548
0.000621331
-0.00338753
0.000590195
-0.00347445
0.000557342
-0.00355598
0.0005229
-0.0036319
0.000486994
-0.00370201
0.000449746
-0.00376611
0.000411276
-0.00382403
0.000371699
-0.00387563
0.000331131
-0.00392076
0.000289683
-0.00395931
0.000247466
-0.00399117
0.000204589
-0.00401625
0.000161159
-0.0040345
0.000117283
-0.00404585
7.30652e-05
-0.00405026
2.86127e-05
-0.00404773
-1.59684e-05
-0.00403824
-6.05711e-05
-0.0040218
-0.000105087
-0.00399846
-0.000149408
-0.00396825
-0.000193422
-0.00393124
-0.000237016
-0.00388753
-0.000280074
-0.0038372
-0.000322475
-0.00378039
-0.000364098
-0.00371723
-0.000404816
-0.00364789
-0.000444501
-0.00357254
-0.000483019
-0.0034914
-0.000520234
-0.00340467
-0.000556005
-0.00331262
-0.00059019
-0.0032155
-0.000622642
-0.00311361
-0.000653209
-0.00300725
-0.000681741
-0.00289676
-0.000708082
-0.00278251
-0.000732077
-0.00266486
-0.000753568
-0.00254423
-0.000772399
-0.00242105
-0.000788411
-0.00229575
-0.000801451
-0.00216881
-0.000811366
-0.00204072
-0.000818008
-0.00191199
-0.000821234
-0.00178314
-0.00082091
-0.00165471
-0.000816911
-0.00152727
-0.000809127
-0.00140137
-0.000797459
-0.00127759
-0.00078183
-0.0011565
-0.000762185
-0.0010387
-0.000738493
-0.000924753
-0.000710758
-0.000815228
-0.000679018
-0.000710681
-0.000643358
-0.000611649
-0.000603913
-0.000518643
-0.000560881
-0.000432142
-0.000514531
-0.000352589
-0.000465216
-0.000280385
-0.000413391
-0.000215883
-0.000359624
-0.000159384
-0.000304617
-0.000111142
-0.000249229
-7.13635e-05
-0.000194494
-4.02212e-05
-0.000141648
-1.78706e-05
-9.21456e-05
-4.45523e-06
-4.78435e-05
-1.19567e-05
-5.36513e-06
1.53863e-05
-2.10167e-05
6.28005e-05
-4.66729e-05
0.000119709
-8.20475e-05
0.000180673
-0.000126855
0.000243872
-0.000180793
0.00030807
-0.000243531
0.000372159
-0.000314716
0.000435171
-0.000393949
0.000496282
-0.000480801
0.000554814
-0.000574802
0.000610212
-0.000675454
0.000662037
-0.000782227
0.000709952
-0.00089457
0.000753704
-0.00101192
0.000793115
-0.00113368
0.000828067
-0.00125928
0.0008585
-0.0013881
0.000884394
-0.00151957
0.000905769
-0.00165308
0.000922678
-0.00178807
0.000935196
-0.00192394
0.000943423
-0.00206016
0.000947474
-0.00219616
0.000947479
-0.00233143
0.000943578
-0.00246545
0.000935923
-0.00259774
0.000924668
-0.00272782
0.000909974
-0.00285524
0.000892005
-0.00297958
0.000870923
-0.00310043
0.000846896
-0.00321739
0.000820085
-0.00333012
0.000790655
-0.00343827
0.000758766
-0.00354151
0.000724574
-0.00363955
0.000688235
-0.00373211
0.0006499
-0.00381893
0.000609718
-0.00389977
0.000567834
-0.00397441
0.000524388
-0.00404265
0.000479521
-0.00410432
0.000433367
-0.00415925
0.000386059
-0.00420729
0.000337727
-0.00424833
0.0002885
-0.00428224
0.000238504
-0.00430895
0.000187864
-0.00432837
0.000136704
-0.00434045
8.51463e-05
-0.00434515
3.33153e-05
-0.00434245
-1.86654e-05
-0.00433235
-7.0671e-05
-0.00431487
-0.000122576
-0.00429002
-0.000174252
-0.00425787
-0.000225571
-0.00421849
-0.000276399
-0.00417196
-0.000326601
-0.0041184
-0.000376039
-0.00405793
-0.000424569
-0.0039907
-0.000472044
-0.00391689
-0.000518316
-0.00383667
-0.000563229
-0.00375028
-0.000606626
-0.00365794
-0.000648343
-0.00355992
-0.000688215
-0.00345649
-0.000726071
-0.00334796
-0.000761737
-0.00323466
-0.000795039
-0.00311695
-0.000825796
-0.0029952
-0.000853829
-0.00286981
-0.000878956
-0.00274121
-0.000900997
-0.00260985
-0.000919772
-0.0024762
-0.000935102
-0.00234076
-0.000946813
-0.00220403
-0.000954735
-0.00206656
-0.000958706
-0.00192889
-0.000958575
-0.0017916
-0.0009542
-0.00165527
-0.000945456
-0.0015205
-0.000932234
-0.00138788
-0.000914449
-0.00125803
-0.000892039
-0.00113155
-0.000864972
-0.00100905
-0.000833255
-0.000891133
-0.000796935
-0.000778385
-0.000756107
-0.000671373
-0.000710924
-0.000570646
-0.000661608
-0.000476721