/*--------------------------------*- C++ -*----------------------------------*\
  =========                 |
  \\      /  F ield         | OpenFOAM: The Open Source CFD Toolbox
   \\    /   O peration     | Website:  https://openfoam.org
    \\  /    A nd           | Version:  11
     \\/     M anipulation  |
\*---------------------------------------------------------------------------*/
FoamFile
{
    format      ascii;
    class       volScalarField;
    location    "3.4";
    object      p;
}
// * * * * * * * * * * * * * * * * * * * * * * * * * * * * * * * * * * * * * //

dimensions      [0 2 -2 0 0 0 0];

internalField   nonuniform List<scalar> 
10100
(
5.58735e-08
9.98741e-05
-6.59246e-05
-0.00057244
-0.00137796
-0.00241693
-0.00362673
-0.0049498
-0.00633605
-0.00774512
-0.00914049
-0.0104923
-0.0117748
-0.0129677
-0.0140549
-0.0150219
-0.0158574
-0.0165534
-0.0171016
-0.0174978
-0.0177406
-0.017827
-0.0177548
-0.0175216
-0.0171249
-0.0165658
-0.0158472
-0.0149722
-0.0139434
-0.012764
-0.0114376
-0.00996807
-0.00836005
-0.00661921
-0.00475078
-0.00275931
-0.000650208
0.00156952
0.00389253
0.00631223
0.0088219
0.0114144
0.0140832
0.0168221
0.0196242
0.0224813
0.025384
0.0283241
0.0312943
0.0342869
0.0372928
0.0403026
0.0433066
0.0462952
0.0492588
0.0521875
0.0550722
0.057904
0.0606738
0.0633718
0.0659884
0.0685142
0.0709406
0.0732597
0.0754634
0.0775435
0.0794931
0.081307
0.08298
0.0845066
0.085881
0.0870989
0.0881568
0.0890522
0.0897833
0.0903488
0.0907474
0.090979
0.0910462
0.0909533
0.0907051
0.0903057
0.0897604
0.0890764
0.0882632
0.0873315
0.0862938
0.0851651
0.0839631
0.0827083
0.0814238
0.0801368
0.0788786
0.077685
0.0765956
0.075655
0.0749115
0.0744155
0.0742146
0.0742837
-1.95358e-05
1.31584e-05
-0.000197092
-0.000680274
-0.00139227
-0.00228973
-0.00332755
-0.00446282
-0.00565623
-0.00687372
-0.00808621
-0.00926497
-0.0103877
-0.011436
-0.0123918
-0.0132418
-0.0139755
-0.0145833
-0.0150591
-0.0153961
-0.01559
-0.0156389
-0.0155405
-0.0152923
-0.0148931
-0.0143419
-0.0136394
-0.0127882
-0.0117917
-0.0106538
-0.00937812
-0.00796788
-0.00642665
-0.00475882
-0.00296893
-0.00106142
0.000958116
0.00308297
0.00530631
0.00762162
0.0100224
0.0125023
0.0150555
0.0176767
0.0203589
0.0230931
0.0258703
0.028683
0.0315243
0.0343869
0.0372625
0.0401415
0.0430146
0.0458729
0.0487064
0.0515056
0.0542628
0.0569698
0.0596173
0.062196
0.0646971
0.0671117
0.0694318
0.0716505
0.0737599
0.0757517
0.0776195
0.0793593
0.0809664
0.0824349
0.0837594
0.0849362
0.0859626
0.0868361
0.0875551
0.0881187
0.0885257
0.0887767
0.0888745
0.0888241
0.0886302
0.0882967
0.0878287
0.0872337
0.0865216
0.085703
0.0847898
0.0837964
0.0827397
0.0816393
0.0805168
0.0793969
0.0783072
0.0772785
0.0763439
0.0755391
0.0749009
0.0744659
0.0742795
0.074351
0.000242261
0.00020022
-5.97181e-05
-0.000545466
-0.0012124
-0.00202622
-0.00295665
-0.00396721
-0.00502755
-0.00610994
-0.00718871
-0.00823989
-0.00924322
-0.0101801
-0.011035
-0.0117941
-0.0124462
-0.0129841
-0.0134014
-0.0136904
-0.0138457
-0.0138648
-0.0137444
-0.0134832
-0.0130804
-0.0125344
-0.0118452
-0.011014
-0.0100438
-0.00893903
-0.00770372
-0.00634064
-0.00485276
-0.00324362
-0.00151698
0.000322748
0.00226971
0.00431741
0.00645971
0.00869019
0.0110022
0.0133903
0.0158496
0.0183748
0.0209586
0.0235919
0.0262659
0.0289744
0.0317106
0.0344668
0.0372354
0.0400075
0.0427739
0.0455253
0.0482526
0.0509464
0.0535995
0.0562047
0.0587528
0.0612345
0.0636413
0.0659658
0.0682004
0.0703379
0.0723706
0.0742912
0.0760938
0.0777745
0.0793287
0.0807505
0.0820349
0.0831787
0.0841801
0.085037
0.0857476
0.0863106
0.0867251
0.0869922
0.0871152
0.0870988
0.0869472
0.0866645
0.0862561
0.08573
0.0850957
0.0843635
0.0835444
0.0826519
0.0817022
0.0807139
0.0797074
0.078705
0.077731
0.0768117
0.0759753
0.0752525
0.0746738
0.0742695
0.074085
0.0741468
0.000752423
0.000607622
0.000283874
-0.000222197
-0.000876058
-0.00164663
-0.0025103
-0.00344043
-0.00441055
-0.00539782
-0.00638051
-0.00733781
-0.00824991
-0.00910136
-0.00987761
-0.010565
-0.0111531
-0.0116345
-0.012002
-0.012251
-0.0123748
-0.0123693
-0.0122318
-0.01196
-0.0115525
-0.0110093
-0.0103305
-0.00951638
-0.00856944
-0.00749351
-0.00629196
-0.0049677
-0.00352383
-0.00196313
-0.000288911
0.00149398
0.00337967
0.00536222
0.00743593
0.00959458
0.0118318
0.014143
0.0165238
0.0189681
0.021468
0.0240149
0.0266014
0.0292215
0.0318686
0.0345349
0.0372127
0.0398938
0.0425693
0.0452299
0.0478664
0.0504706
0.0530358
0.0555545
0.0580176
0.0604165
0.062744
0.0649926
0.0671548
0.0692237
0.0711919
0.0730527
0.074801
0.0764331
0.0779437
0.0793266
0.0805774
0.0816943
0.0826758
0.0835198
0.084224
0.0847871
0.0852089
0.0854902
0.0856341
0.085645
0.0855269
0.085284
0.0849223
0.0844501
0.0838766
0.0832111
0.0824634
0.0816459
0.0807742
0.0798665
0.0789418
0.07802
0.077122
0.0762707
0.0754909
0.0748099
0.0742545
0.0738509
0.0736388
0.0736446
0.00145467
0.00118726
0.000786732
0.000245978
-0.000410287
-0.0011589
-0.00198105
-0.00285501
-0.00375935
-0.00467511
-0.00558358
-0.00646581
-0.00730485
-0.00808563
-0.00879552
-0.00942276
-0.00995682
-0.0103899
-0.0107155
-0.0109273
-0.0110217
-0.0109946
-0.0108421
-0.010561
-0.01015
-0.00960897
-0.00893825
-0.00813906
-0.00721368
-0.00616458
-0.00499428
-0.00370571
-0.00230172
-0.000784772
0.0008417
0.00257248
0.00440195
0.00632476
0.00833514
0.0104271
0.0125956
0.0148366
0.0171454
0.0195151
0.0219373
0.0244043
0.02691
0.0294487
0.032013
0.0345959
0.0371901
0.0397874
0.0423785
0.0449546
0.0475072
0.0500286
0.0525124
0.0549509
0.0573353
0.0596577
0.0619118
0.0640907
0.0661864
0.0681918
0.0701004
0.0719066
0.0736055
0.075193
0.0766634
0.0780107
0.0792314
0.0803243
0.0812881
0.0821205
0.0828188
0.0833821
0.0838102
0.0841043
0.0842668
0.0843015
0.0842124
0.0840039
0.0836826
0.0832567
0.0827349
0.082125
0.0814356
0.0806786
0.0798694
0.0790253
0.0781637
0.0773018
0.0764572
0.07565
0.0749024
0.0742385
0.0736819
0.073255
0.0729855
0.0728905
0.00231565
0.00191283
0.00142647
0.000839848
0.000164467
-0.00058061
-0.00138145
-0.00222074
-0.00308149
-0.003946
-0.00479899
-0.00562479
-0.00640694
-0.00713231
-0.00778934
-0.00836668
-0.00885602
-0.00924917
-0.00954016
-0.00972178
-0.00979056
-0.00974352
-0.00957715
-0.00928837
-0.00887522
-0.00833691
-0.00767397
-0.00688824
-0.00598194
-0.00495689
-0.00381515
-0.00255914
-0.00119109
0.000286299
0.00186913
0.00355244
0.00533092
0.00719925
0.00915179
0.0111831
0.0132892
0.0154668
0.0177099
0.0200109
0.0223622
0.0247569
0.0271891
0.0296531
0.032142
0.0346487
0.0371666
0.0396872
0.0422012
0.0446999
0.0471758
0.0496217
0.0520311
0.0543962
0.0567089
0.0589619
0.0611495
0.0632646
0.0652993
0.0672467
0.0691015
0.0708582
0.0725122
0.0740589
0.0754926
0.0768078
0.0780015
0.0790731
0.0800213
0.0808428
0.0815351
0.0820977
0.082531
0.0828357
0.0830138
0.0830685
0.083004
0.082825
0.0825383
0.0821515
0.0816721
0.0811065
0.0804629
0.0797529
0.078992
0.0781964
0.0773811
0.0765602
0.075749
0.0749651
0.0742286
0.0735605
0.0729811
0.0725099
0.0721591
0.0719322
0.00330432
0.0027598
0.00217758
0.00153534
0.000826013
6.66864e-05
-0.000730637
-0.00155481
-0.00238981
-0.00322189
-0.00403701
-0.00482128
-0.00556173
-0.00624595
-0.00686221
-0.0074011
-0.00785436
-0.00821494
-0.00847708
-0.00863536
-0.00868423
-0.00862067
-0.00844229
-0.00814657
-0.00773161
-0.00719647
-0.00654168
-0.00576884
-0.00487973
-0.00387613
-0.00275993
-0.0015329
-0.000196926
0.00124497
0.00278847
0.00442901
0.00616161
0.00798065
0.00988089
0.0118583
0.0139093
0.0160299
0.0182135
0.0204523
0.0227398
0.0250699
0.0274364
0.0298333
0.0322543
0.0346927
0.037142
0.0395934
0.0420376
0.0444669
0.0468742
0.0492525
0.0515949
0.0538942
0.0561426
0.0583338
0.060462
0.0625199
0.0644995
0.0663948
0.0682013
0.069914
0.0715278
0.0730379
0.0744385
0.0757251
0.0768951
0.0779481
0.0788817
0.0796926
0.0803785
0.0809395
0.0813764
0.0816895
0.08188
0.0819509
0.0819063
0.0817517
0.0814934
0.0811381
0.0806916
0.0801595
0.0795499
0.0788748
0.0781493
0.0773878
0.0766026
0.0758053
0.0750092
0.0742306
0.0734871
0.0727962
0.072176
0.0716429
0.0711926
0.0708141
0.00438983
0.00370057
0.00301789
0.00230925
0.00155345
0.000765483
-4.5923e-05
-0.000869567
-0.00169538
-0.00251063
-0.00330255
-0.00406005
-0.0047713
-0.00542493
-0.00601172
-0.00652257
-0.00694783
-0.00728314
-0.00752242
-0.00766126
-0.00769472
-0.00761897
-0.00743147
-0.00713028
-0.00671396
-0.00618203
-0.00553517
-0.00477448
-0.00390114
-0.00291689
-0.00182338
-0.000621928
0.00068542
0.00209539
0.00360388
0.00520633
0.00689758
0.0086722
0.0105259
0.0124557
0.014458
0.0165276
0.0186576
0.0208409
0.0230718
0.0253441
0.0276519
0.0299891
0.0323497
0.0347274
0.0371153
0.0395047
0.0418866
0.0442542
0.0466008
0.048919
0.0512019
0.0534426
0.0556344
0.0577712
0.059847
0.0618539
0.0637843
0.0656332
0.0673971
0.0690708
0.0706488
0.0721259
0.0734973
0.0747589
0.0759084
0.0769444
0.0778642
0.0786643
0.0793432
0.0799017
0.0803407
0.08066
0.0808599
0.0809431
0.0809145
0.0807793
0.0805432
0.0802115
0.0797888
0.0792806
0.0786953
0.0780449
0.0773434
0.076603
0.0758334
0.0750443
0.0742482
0.0734598
0.0726942
0.0719658
0.0712903
0.0706815
0.0701187
0.0695772
0.00554418
0.0047086
0.00392133
0.00313922
0.00232666
0.0014967
0.000659295
-0.000178827
-0.00100876
-0.00181952
-0.00260203
-0.00334544
-0.00403836
-0.00467157
-0.00523775
-0.00572795
-0.00613404
-0.00645051
-0.006673
-0.00679659
-0.00681754
-0.00673249
-0.00653864
-0.00623396
-0.00581732
-0.00528888
-0.00464943
-0.00389973
-0.00304067
-0.00207365
-0.00100012
0.000178662
0.00146055
0.00284217
0.00431952
0.00588801
0.00754235
0.00927763
0.0110906
0.0129786
0.0149376
0.0169616
0.0190438
0.0211781
0.0233592
0.0255806
0.027836
0.0301203
0.0324277
0.0347518
0.0370853
0.0394195
0.0417465
0.04406
0.0463534
0.0486187
0.0508493
0.053039
0.0551816
0.057271
0.0593005
0.0612625
0.0631498
0.0649585
0.0666852
0.0683246
0.0698707
0.0713187
0.0726646
0.0739047
0.0750362
0.0760567
0.076963
0.0777523
0.0784241
0.0789796
0.0794195
0.0797425
0.0799486
0.0800407
0.0800239
0.0799034
0.0796834
0.0793679
0.0789612
0.0784689
0.0778997
0.0772652
0.0765772
0.0758458
0.075079
0.0742857
0.0734772
0.0726667
0.0718668
0.071089
0.0703468
0.0696519
0.0689684
0.0682586
0.00674189
0.00576003
0.00486429
0.00400306
0.00312548
0.00224471
0.00136941
0.000505427
-0.000339471
-0.00115789
-0.00194139
-0.00268069
-0.00336609
-0.00398856
-0.00454141
-0.00501761
-0.00541141
-0.00571531
-0.00592593
-0.00603893
-0.0060507
-0.00595858
-0.00576021
-0.00545351
-0.00503763
-0.00451313
-0.00388055
-0.00314041
-0.00229388
-0.00134214
-0.000286042
0.000872954
0.00213237
0.00348904
0.00493902
0.00647741
0.00809908
0.00980019
0.0115782
0.01343
0.0153503
0.0173337
0.019374
0.0214657
0.023603
0.0257795
0.0279891
0.0302273
0.0324882
0.0347651
0.0370504
0.0393365
0.041616
0.0438829
0.0461299
0.0483491
0.0505344
0.0526804
0.054781
0.0568294
0.0588188
0.0607418
0.0625922
0.0643667
0.0660616
0.0676711
0.0691893
0.0706122
0.0719364
0.0731581
0.0742736
0.0752796
0.0761731
0.0769523
0.0776175
0.07817
0.0786094
0.0789338
0.0791432
0.0792409
0.0792321
0.0791213
0.0789115
0.0786059
0.0782087
0.0777259
0.0771659
0.0765389
0.0758546
0.0751214
0.0743467
0.0735387
0.0727078
0.0718653
0.0710215
0.0701851
0.0693674
0.0685792
0.0677704
0.0668913
0.00796211
0.00683281
0.00582708
0.00488168
0.00393238
0.00299307
0.00207131
0.00117237
0.000301382
-0.000534292
-0.00132719
-0.00207104
-0.0027575
-0.00337757
-0.00392463
-0.00439392
-0.00477972
-0.00507665
-0.00527981
-0.00538587
-0.00539198
-0.00529537
-0.00509386
-0.00478618
-0.00437197
-0.00385142
-0.0032249
-0.00249317
-0.00165743
-0.000718675
0.00032231
0.00146405
0.00270416
0.00403937
0.00546537
0.0069774
0.00857119
0.0102435
0.0119917
0.0138116
0.0156982
0.0176463
0.0196505
0.0217053
0.0238045
0.025942
0.0281122
0.0303107
0.0325312
0.0347668
0.0370104
0.0392552
0.0414944
0.0437214
0.0459284
0.0481079
0.0502547
0.052364
0.054429
0.0564425
0.0583977
0.0602878
0.0621077
0.0638538
0.0655217
0.0671056
0.0686001
0.070002
0.0713083
0.0725143
0.0736155
0.0746082
0.0754903
0.076261
0.0769207
0.07747
0.0779077
0.0782314
0.0784414
0.0785417
0.0785371
0.0784314
0.0782267
0.0779256
0.0775327
0.0770538
0.0764964
0.0758689
0.0751794
0.0744353
0.0736438
0.0728127
0.0719513
0.0710688
0.0701734
0.0692708
0.0683713
0.0674851
0.0665492
0.0655026
0.00918539
0.00790956
0.00679152
0.00575787
0.00473241
0.00372742
0.00275271
0.00181032
0.000904935
4.37638e-05
-0.000767247
-0.00152308
-0.00221691
-0.00284116
-0.00338958
-0.00385828
-0.00424102
-0.0045346
-0.00473432
-0.00483695
-0.00484003
-0.00474115
-0.0045382
-0.00423052
-0.00381831
-0.00330143
-0.00268005
-0.00195543
-0.00112893
-0.000201115
0.000827302
0.00195459
0.00317825
0.00449506
0.00590075
0.00739084
0.00896169
0.0106102
0.012333
0.0141256
0.0159834
0.0179017
0.0198756
0.0218988
0.0239654
0.0260697
0.0282066
0.0303713
0.0325571
0.0347572
0.0369656
0.0391759
0.0413812
0.0435741
0.0457471
0.0478934
0.0500083
0.052087
0.0541223
0.0561065
0.0580333
0.0598969
0.0616923
0.0634153
0.065061
0.0666236
0.0680987
0.0694839
0.0707758
0.0719686
0.0730573
0.0740388
0.0749118
0.0756758
0.0763311
0.0768771
0.0773118
0.0776331
0.0778418
0.0779421
0.0779385
0.0778338
0.0776295
0.0773284
0.0769348
0.0764544
0.0758933
0.0752582
0.0745559
0.0737934
0.0729777
0.0721164
0.0712175
0.0702884
0.0693347
0.0683601
0.0673743
0.0663877
0.0653245
0.0641132
0.0103954
0.00897284
0.00774048
0.00661731
0.00551114
0.00443585
0.00340143
0.00240937
0.00146355
0.000569349
-0.000267483
-0.00104202
-0.00174926
-0.00238332
-0.00293884
-0.00341123
-0.00379653
-0.00409026
-0.00428969
-0.00439218
-0.00439468
-0.004295
-0.00409222
-0.00378587
-0.00337552
-0.00286134
-0.00224439
-0.00152596
-0.000706863
0.000212309
0.0012305
0.00234592
0.00355609
0.00485777
0.00624697
0.00771979
0.00927264
0.0109018
0.0126035
0.0143735
0.0162077
0.0181019
0.0200505
0.0220474
0.024087
0.0261642
0.0282736
0.0304097
0.0325662
0.0347368
0.0369165
0.0390987
0.0412758
0.0434401
0.0455849
0.0477042
0.0497935
0.0518472
0.0538578
0.0558181
0.0577226
0.059566
0.0613426
0.0630473
0.0646752
0.0662211
0.0676816
0.0690543
0.0703349
0.0715172
0.0725958
0.0735688
0.0744354
0.075195
0.0758467
0.0763891
0.0768199
0.0771377
0.0773437
0.0774421
0.0774367
0.0773295
0.0771218
0.0768163
0.0764175
0.0759303
0.0753597
0.0747107
0.0739894
0.0732023
0.0723562
0.0714584
0.0705157
0.0695337
0.068516
0.0674648
0.0663898
0.0653017
0.0641119
0.0627395
0.0115773
0.0100075
0.0086608
0.00744497
0.00625602
0.00510649
0.00400698
0.00296051
0.00196868
0.00103584
0.000167438
-0.000631986
-0.00135855
-0.00200771
-0.00257504
-0.00305522
-0.00344646
-0.00374469
-0.00394736
-0.00405181
-0.00405556
-0.00395715
-0.00375596
-0.00345123
-0.00304245
-0.00253055
-0.00191731
-0.00120374
-0.000390161
0.00052253
0.00153278
0.00263879
0.00383839
0.00512858
0.00650563
0.00796568
0.00950477
0.0111187
0.0128038
0.0145562
0.0163723
0.0182473
0.0201758
0.0221518
0.0241703
0.026226
0.0283131
0.0304259
0.0325588
0.0347063
0.0368635
0.0390231
0.0411771
0.0433184
0.0454409
0.0475393
0.0496085
0.0516423
0.0536334
0.0555756
0.0574639
0.0592927
0.0610553
0.0627463
0.0643611
0.0658953
0.067346
0.0687101
0.0699828
0.0711574
0.0722291
0.0731967
0.0740596
0.0748165
0.0754654
0.0760042
0.076431
0.076745
0.0769479
0.0770431
0.0770337
0.0769209
0.0767061
0.0763925
0.0759843
0.0754857
0.0749004
0.0742324
0.0734869
0.07267
0.0717881
0.0708479
0.0698555
0.0688149
0.067728
0.0665964
0.0654305
0.0642403
0.0629255
0.0613959
0.0127175
0.0110023
0.00953963
0.0082294
0.00695524
0.00572819
0.00456068
0.00345447
0.00241149
0.00143594
0.00053167
-0.000297904
-0.00104914
-0.0017179
-0.00230022
-0.00279314
-0.00319359
-0.00349962
-0.00370834
-0.00381689
-0.00382388
-0.00372845
-0.00352948
-0.00322606
-0.00281867
-0.00230911
-0.0016988
-0.000988224
-0.000178177
0.000729729
0.00173395
0.0028332
0.00402561
0.00530823
0.0066772
0.00812838
0.00965751
0.0112604
0.0129337
0.0146737
0.0164765
0.0183374
0.020251
0.0222118
0.0242148
0.0262543
0.0283242
0.0304194
0.0325348
0.0346654
0.0368056
0.0389478
0.0410841
0.0432082
0.0453148
0.047398
0.0494521
0.0514711
0.0534482
0.0553781
0.057256
0.0590751
0.0608282
0.06251
0.0641165
0.0656442
0.0670896
0.0684491
0.0697171
0.0708873
0.0719557
0.0729211
0.0737828
0.0745383
0.0751849
0.0757206
0.0761442
0.0764553
0.0766554
0.0767467
0.0767313
0.0766102
0.0763853
0.0760601
0.0756389
0.075125
0.074521
0.0738296
0.0730554
0.0722039
0.0712813
0.0702938
0.0692464
0.068142
0.0669816
0.0657669
0.0645085
0.0632162
0.0617781
0.0600951
0.0138044
0.011945
0.0103662
0.00896035
0.00759816
0.00629162
0.0050528
0.00388295
0.00278516
0.00176265
0.000817922
-4.59832e-05
-0.000825592
-0.00151778
-0.0021189
-0.00262792
-0.00304137
-0.00335766
-0.00357433
-0.0036894
-0.00370164
-0.00360982
-0.00341286
-0.00311079
-0.0027051
-0.00219744
-0.0015886
-0.000879378
-7.15337e-05
0.000833081
0.00183355
0.00292911
0.00411784
0.00539646
0.00676084
0.00820668
0.00972975
0.0113261
0.0129923
0.0147247
0.016519
0.0183708
0.020275
0.0222262
0.0242191
0.0262475
0.0283057
0.0303893
0.0324936
0.0346131
0.0367415
0.0388716
0.0409961
0.0431094
0.0452059
0.0472792
0.0493234
0.0513329
0.053302
0.0552255
0.0570979
0.0589118
0.0606597
0.062337
0.0639403
0.0654663
0.0669107
0.0682692
0.069536
0.0707056
0.0717742
0.0727406
0.073603
0.0743581
0.0750034
0.0755373
0.0759593
0.076269
0.0764667
0.0765534
0.0765305
0.076399
0.0761614
0.0758219
0.0753847
0.0748523
0.0742259
0.0735074
0.0727004
0.0718102
0.0708427
0.0698034
0.0686962
0.0675236
0.0662865
0.0649863
0.0636341
0.0622397
0.0606799
0.058847
0.0148271
0.012824
0.0111306
0.00962746
0.00817544
0.00678655
0.00547386
0.00423877
0.00308249
0.00200852
0.00101979
0.0001184
-0.000693124
-0.00141209
-0.00203628
-0.00256356
-0.00299288
-0.00332183
-0.0035484
-0.0036716
-0.00369001
-0.00360197
-0.00340708
-0.00310672
-0.0027027
-0.00219587
-0.00158702
-0.000878104
-7.15033e-05
0.000831615
0.00183117
0.00292634
0.00411461
0.00539227
0.00675518
0.00819924
0.00972037
0.0113145
0.0129781
0.0147074
0.0164981
0.0183462
0.0202464
0.0221931
0.0241809
0.0262037
0.0282564
0.0303348
0.0324337
0.0345474
0.0366694
0.0387933
0.0409125
0.0430213
0.0451135
0.0471823
0.0492222
0.0512283
0.0531953
0.0551178
0.0569893
0.0588022
0.0605496
0.0622273
0.0638326
0.0653613
0.0668087
0.0681697
0.0694391
0.0706117
0.071684
0.0726539
0.0735187
0.0742749
0.0749204
0.0754545
0.0758769
0.0761863
0.0763817
0.0764631
0.0764313
0.076288
0.0760363
0.0756806
0.0752248
0.0746707
0.0740184
0.0732689
0.0724255
0.0714932
0.0704775
0.0693825
0.0682116
0.0669672
0.0656505
0.0642627
0.0628155
0.061319
0.0596387
0.0576587
0.0157751
0.0136305
0.0118213
0.0102206
0.00867758
0.00720435
0.0058156
0.00451251
0.00329532
0.00216726
0.0011313
0.000189132
-0.000657341
-0.00140586
-0.00205596
-0.00260472
-0.00305158
-0.00339488
-0.0036334
-0.00376576
-0.00379016
-0.0037058
-0.00351367
-0.00321551
-0.00281236
-0.00230494
-0.00169524
-0.00098619
-0.000179518
0.000724766
0.00172664
0.00282438
0.00401479
0.00529427
0.00665904
0.00810517
0.00962839
0.0112244
0.0128897
0.0146204
0.0164126
0.0182619
0.0201631
0.0221104
0.0240984
0.0261216
0.0281749
0.0302539
0.032353
0.0344663
0.036588
0.0387122
0.0408326
0.0429429
0.0450365
0.0471067
0.0491487
0.0511578
0.0531286
0.055055
0.0569302
0.0587469
0.0604989
0.0621825
0.0637945
0.0653301
0.066784
0.0681515
0.0694274
0.0706068
0.0716857
0.0726612
0.0735302
0.0742893
0.0749373
0.0754738
0.0758982
0.076208
0.0764009
0.0764763
0.0764351
0.0762795
0.076013
0.0756397
0.0751631
0.0745841
0.0739023
0.0731183
0.0722352
0.0712579
0.0701908
0.069037
0.0677991
0.0664799
0.0650809
0.0636037
0.0620606
0.0604615
0.0586615
0.0565363
0.0166417
0.0143542
0.0124284
0.01073
0.00909537
0.00753664
0.00606966
0.00469609
0.00341602
0.00223166
0.00114598
0.000160591
-0.000723492
-0.00150497
-0.00218225
-0.00275469
-0.00322093
-0.00358037
-0.00383189
-0.00397331
-0.00400361
-0.00392369
-0.00373506
-0.00343859
-0.00303498
-0.00252629
-0.00191576
-0.00120572
-0.00039645
0.000512272
0.00151926
0.0026218
0.00381682
0.00510128
0.0064716
0.00792353
0.00945259
0.0110545
0.0127257
0.0144625
0.0162609
0.0181162
0.020023
0.0219759
0.0239698
0.0259994
0.0280592
0.0301443
0.032249
0.0343679
0.0364958
0.038627
0.0407548
0.0428727
0.0449738
0.047052
0.0491027
0.0511213
0.0531017
0.0550373
0.0569214
0.0587474
0.0605097
0.0622044
0.0638277
0.0653742
0.0668386
0.0682165
0.0695029
0.0706926
0.0717809
0.0727643
0.0736395
0.074404
0.0750568
0.0755977
0.076025
0.0763354
0.0765258
0.0765952
0.0765449
0.0763774
0.0760959
0.0757039
0.075204
0.0745969
0.0738822
0.0730607
0.0721355
0.0711106
0.0699892
0.0687735
0.0674658
0.0660693
0.0645859
0.0630176
0.0613773
0.059675
0.0577557
0.0554871
0.0174173
0.0149871
0.0129445
0.0111462
0.00941965
0.00777499
0.00622804
0.00478197
0.00343723
0.00219489
0.0010574
2.63675e-05
-0.000897414
-0.00171364
-0.00242011
-0.00301754
-0.00350499
-0.00388169
-0.00414594
-0.00429638
-0.0043336
-0.00425907
-0.00407354
-0.00377751
-0.00337293
-0.0028633
-0.00225146
-0.00153806
-0.000722904
0.000192956
0.00120701
0.00231653
0.00351917
0.0048122
0.00619162
0.00765284
0.00919141
0.0108033
0.0124849
0.0142324
0.0160412
0.0179068
0.0198241
0.021788
0.0237936
0.0258351
0.0279068
0.0300034
0.0321195
0.0342504
0.0363911
0.0385355
0.040677
0.0428088
0.0449241
0.0470173
0.0490835
0.0511178
0.0531135
0.0550641
0.0569633
0.0588049
0.0605834
0.0622945
0.0639336
0.0654951
0.0669741
0.0683664
0.0696671
0.0708704
0.0719711
0.072965
0.0738493
0.0746217
0.0752815
0.0758281
0.076259
0.0765701
0.0767581
0.0768223
0.076764
0.0765853
0.0762887
0.0758767
0.0753513
0.0747132
0.0739629
0.0731017
0.0721321
0.0710571
0.0698786
0.0685983
0.0672185
0.0657425
0.0641729
0.0625121
0.0607732
0.0589669
0.0569286
0.0545176
0.0180922
0.0155215
0.0133615
0.0114618
0.00964161
0.00791026
0.00628291
0.00476292
0.00335162
0.00204988
0.000859011
-0.000219596
-0.00118499
-0.00203651
-0.0027745
-0.00339839
-0.00390786
-0.00430169
-0.00457865
-0.00473914
-0.00478435
-0.00471492
-0.00453133
-0.00423533
-0.00383037
-0.00331965
-0.00270428
-0.00198421
-0.0011605
-0.000235814
0.000787164
0.00190652
0.00312032
0.00442537
0.00581719
0.00729119
0.00884329
0.0104695
0.0121659
0.0139281
0.0157515
0.0176319
0.0195649
0.0215452
0.0235678
0.0256265
0.0277152
0.0298288
0.0319626
0.0341118
0.0362716
0.0384356
0.0405969
0.042749
0.0448855
0.0470005
0.0490889
0.051145
0.0531622
0.0551342
0.057055
0.0589186
0.0607193
0.062452
0.0641117
0.0656928
0.0671907
0.0686015
0.0699202
0.0711406
0.0722567
0.0732644
0.0741608
0.0749438
0.0756126
0.0761659
0.0766007
0.076913
0.0770996
0.0771599
0.0770948
0.0769054
0.0765931
0.0761598
0.075607
0.0749361
0.0741485
0.0732457
0.0722297
0.0711019
0.0698636
0.0685163
0.0670623
0.0655051
0.0638479
0.0620931
0.0602544
0.0583433
0.0561858
0.0536332
0.0186591
0.0159482
0.0136711
0.0116697
0.0097536
0.00793439
0.00622628
0.00463156
0.00315223
0.00178946
0.00054399
-0.000583091
-0.00159145
-0.00248015
-0.00325064
-0.00390185
-0.00443329
-0.00484424
-0.00513501
-0.00530664
-0.00535955
-0.00529413
-0.00511212
-0.00481686
-0.00441159
-0.00389775
-0.00327553
-0.00254612
-0.00171239
-0.000777343
0.000257241
0.00138998
0.00261842
0.00393864
0.00534616
0.0068369
0.00840692
0.0100518
0.011767
0.0135479
0.0153903
0.0172906
0.0192443
0.0212463
0.0232908
0.0253715
0.0274826
0.0296193
0.0317768
0.0339506
0.0361354
0.038325
0.0405125
0.0426915
0.0448558
0.0469991
0.0491159
0.0512001
0.0532452
0.0552453
0.0571946
0.0590867
0.0609154
0.062675
0.0643602
0.0659657
0.0674873
0.0689211
0.0702618
0.0715027
0.0726379
0.0736628
0.0745744
0.0753708
0.0760505
0.0766118
0.0770515
0.0773658
0.0775522
0.07761
0.077539
0.0773391
0.0770105
0.0765546
0.0759735
0.0752691
0.0744432
0.0734973
0.0724324
0.0712492
0.0699486
0.0685321
0.0670022
0.0653625
0.0636164
0.0617663
0.0598266
0.0578099
0.0555325
0.0528385
0.0191108
0.0162589
0.0138656
0.0117619
0.00974883
0.00784024
0.00605053
0.00438056
0.00283223
0.00140704
0.000105836
-0.00107079
-0.00212285
-0.00305083
-0.003854
-0.00453244
-0.00508602
-0.00551509
-0.00582069
-0.00600313
-0.00606267
-0.00600099
-0.00582135
-0.00552699
-0.00511947
-0.00459917
-0.00396739
-0.00322732
-0.00238234
-0.00143441
-0.000384636
0.000765033
0.00201117
0.00334974
0.00477687
0.00628883
0.0078812
0.0095488
0.0112867
0.0130907
0.0149571
0.0168823
0.018862
0.0208903
0.0229615
0.0250694
0.0272085
0.0293741
0.0315615
0.0337657
0.0359815
0.0382026
0.0404225
0.042635
0.0448334
0.0470112
0.0491624
0.0512808
0.0533603
0.0553952
0.0573797
0.0593068
0.0611693
0.0629612
0.0646772
0.0663124
0.0678628
0.0693242
0.0706913
0.0719568
0.0731147
0.0741605
0.0750909
0.0759034
0.0765963
0.0771674
0.0776136
0.0779316
0.0781191
0.0781753
0.0780989
0.0778885
0.0775433
0.0770647
0.0764552
0.0757172
0.0748524
0.0738617
0.0727457
0.0715047
0.0701397
0.0686522
0.067045
0.0653216
0.0634853
0.0615386
0.0594969
0.0573733
0.0549752
0.0521389
0.0194419
0.0164479
0.0139368
0.011731
0.00962093
0.00762136
0.00574867
0.00400269
0.00238457
0.000896131
-0.000461903
-0.00168965
-0.00278664
-0.0037538
-0.00458992
-0.00529591
-0.00587249
-0.00632056
-0.00664056
-0.00683271
-0.00689866
-0.00684155
-0.00666447
-0.00636906
-0.00595589
-0.00542637
-0.00478381
-0.00403204
-0.00317336
-0.00220889
-0.0011403
2.92832e-05
0.00129612
0.00265686
0.00410816
0.00564591
0.00726476
0.00895899
0.0107239
0.0125559
0.0144514
0.0164069
0.0184172
0.0204767
0.0225796
0.0247202
0.0268931
0.0290937
0.0313167
0.0335571
0.0358097
0.0380684
0.0403271
0.0425792
0.0448178
0.0470359
0.0492273
0.0513861
0.0535065
0.0555828
0.0576088
0.0595767
0.0614789
0.0633089
0.0650615
0.0667321
0.0683166
0.0698107
0.0712085
0.0725029
0.0736876
0.0747582
0.075711
0.0765431
0.0772519
0.0778353
0.0782903
0.078614
0.0788042
0.0788594
0.0787777
0.0785568
0.0781954
0.0776948
0.0770577
0.0762864
0.0753819
0.0743448
0.0731757
0.0718752
0.0704441
0.0688843
0.0671985
0.0653902
0.0634626
0.0614181
0.0592729
0.0570408
0.0545208
0.0515406
0.0196484
0.0165099
0.0138787
0.0115704
0.00936297
0.00727134
0.00531418
0.0034912
0.00180241
0.000249483
-0.0011668
-0.00244638
-0.00358931
-0.00459511
-0.00546481
-0.00619929
-0.00679948
-0.00726607
-0.0075994
-0.00780109
-0.00787424
-0.00782177
-0.00764525
-0.00734538
-0.00692376
-0.00638381
-0.00572957
-0.00496371
-0.00408756
-0.00310278
-0.00201244
-0.000820183
0.000471021
0.00185854
0.0033387
0.00490634
0.00655546
0.00828052
0.0100775
0.0119429
0.013873
0.0158635
0.0179093
0.020005
0.0221452
0.0243244
0.0265374
0.0287788
0.0310432
0.0333256
0.0356209
0.0379235
0.0402272
0.042525
0.0448094
0.0470734
0.049311
0.0515164
0.0536838
0.0558076
0.0578807
0.059895
0.0618424
0.0637166
0.0655121
0.0672241
0.0688484
0.0703801
0.0718131
0.0731407
0.0743566
0.0754564
0.0764358
0.0772912
0.0780195
0.0786182
0.0790846
0.079416
0.0796103
0.0796654
0.0795789
0.0793479
0.0789712
0.0784497
0.0777858
0.0769812
0.0760363
0.0749516
0.073728
0.0723666
0.0708683
0.0692349
0.0674694
0.0655753
0.063555
0.0614111
0.0591606
0.0568185
0.0541747
0.0510486
0.0197246
0.0164398
0.0136865
0.0112736
0.00896786
0.0067837
0.0047406
0.00283892
0.00107816
-0.00054052
-0.00201622
-0.00334805
-0.00453686
-0.00558232
-0.00648633
-0.00724956
-0.00787285
-0.00835698
-0.00870357
-0.00891558
-0.00899582
-0.00894586
-0.0087665
-0.00845944
-0.00802818
-0.00747691
-0.00680861
-0.00602485
-0.00512739
-0.00411944
-0.0030048
-0.00178637
-0.000466183
0.000952862
0.00246592
0.00406704
0.00575046
0.00751135
0.00934593
0.0112503
0.0132201
0.0152507
0.0173372
0.0194746
0.0216583
0.0238825
0.0261414
0.0284294
0.030741
0.0330715
0.0354159
0.0377688
0.0401235
0.0424726
0.0448085
0.0471242
0.0494139
0.0516719
0.0538923
0.0560688
0.0581942
0.0602601
0.0622585
0.064183
0.0660278
0.0677874
0.0694569
0.0710312
0.0725042
0.0738696
0.0751217
0.0762553
0.0772659
0.0781488
0.0789004
0.079518
0.0799988
0.0803403
0.0805401
0.0805962
0.0805058
0.0802659
0.079875
0.0793336
0.0786432
0.077805
0.0768192
0.0756864
0.0744076
0.0729843
0.0714176
0.0697096
0.0678633
0.0658821
0.0637679
0.0615228
0.0591649
0.0567109
0.0539409
0.0506669
0.0196628
0.0162316
0.0133549
0.0108344
0.00842887
0.00615114
0.00402051
0.00203809
0.000203726
-0.00148156
-0.00301694
-0.00440209
-0.00563702
-0.0067233
-0.00766165
-0.00845298
-0.00909855
-0.00960015
-0.00996062
-0.0101827
-0.0102678
-0.010217
-0.0100322
-0.00971686
-0.00927506
-0.00871011
-0.0080239
-0.0072184
-0.00629689
-0.00526343
-0.00412115
-0.00287195
-0.00151802
-6.34636e-05
0.00148588
0.00312426
0.00484687
0.0066493
0.00852721
0.0104758
0.0124902
0.0145659
0.0166989
0.0188845
0.021118
0.0233932
0.0257039
0.0280442
0.0304092
0.0327943
0.0351944
0.0376037
0.0400152
0.0424214
0.0448146
0.047188
0.0495359
0.0518523
0.0541309
0.0563652
0.0585479
0.0606707
0.0627261
0.0647071
0.0666073
0.0684202
0.0701404
0.0717625
0.0732808
0.0746895
0.0759828
0.0771555
0.0782019
0.0791168
0.079896
0.0805362
0.0810348
0.0813892
0.081597
0.0816559
0.0815631
0.0813157
0.0809118
0.0803512
0.0796345
0.0787628
0.0777362
0.0765552
0.0752209
0.0737348
0.0720988
0.0703152
0.0683871
0.0663172
0.0641071
0.0617587
0.0592916
0.0567237
0.0538251
0.0504002
0.0194567
0.0158785
0.0128772
0.0102471
0.00773888
0.00536532
0.00314561
0.00108105
-0.000828221
-0.00258117
-0.00417685
-0.00561584
-0.00689789
-0.00802476
-0.00899684
-0.00981573
-0.0104835
-0.011003
-0.0113768
-0.0116066
-0.0116935
-0.0116396
-0.0114483
-0.0111237
-0.0106691
-0.0100867
-0.00937883
-0.00854891
-0.00760114
-0.00653895
-0.00536449
-0.00407975
-0.00268819
-0.001195
0.000394151
0.00207456
0.00384203
0.00569167
0.00761794
0.00961537
0.0116793
0.0138061
0.0159919
0.0182322
0.0205216
0.0228536
0.0252218
0.0276208
0.0300457
0.032492
0.0349541
0.0374258
0.0398999
0.0423692
0.0448263
0.047264
0.0496761
0.0520564
0.0543983
0.0566953
0.0589404
0.061126
0.0632443
0.0652879
0.0672492
0.069121
0.0708974
0.072573
0.0741426
0.0756004
0.0769407
0.0781575
0.0792446
0.0801961
0.0810074
0.0816747
0.0821951
0.0825659
0.0827847
0.0828492
0.0827563
0.0825029
0.082087
0.081508
0.080766
0.0798615
0.0787947
0.0775658
0.0761756
0.0746262
0.0729201
0.0710601