/*--------------------------------*- C++ -*----------------------------------*\
  =========                 |
  \\      /  F ield         | OpenFOAM: The Open Source CFD Toolbox
   \\    /   O peration     | Website:  https://openfoam.org
    \\  /    A nd           | Version:  11
     \\/     M anipulation  |
\*---------------------------------------------------------------------------*/
FoamFile
{
    format      ascii;
    class       volVectorField;
    location    "3.4";
    object      U;
}
// * * * * * * * * * * * * * * * * * * * * * * * * * * * * * * * * * * * * * //

dimensions      [0 1 -1 0 0 0 0];

internalField   nonuniform List<vector> 
10100
(
(2.86146e-06 -3.05728e-06 0)
(1.36212e-05 -7.92369e-06 0)
(3.13856e-05 -9.77092e-06 0)
(4.86306e-05 -8.9259e-06 0)
(6.03494e-05 -6.4994e-06 0)
(6.39412e-05 -3.37615e-06 0)
(5.8221e-05 1.22942e-07 0)
(4.28284e-05 3.6003e-06 0)
(1.77728e-05 6.97686e-06 0)
(-1.65814e-05 1.01713e-05 0)
(-5.96967e-05 1.31001e-05 0)
(-0.000111027 1.57595e-05 0)
(-0.00016984 1.81497e-05 0)
(-0.000235527 2.02448e-05 0)
(-0.000307409 2.21089e-05 0)
(-0.000384757 2.37426e-05 0)
(-0.000467008 2.51111e-05 0)
(-0.00055346 2.6265e-05 0)
(-0.000643465 2.72102e-05 0)
(-0.000736511 2.79611e-05 0)
(-0.000831958 2.8558e-05 0)
(-0.000929282 2.9043e-05 0)
(-0.00102801 2.93436e-05 0)
(-0.00112756 2.946e-05 0)
(-0.00122748 2.94492e-05 0)
(-0.00132734 2.93128e-05 0)
(-0.00142667 2.90585e-05 0)
(-0.00152504 2.87131e-05 0)
(-0.00162205 2.82577e-05 0)
(-0.00171732 2.7662e-05 0)
(-0.00181046 2.69444e-05 0)
(-0.00190113 2.61348e-05 0)
(-0.00198901 2.52395e-05 0)
(-0.00207379 2.42629e-05 0)
(-0.00215518 2.32188e-05 0)
(-0.0022329 2.21085e-05 0)
(-0.00230671 2.09234e-05 0)
(-0.00237635 1.96691e-05 0)
(-0.0024416 1.83592e-05 0)
(-0.00250227 1.70017e-05 0)
(-0.00255818 1.55976e-05 0)
(-0.00260917 1.41476e-05 0)
(-0.00265509 1.26671e-05 0)
(-0.0026958 1.11637e-05 0)
(-0.00273117 9.62509e-06 0)
(-0.0027611 8.04932e-06 0)
(-0.00278547 6.44345e-06 0)
(-0.00280421 4.80915e-06 0)
(-0.00281723 3.15597e-06 0)
(-0.00282449 1.48877e-06 0)
(-0.00282594 -1.99458e-07 0)
(-0.00282153 -1.90054e-06 0)
(-0.00281126 -3.60173e-06 0)
(-0.00279512 -5.30846e-06 0)
(-0.00277314 -7.0196e-06 0)
(-0.00274535 -8.71842e-06 0)
(-0.00271182 -1.03974e-05 0)
(-0.00267262 -1.20543e-05 0)
(-0.00262786 -1.36783e-05 0)
(-0.00257768 -1.52634e-05 0)
(-0.00252222 -1.68076e-05 0)
(-0.00246164 -1.82965e-05 0)
(-0.00239616 -1.97125e-05 0)
(-0.00232601 -2.10525e-05 0)
(-0.00225144 -2.23158e-05 0)
(-0.00217271 -2.3492e-05 0)
(-0.00209014 -2.45717e-05 0)
(-0.00200404 -2.55536e-05 0)
(-0.00191473 -2.64336e-05 0)
(-0.00182257 -2.72034e-05 0)
(-0.00172793 -2.78607e-05 0)
(-0.00163119 -2.84061e-05 0)
(-0.00153276 -2.88331e-05 0)
(-0.00143306 -2.91325e-05 0)
(-0.00133252 -2.93042e-05 0)
(-0.00123162 -2.93489e-05 0)
(-0.00113082 -2.92552e-05 0)
(-0.00103062 -2.90058e-05 0)
(-0.000931536 -2.85936e-05 0)
(-0.000834099 -2.80228e-05 0)
(-0.000738852 -2.72949e-05 0)
(-0.00064635 -2.64018e-05 0)
(-0.000557158 -2.53345e-05 0)
(-0.000471856 -2.40916e-05 0)
(-0.000391029 -2.26728e-05 0)
(-0.000315264 -2.10721e-05 0)
(-0.000245139 -1.92843e-05 0)
(-0.000181221 -1.73086e-05 0)
(-0.000124071 -1.51473e-05 0)
(-7.42216e-05 -1.28065e-05 0)
(-3.21667e-05 -1.02924e-05 0)
(1.65847e-06 -7.61831e-06 0)
(2.6915e-05 -4.81739e-06 0)
(4.34015e-05 -1.93875e-06 0)
(5.11343e-05 9.31895e-07 0)
(5.0492e-05 3.63574e-06 0)
(4.23796e-05 5.89972e-06 0)
(2.86293e-05 7.21023e-06 0)
(1.31377e-05 6.6157e-06 0)
(2.87457e-06 2.85649e-06 0)
(5.39928e-06 -1.29314e-05 0)
(2.38654e-05 -2.75776e-05 0)
(4.89945e-05 -3.0965e-05 0)
(6.91608e-05 -2.4275e-05 0)
(7.55368e-05 -1.12531e-05 0)
(6.28336e-05 5.21094e-06 0)
(2.82762e-05 2.32318e-05 0)
(-2.96526e-05 4.17573e-05 0)
(-0.000111152 5.99382e-05 0)
(-0.000215967 7.74335e-05 0)
(-0.000343156 9.38827e-05 0)
(-0.000491483 0.000109216 0)
(-0.000659717 0.000123262 0)
(-0.000846254 0.000136055 0)
(-0.00104946 0.000147566 0)
(-0.00126784 0.000157785 0)
(-0.00149961 0.000166756 0)
(-0.00174319 0.000174507 0)
(-0.001997 0.000181033 0)
(-0.00225936 0.000186421 0)
(-0.00252878 0.000190735 0)
(-0.00280376 0.000193988 0)
(-0.00308279 0.000196248 0)
(-0.00336449 0.000197524 0)
(-0.00364749 0.000197846 0)
(-0.00393046 0.000197261 0)
(-0.00421214 0.000195823 0)
(-0.00449134 0.000193575 0)
(-0.00476688 0.000190539 0)
(-0.00503763 0.000186741 0)
(-0.00530254 0.000182224 0)
(-0.0055606 0.000177032 0)
(-0.00581085 0.000171201 0)
(-0.0060524 0.000164778 0)
(-0.0062844 0.000157799 0)
(-0.00650603 0.000150291 0)
(-0.00671656 0.000142278 0)
(-0.00691528 0.000133803 0)
(-0.00710154 0.00012492 0)
(-0.00727475 0.000115655 0)
(-0.00743435 0.000106038 0)
(-0.00757984 9.61069e-05 0)
(-0.00771077 8.58897e-05 0)
(-0.0078267 7.54122e-05 0)
(-0.0079273 6.46953e-05 0)
(-0.00801223 5.37568e-05 0)
(-0.0080812 4.26366e-05 0)
(-0.00813396 3.13717e-05 0)
(-0.00817033 1.99755e-05 0)
(-0.00819013 8.46928e-06 0)
(-0.00819328 -3.11106e-06 0)
(-0.00817972 -1.47329e-05 0)
(-0.00814941 -2.63644e-05 0)
(-0.0081024 -3.79699e-05 0)
(-0.0080388 -4.95115e-05 0)
(-0.00795873 -6.09482e-05 0)
(-0.00786236 -7.22376e-05 0)
(-0.00775001 -8.33374e-05 0)
(-0.00762196 -9.42061e-05 0)
(-0.00747859 -0.000104802 0)
(-0.00732034 -0.000115076 0)
(-0.00714773 -0.000124972 0)
(-0.0069613 -0.000134439 0)
(-0.00676167 -0.000143439 0)
(-0.00654958 -0.000151925 0)
(-0.00632577 -0.000159843 0)
(-0.00609103 -0.000167153 0)
(-0.00584622 -0.000173827 0)
(-0.00559232 -0.000179832 0)
(-0.00533033 -0.000185126 0)
(-0.00506124 -0.00018967 0)
(-0.00478616 -0.000193428 0)
(-0.00450626 -0.000196364 0)
(-0.00422276 -0.00019844 0)
(-0.00393687 -0.00019963 0)
(-0.00364992 -0.000199901 0)
(-0.00336328 -0.000199208 0)
(-0.00307835 -0.000197504 0)
(-0.00279655 -0.000194759 0)
(-0.00251936 -0.000190954 0)
(-0.00224833 -0.000186069 0)
(-0.00198503 -0.000180077 0)
(-0.00173099 -0.000172951 0)
(-0.0014878 -0.000164679 0)
(-0.00125704 -0.000155263 0)
(-0.0010403 -0.000144708 0)
(-0.000839117 -0.000133027 0)
(-0.000654978 -0.000120249 0)
(-0.0004893 -0.000106416 0)
(-0.000343411 -9.15983e-05 0)
(-0.00021848 -7.59042e-05 0)
(-0.000115446 -5.94939e-05 0)
(-3.49367e-05 -4.26142e-05 0)
(2.28498e-05 -2.5637e-05 0)
(5.83363e-05 -9.12021e-06 0)
(7.28585e-05 6.0677e-06 0)
(6.89617e-05 1.85807e-05 0)
(5.0902e-05 2.63324e-05 0)
(2.61691e-05 2.60221e-05 0)
(6.70405e-06 1.31562e-05 0)
(4.54346e-06 -2.56722e-05 0)
(2.00629e-05 -4.96748e-05 0)
(3.68277e-05 -5.0625e-05 0)
(4.22827e-05 -3.07932e-05 0)
(2.62466e-05 2.7332e-06 0)
(-1.77677e-05 4.44915e-05 0)
(-9.33485e-05 9.04305e-05 0)
(-0.000202521 0.000137994 0)
(-0.00034617 0.000185387 0)
(-0.000523959 0.000231411 0)
(-0.000734942 0.000275354 0)
(-0.00097773 0.0003166 0)
(-0.00125046 0.000354921 0)
(-0.00155107 0.000390098 0)
(-0.00187741 0.000421987 0)
(-0.00222702 0.00045058 0)
(-0.00259758 0.000475886 0)
(-0.00298667 0.000497857 0)
(-0.00339176 0.000516658 0)
(-0.00381046 0.000532253 0)
(-0.00424044 0.000544788 0)
(-0.00467929 0.000554378 0)
(-0.00512472 0.000561086 0)
(-0.00557453 0.000565005 0)
(-0.00602653 0.000566262 0)
(-0.00647862 0.000564929 0)
(-0.00692881 0.000561094 0)
(-0.00737513 0.000554888 0)
(-0.00781574 0.000546409 0)
(-0.00824886 0.000535751 0)
(-0.00867277 0.00052303 0)
(-0.00908584 0.00050836 0)
(-0.00948654 0.000491833 0)
(-0.0098734 0.000473556 0)
(-0.010245 0.000453636 0)
(-0.0106002 0.000432161 0)
(-0.0109376 0.000409229 0)
(-0.0112561 0.000384946 0)
(-0.0115547 0.000359427 0)
(-0.0118323 0.000332773 0)
(-0.0120882 0.000305067 0)
(-0.0123214 0.000276407 0)
(-0.0125311 0.000246893 0)
(-0.0127168 0.000216591 0)
(-0.0128777 0.000185579 0)
(-0.0130135 0.000153957 0)
(-0.0131235 0.000121811 0)
(-0.0132075 8.92297e-05 0)
(-0.0132651 5.63063e-05 0)
(-0.0132961 2.31106e-05 0)
(-0.0133004 -1.02714e-05 0)
(-0.0132778 -4.37266e-05 0)
(-0.0132284 -7.71592e-05 0)
(-0.0131522 -0.00011048 0)
(-0.0130495 -0.000143573 0)
(-0.0129205 -0.000176318 0)
(-0.0127654 -0.000208609 0)
(-0.0125849 -0.000240333 0)
(-0.0123793 -0.000271365 0)
(-0.0121494 -0.000301586 0)
(-0.0118958 -0.000330872 0)
(-0.0116192 -0.000359085 0)
(-0.0113207 -0.000386094 0)
(-0.0110012 -0.000411781 0)
(-0.0106619 -0.00043602 0)
(-0.0103038 -0.000458675 0)
(-0.00992827 -0.000479626 0)
(-0.00953671 -0.00049877 0)
(-0.00913059 -0.000516002 0)
(-0.00871149 -0.000531206 0)
(-0.00828106 -0.00054427 0)
(-0.00784104 -0.00055508 0)
(-0.00739327 -0.000563528 0)
(-0.00693967 -0.000569511 0)
(-0.00648226 -0.000572935 0)
(-0.00602313 -0.000573705 0)
(-0.00556442 -0.000571714 0)
(-0.00510837 -0.000566863 0)
(-0.00465723 -0.000559073 0)
(-0.00421337 -0.00054828 0)
(-0.00377919 -0.000534425 0)
(-0.00335711 -0.000517449 0)
(-0.00294956 -0.000497309 0)
(-0.00255899 -0.00047399 0)
(-0.00218783 -0.000447502 0)
(-0.0018385 -0.000417888 0)
(-0.00151334 -0.000385222 0)
(-0.00121458 -0.00034962 0)
(-0.000944306 -0.000311255 0)
(-0.000704435 -0.000270379 0)
(-0.000496587 -0.000227353 0)
(-0.000322011 -0.000182697 0)
(-0.00018145 -0.00013715 0)
(-7.49789e-05 -9.17645e-05 0)
(-1.75644e-06 -4.80426e-05 0)
(4.02983e-05 -8.14205e-06 0)
(5.47848e-05 2.48493e-05 0)
(4.72624e-05 4.6569e-05 0)
(2.68005e-05 5.08765e-05 0)
(7.38922e-06 2.88141e-05 0)
(2.61715e-06 -3.49237e-05 0)
(1.03927e-05 -6.2184e-05 0)
(1.10473e-05 -5.39757e-05 0)
(-7.47251e-06 -1.36715e-05 0)
(-5.52314e-05 4.87242e-05 0)
(-0.000139015 0.000124589 0)
(-0.000262979 0.00020802 0)
(-0.000429473 0.000294554 0)
(-0.00063942 0.000381329 0)
(-0.000892692 0.00046615 0)
(-0.00118831 0.00054757 0)
(-0.00152453 0.000624584 0)
(-0.00189931 0.000696501 0)
(-0.0023102 0.000762834 0)
(-0.00275434 0.000823328 0)
(-0.0032289 0.000877782 0)
(-0.00373084 0.000926127 0)
(-0.00425702 0.000968392 0)
(-0.00480436 0.00100461 0)
(-0.00536969 0.00103487 0)
(-0.00594983 0.00105928 0)
(-0.00654179 0.001078 0)
(-0.0071425 0.00109117 0)
(-0.007749 0.00109899 0)
(-0.00835843 0.00110164 0)
(-0.00896801 0.00109926 0)
(-0.00957501 0.00109207 0)
(-0.0101768 0.00108023 0)
(-0.010771 0.00106395 0)
(-0.0113551 0.00104343 0)
(-0.0119268 0.00101888 0)
(-0.012484 0.000990494 0)
(-0.0130245 0.00095847 0)
(-0.0135465 0.000923014 0)
(-0.0140479 0.000884322 0)
(-0.0145271 0.000842571 0)
(-0.0149824 0.000797959 0)
(-0.0154122 0.000750693 0)
(-0.0158151 0.000700964 0)
(-0.0161898 0.000648962 0)
(-0.0165351 0.00059488 0)
(-0.0168497 0.000538902 0)
(-0.0171326 0.000481206 0)
(-0.017383 0.000421961 0)
(-0.0176 0.000361326 0)
(-0.0177829 0.000299488 0)
(-0.0179311 0.00023664 0)
(-0.018044 0.000172953 0)
(-0.0181213 0.000108595 0)
(-0.0181626 4.37497e-05 0)
(-0.0181678 -2.13975e-05 0)
(-0.0181367 -8.66618e-05 0)
(-0.0180695 -0.000151843 0)
(-0.0179662 -0.00021674 0)
(-0.017827 -0.000281152 0)
(-0.0176524 -0.000344859 0)
(-0.0174429 -0.000407636 0)
(-0.0171989 -0.000469271 0)
(-0.0169213 -0.000529547 0)
(-0.0166108 -0.000588219 0)
(-0.0162685 -0.000645044 0)
(-0.0158954 -0.000699787 0)
(-0.0154927 -0.000752217 0)
(-0.0150619 -0.000802089 0)
(-0.0146042 -0.00084916 0)
(-0.0141215 -0.000893191 0)
(-0.0136152 -0.000933949 0)
(-0.0130874 -0.000971207 0)
(-0.01254 -0.00100475 0)
(-0.011975 -0.00103436 0)
(-0.0113948 -0.00105982 0)
(-0.0108017 -0.0010809 0)
(-0.0101981 -0.00109739 0)
(-0.00958654 -0.0011091 0)
(-0.00896982 -0.00111583 0)
(-0.00835068 -0.0011174 0)
(-0.00773199 -0.00111362 0)
(-0.00711674 -0.00110433 0)
(-0.00650793 -0.00108937 0)
(-0.00590866 -0.00106863 0)
(-0.00532212 -0.00104201 0)
(-0.0047515 -0.00100941 0)
(-0.00419998 -0.00097079 0)
(-0.00367075 -0.000926139 0)
(-0.00316699 -0.000875502 0)
(-0.00269181 -0.000818987 0)
(-0.00224821 -0.000756776 0)
(-0.00183901 -0.000689138 0)
(-0.00146684 -0.000616454 0)
(-0.00113406 -0.000539263 0)
(-0.00084262 -0.000458321 0)
(-0.000594001 -0.000374667 0)
(-0.000389008 -0.000289728 0)
(-0.000227615 -0.000205458 0)
(-0.000108716 -0.000124531 0)
(-2.98254e-05 -5.06206e-05 0)
(1.31788e-05 1.12422e-05 0)
(2.64503e-05 5.43058e-05 0)
(1.9454e-05 6.94518e-05 0)
(6.17497e-06 4.29391e-05 0)
(4.28196e-07 -3.80382e-05 0)
(-2.17921e-06 -5.9219e-05 0)
(-2.28928e-05 -3.3512e-05 0)
(-7.15291e-05 3.52405e-05 0)
(-0.000157477 0.000134287 0)
(-0.000287398 0.000252324 0)
(-0.000465338 0.000381139 0)
(-0.000693673 0.000514947 0)
(-0.000973413 0.000649287 0)
(-0.00130439 0.000781144 0)
(-0.0016854 0.000908199 0)
(-0.00211468 0.00102883 0)
(-0.00258982 0.00114187 0)
(-0.00310793 0.00124656 0)
(-0.00366594 0.00134228 0)
(-0.00426037 0.00142875 0)
(-0.00488767 0.00150574 0)
(-0.00554421 0.0015732 0)
(-0.0062262 0.00163111 0)
(-0.0069299 0.00167966 0)
(-0.00765158 0.00171891 0)
(-0.00838748 0.00174906 0)
(-0.00913392 0.00177034 0)
(-0.00988732 0.001783 0)
(-0.0106442 0.0017873 0)
(-0.0114011 0.00178353 0)
(-0.0121547 0.00177197 0)
(-0.0129018 0.00175292 0)
(-0.0136394 0.00172667 0)
(-0.0143644 0.00169354 0)
(-0.0150741 0.00165386 0)
(-0.0157657 0.00160793 0)
(-0.0164366 0.00155609 0)
(-0.0170845 0.00149865 0)
(-0.0177069 0.00143592 0)
(-0.0183017 0.00136821 0)
(-0.0188668 0.00129585 0)
(-0.0194004 0.00121914 0)
(-0.0199005 0.00113839 0)
(-0.0203656 0.0010539 0)
(-0.020794 0.000966004 0)
(-0.0211844 0.000874995 0)
(-0.0215355 0.000781157 0)
(-0.0218462 0.000684778 0)
(-0.0221153 0.000586154 0)
(-0.0223421 0.000485579 0)
(-0.0225257 0.00038335 0)
(-0.0226656 0.000279768 0)
(-0.0227611 0.000175118 0)
(-0.0228121 6.97006e-05 0)
(-0.0228181 -3.61642e-05 0)
(-0.0227792 -0.000142168 0)
(-0.0226953 -0.000248005 0)
(-0.0225666 -0.000353342 0)
(-0.0223936 -0.000457832 0)
(-0.0221765 -0.000561138 0)
(-0.0219161 -0.000662916 0)
(-0.021613 -0.000762807 0)
(-0.0212682 -0.000860447 0)
(-0.0208828 -0.00095547 0)
(-0.0204578 -0.0010475 0)
(-0.0199947 -0.00113614 0)
(-0.019495 -0.00122104 0)
(-0.0189604 -0.0013018 0)
(-0.0183926 -0.00137805 0)
(-0.0177936 -0.00144938 0)
(-0.0171656 -0.00151544 0)
(-0.0165108 -0.00157586 0)
(-0.0158317 -0.00163028 0)
(-0.0151309 -0.00167833 0)
(-0.0144111 -0.00171965 0)
(-0.0136752 -0.00175389 0)
(-0.0129263 -0.00178073 0)
(-0.0121675 -0.00179984 0)
(-0.0114021 -0.00181092 0)
(-0.0106336 -0.00181366 0)
(-0.00986543 -0.00180778 0)
(-0.00910125 -0.00179304 0)
(-0.00834475 -0.00176921 0)
(-0.00759973 -0.0017361 0)
(-0.00687002 -0.00169357 0)
(-0.00615948 -0.00164152 0)
(-0.00547197 -0.00157989 0)
(-0.00481132 -0.00150871 0)
(-0.00418135 -0.00142809 0)
(-0.00358574 -0.00133823 0)
(-0.00302806 -0.00123948 0)
(-0.00251161 -0.0011323 0)
(-0.00203947 -0.00101736 0)
(-0.00161436 -0.000895585 0)
(-0.00123851 -0.000768226 0)
(-0.000913578 -0.000636956 0)
(-0.000640469 -0.000504005 0)
(-0.000419146 -0.000372345 0)
(-0.000248423 -0.000245918 0)
(-0.000125712 -0.000129963 0)
(-4.67737e-05 -3.14238e-05 0)
(-5.37648e-06 4.06698e-05 0)
(7.44151e-06 7.43751e-05 0)
(4.02197e-06 5.16676e-05 0)
(-1.90114e-06 -3.4121e-05 0)
(-1.63535e-05 -3.78897e-05 0)
(-6.17307e-05 1.50252e-05 0)
(-0.000145035 0.000120993 0)
(-0.00027385 0.000264671 0)
(-0.000454535 0.00043246 0)
(-0.000690669 0.00061438 0)
(-0.000984488 0.000802746 0)
(-0.00133679 0.000992113 0)
(-0.00174716 0.00117822 0)
(-0.00221445 0.001358 0)
(-0.00273646 0.00152909 0)
(-0.00331057 0.00168986 0)
(-0.0039337 0.00183903 0)
(-0.00460221 0.00197581 0)
(-0.00531235 0.00209961 0)
(-0.00606008 0.00221004 0)
(-0.00684123 0.00230697 0)
(-0.00765153 0.00239036 0)
(-0.00848668 0.00246024 0)
(-0.0093424 0.00251684 0)
(-0.0102144 0.00256036 0)
(-0.0110984 0.00259108 0)
(-0.0119902 0.0026093 0)
(-0.0128858 0.0026154 0)
(-0.0137811 0.00260977 0)
(-0.0146724 0.0025928 0)
(-0.0155559 0.00256491 0)
(-0.0164279 0.00252655 0)
(-0.017285 0.00247815 0)
(-0.0181239 0.00242017 0)
(-0.0189414 0.00235306 0)
(-0.0197344 0.00227728 0)
(-0.0205001 0.0021933 0)
(-0.0212357 0.00210155 0)
(-0.0219386 0.0020025 0)
(-0.0226064 0.00189663 0)
(-0.0232369 0.00178436 0)
(-0.0238279 0.00166615 0)
(-0.0243774 0.00154246 0)
(-0.0248836 0.00141374 0)
(-0.0253448 0.00128043 0)
(-0.0257595 0.00114295 0)
(-0.0261264 0.00100173 0)
(-0.0264443 0.000857229 0)
(-0.026712 0.000709879 0)
(-0.0269288 0.000560109 0)
(-0.0270937 0.000408357 0)
(-0.0272064 0.000255071 0)
(-0.0272662 0.000100699 0)
(-0.0272731 -5.43072e-05 0)
(-0.0272267 -0.000209485 0)
(-0.0271273 -0.000364364 0)
(-0.0269751 -0.000518467 0)
(-0.0267703 -0.0006713 0)
(-0.0265136 -0.000822362 0)
(-0.0262056 -0.000971147 0)
(-0.0258473 -0.00111715 0)
(-0.0254398 -0.00125983 0)
(-0.0249842 -0.00139865 0)
(-0.024482 -0.00153309 0)
(-0.0239349 -0.00166259 0)
(-0.0233445 -0.0017866 0)
(-0.0227128 -0.00190458 0)
(-0.022042 -0.00201597 0)
(-0.0213344 -0.00212021 0)
(-0.0205925 -0.00221677 0)
(-0.019819 -0.00230511 0)
(-0.0190168 -0.0023847 0)
(-0.0181888 -0.002455 0)
(-0.0173384 -0.00251551 0)
(-0.016469 -0.00256571 0)
(-0.0155839 -0.00260513 0)
(-0.0146871 -0.0026333 0)
(-0.0137823 -0.00264979 0)
(-0.0128735 -0.00265417 0)
(-0.0119649 -0.00264604 0)
(-0.0110606 -0.00262507 0)
(-0.0101649 -0.00259095 0)
(-0.00928232 -0.00254343 0)
(-0.00841717 -0.00248233 0)
(-0.00757394 -0.00240753 0)
(-0.00675707 -0.00231898 0)
(-0.00597096 -0.00221678 0)
(-0.00521997 -0.00210112 0)
(-0.00450831 -0.00197235 0)
(-0.00383998 -0.00183099 0)
(-0.00321874 -0.00167778 0)
(-0.00264802 -0.00151375 0)
(-0.00213087 -0.00134026 0)
(-0.00166981 -0.00115912 0)
(-0.00126667 -0.000972731 0)
(-0.000922501 -0.000784185 0)
(-0.000637379 -0.000597512 0)
(-0.000410221 -0.000417939 0)
(-0.00023859 -0.000252238 0)
(-0.000118461 -0.000109144 0)
(-4.39195e-05 2.36274e-07 0)
(-7.15863e-06 6.14908e-05 0)
(1.44536e-06 5.32169e-05 0)
(-4.13549e-06 -2.26966e-05 0)
(-3.13796e-05 3.74993e-06 0)
(-0.000103469 9.47895e-05 0)
(-0.000224094 0.000247254 0)
(-0.000399133 0.000443832 0)
(-0.000633742 0.00066906 0)
(-0.0009312 0.000911073 0)
(-0.00129315 0.001161 0)
(-0.00172001 0.00141196 0)
(-0.0022113 0.00165875 0)
(-0.00276535 0.00189743 0)
(-0.00337991 0.00212497 0)
(-0.00405204 0.00233908 0)
(-0.00477822 0.00253812 0)
(-0.00555463 0.0027209 0)
(-0.00637707 0.00288652 0)
(-0.00724109 0.00303455 0)
(-0.0081421 0.00316455 0)
(-0.0090754 0.00327654 0)
(-0.0100362 0.00337043 0)
(-0.0110196 0.00344646 0)
(-0.0120209 0.00350488 0)
(-0.0130354 0.00354602 0)
(-0.0140584 0.0035703 0)
(-0.0150852 0.00357815 0)
(-0.0161114 0.00357007 0)
(-0.0171326 0.0035466 0)
(-0.0181446 0.00350827 0)
(-0.0191433 0.00345569 0)
(-0.0201248 0.00338943 0)
(-0.0210853 0.00331009 0)
(-0.0220211 0.0032183 0)
(-0.0229288 0.00311467 0)
(-0.0238052 0.0029998 0)
(-0.0246471 0.00287433 0)
(-0.0254515 0.00273887 0)
(-0.0262157 0.00259404 0)
(-0.0269371 0.00244046 0)
(-0.0276133 0.00227874 0)
(-0.0282419 0.0021095 0)
(-0.028821 0.00193336 0)
(-0.0293486 0.00175091 0)
(-0.029823 0.00156274 0)
(-0.0302427 0.00136947 0)
(-0.0306062 0.00117169 0)
(-0.0309123 0.000970012 0)
(-0.0311601 0.000765037 0)
(-0.0313486 0.000557367 0)
(-0.0314772 0.000347616 0)
(-0.0315455 0.000136407 0)
(-0.0315531 -7.56337e-05 0)
(-0.0314999 -0.000287878 0)
(-0.0313859 -0.00049968 0)
(-0.0312115 -0.000710374 0)
(-0.030977 -0.000919292 0)
(-0.0306831 -0.00112576 0)
(-0.0303307 -0.00132908 0)
(-0.0299206 -0.00152856 0)
(-0.0294543 -0.00172349 0)
(-0.028933 -0.00191312 0)
(-0.0283585 -0.00209675 0)
(-0.0277324 -0.00227362 0)
(-0.027057 -0.00244301 0)
(-0.0263343 -0.00260417 0)
(-0.0255669 -0.00275633 0)
(-0.0247574 -0.00289876 0)
(-0.0239086 -0.00303072 0)
(-0.0230236 -0.00315148 0)
(-0.0221057 -0.00326032 0)
(-0.0211583 -0.00335652 0)
(-0.0201851 -0.00343938 0)
(-0.0191899 -0.00350823 0)
(-0.0181768 -0.00356243 0)
(-0.01715 -0.00360133 0)
(-0.0161137 -0.00362436 0)
(-0.0150725 -0.00363096 0)
(-0.0140311 -0.00362061 0)
(-0.0129942 -0.00359287 0)
(-0.0119666 -0.00354736 0)
(-0.0109533 -0.00348376 0)
(-0.00995915 -0.00340186 0)
(-0.00898923 -0.00330152 0)
(-0.00804848 -0.00318275 0)
(-0.00714179 -0.00304569 0)
(-0.006274 -0.00289066 0)
(-0.00544976 -0.00271819 0)
(-0.0046735 -0.00252901 0)
(-0.00394935 -0.0023242 0)
(-0.00328109 -0.00210514 0)
(-0.00267209 -0.00187373 0)
(-0.00212513 -0.0016324 0)
(-0.00164228 -0.00138425 0)
(-0.00122481 -0.0011333 0)
(-0.000873017 -0.000884623 0)
(-0.0005861 -0.000644689 0)
(-0.000361992 -0.000421701 0)
(-0.000197128 -0.000226008 0)
(-8.62254e-05 -7.05218e-05 0)
(-2.30528e-05 2.83312e-05 0)
(-1.29771e-06 4.67191e-05 0)
(-6.35394e-06 -3.5315e-06 0)
(-4.66647e-05 6.65936e-05 0)
(-0.000146545 0.000207604 0)
(-0.000306245 0.000416343 0)
(-0.000529291 0.00067437 0)
(-0.000820099 0.000964557 0)
(-0.00118087 0.00127368 0)
(-0.00161273 0.00159161 0)
(-0.00211575 0.00191025 0)
(-0.00268878 0.00222355 0)
(-0.00333008 0.00252663 0)
(-0.00403698 0.00281578 0)
(-0.0048062 0.00308819 0)
(-0.00563399 0.00334171 0)
(-0.00651615 0.0035747 0)
(-0.00744807 0.00378609 0)
(-0.00842501 0.00397511 0)
(-0.00944197 0.00414129 0)
(-0.0104938 0.00428443 0)
(-0.0115753 0.00440452 0)
(-0.0126811 0.00450168 0)
(-0.0138062 0.00457621 0)
(-0.0149452 0.00462852 0)
(-0.016093 0.00465907 0)
(-0.0172446 0.00466843 0)
(-0.0183951 0.0046572 0)
(-0.0195396 0.00462604 0)
(-0.0206734 0.00457565 0)
(-0.021792 0.00450675 0)
(-0.0228911 0.0044201 0)
(-0.0239665 0.00431647 0)
(-0.0250141 0.00419663 0)
(-0.0260301 0.00406139 0)
(-0.0270109 0.00391152 0)
(-0.027953 0.00374785 0)
(-0.0288531 0.00357115 0)
(-0.0297082 0.00338225 0)
(-0.0305153 0.00318192 0)
(-0.0312717 0.00297098 0)
(-0.0319749 0.00275023 0)
(-0.0326226 0.00252045 0)
(-0.0332127 0.00228244 0)
(-0.0337432 0.00203698 0)
(-0.0342125 0.00178485 0)
(-0.034619 0.00152686 0)
(-0.0349612 0.00126378 0)
(-0.0352382 0.000996407 0)
(-0.0354489 0.000725541 0)
(-0.0355927 0.000451989 0)
(-0.0356689 0.00017656 0)
(-0.0356772 -9.99276e-05 0)
(-0.0356175 -0.000376646 0)
(-0.03549 -0.000652749 0)
(-0.0352947 -0.000927374 0)
(-0.0350324 -0.00119965 0)
(-0.0347036 -0.0014687 0)
(-0.0343093 -0.00173362 0)
(-0.0338506 -0.00199352 0)
(-0.033329 -0.00224745 0)
(-0.0327459 -0.00249448 0)
(-0.0321033 -0.00273367 0)
(-0.0314031 -0.00296407 0)
(-0.0306475 -0.00318472 0)
(-0.0298392 -0.00339466 0)
(-0.0289808 -0.00359291 0)
(-0.0280752 -0.00377852 0)
(-0.0271257 -0.00395053 0)
(-0.0261356 -0.004108 0)
(-0.0251085 -0.00424999 0)
(-0.0240484 -0.00437557 0)
(-0.0229592 -0.00448386 0)
(-0.0218451 -0.00457399 0)
(-0.0207108 -0.00464512 0)
(-0.0195608 -0.00469645 0)
(-0.0183999 -0.00472724 0)
(-0.017233 -0.00473676 0)
(-0.0160654 -0.00472441 0)
(-0.0149021 -0.00468961 0)
(-0.0137487 -0.0046319 0)
(-0.0126104 -0.00455091 0)
(-0.0114927 -0.00444639 0)
(-0.0104011 -0.00431821 0)
(-0.00934092 -0.00416643 0)
(-0.00831762 -0.00399127 0)
(-0.00733643 -0.0037932 0)
(-0.0064024 -0.00357293 0)
(-0.00552034 -0.00333146 0)
(-0.00469475 -0.0030702 0)
(-0.00392976 -0.00279098 0)
(-0.00322905 -0.00249622 0)
(-0.00259567 -0.00218896 0)
(-0.00203201 -0.00187309 0)
(-0.00153962 -0.00155348 0)
(-0.00111915 -0.00123623 0)
(-0.000770212 -0.000928971 0)
(-0.000491283 -0.000641192 0)
(-0.000279465 -0.000384642 0)
(-0.000130323 -0.00017374 0)
(-3.94394e-05 -2.64445e-05 0)
(-4.06114e-06 3.1799e-05 0)
(-8.50203e-06 2.33845e-05 0)
(-6.20057e-05 0.000151218 0)
(-0.000190048 0.000354203 0)
(-0.000389486 0.000629548 0)
(-0.000661723 0.00095776 0)
(-0.00100979 0.00132057 0)
(-0.00143513 0.00170374 0)
(-0.00193813 0.00209582 0)
(-0.00251807 0.00248801 0)
(-0.00317356 0.00287313 0)
(-0.0039023 0.00324562 0)
(-0.00470126 0.00360109 0)
(-0.00556686 0.00393611 0)
(-0.00649499 0.00424808 0)
(-0.0074811 0.004535 0)
(-0.00852027 0.00479548 0)
(-0.00960735 0.00502843 0)
(-0.010737 0.00523335 0)
(-0.0119037 0.00540982 0)
(-0.0131017 0.00555781 0)
(-0.0143256 0.00567743 0)
(-0.0155696 0.00576899 0)
(-0.0168281 0.00583292 0)
(-0.0180956 0.00586978 0)
(-0.0193665 0.00588024 0)
(-0.0206356 0.00586501 0)
(-0.0218976 0.00582489 0)
(-0.0231475 0.00576075 0)
(-0.0243802 0.00567344 0)
(-0.0255911 0.00556391 0)
(-0.0267756 0.0054331 0)
(-0.0279293 0.00528198 0)
(-0.0290481 0.00511151 0)
(-0.0301279 0.0049227 0)
(-0.0311649 0.00471655 0)
(-0.0321556 0.00449403 0)
(-0.0330966 0.00425616 0)
(-0.0339848 0.00400394 0)
(-0.0348171 0.00373838 0)
(-0.0355908 0.00346047 0)
(-0.0363035 0.00317119 0)
(-0.0369526 0.00287156 0)
(-0.0375363 0.00256255 0)
(-0.0380525 0.00224517 0)
(-0.0384995 0.00192041 0)
(-0.038876 0.00158926 0)
(-0.0391806 0.00125273 0)
(-0.0394123 0.00091182 0)
(-0.0395703 0.000567555 0)
(-0.0396541 0.000220951 0)
(-0.0396632 -0.000126961 0)
(-0.0395975 -0.000475129 0)
(-0.0394572 -0.000822484 0)
(-0.0392424 -0.00116795 0)
(-0.0389538 -0.00151044 0)
(-0.0385921 -0.00184884 0)
(-0.0381584 -0.00218203 0)
(-0.0376539 -0.00250887 0)
(-0.0370801 -0.00282819 0)
(-0.0364387 -0.00313884 0)
(-0.0357318 -0.00343963 0)
(-0.0349615 -0.00372938 0)
(-0.0341303 -0.00400688 0)
(-0.033241 -0.00427092 0)
(-0.0322965 -0.00452032 0)
(-0.0313 -0.00475386 0)
(-0.0302551 -0.00497036 0)
(-0.0291654 -0.00516865 0)
(-0.0280349 -0.00534753 0)
(-0.0268677 -0.00550589 0)
(-0.0256684 -0.00564259 0)
(-0.0244414 -0.00575658 0)
(-0.0231918 -0.00584683 0)
(-0.0219244 -0.00591233 0)
(-0.0206446 -0.00595216 0)
(-0.0193578 -0.00596547 0)
(-0.0180694 -0.0059515 0)
(-0.0167852 -0.00590958 0)
(-0.015511 -0.00583916 0)
(-0.0142525 -0.0057398 0)
(-0.0130156 -0.00561121 0)
(-0.0118063 -0.00545332 0)
(-0.0106305 -0.0052662 0)
(-0.00949377 -0.00505021 0)
(-0.00840189 -0.00480596 0)
(-0.00736029 -0.00453435 0)
(-0.00637412 -0.0042367 0)
(-0.00544827 -0.00391477 0)
(-0.00458719 -0.00357084 0)
(-0.00379489 -0.00320784 0)
(-0.00307478 -0.00282948 0)
(-0.00242956 -0.00244035 0)
(-0.00186118 -0.00204617 0)
(-0.00137073 -0.00165402 0)
(-0.00095836 -0.00127257 0)
(-0.00062322 -0.00091242 0)
(-0.00036323 -0.00058652 0)
(-0.000174929 -0.000310479 0)
(-5.58277e-05 -0.000103366 0)
(-6.75393e-06 8.41182e-06 0)
(-1.0583e-05 5.80213e-05 0)
(-7.71742e-05 0.000257557 0)
(-0.000233365 0.000534948 0)
(-0.000472676 0.00088737 0)
(-0.00079436 0.00129468 0)
(-0.00120027 0.00173802 0)
(-0.00169078 0.00220197 0)
(-0.00226537 0.00267451 0)
(-0.0029228 0.00314572 0)
(-0.00366098 0.00360776 0)
(-0.00447715 0.00405434 0)
(-0.0053679 0.00448039 0)
(-0.00632921 0.00488194 0)
(-0.00735662 0.00525593 0)
(-0.00844522 0.0056 0)
(-0.00958978 0.00591239 0)
(-0.0107847 0.00619186 0)
(-0.0120244 0.00643761 0)
(-0.0133029 0.00664921 0)
(-0.0146143 0.00682649 0)
(-0.0159524 0.00696956 0)
(-0.0173114 0.00707874 0)
(-0.0186852 0.00715452 0)
(-0.0200679 0.00719751 0)
(-0.0214536 0.00720849 0)
(-0.0228365 0.00718829 0)
(-0.0242112 0.00713787 0)
(-0.0255721 0.00705822 0)
(-0.026914 0.00695041 0)
(-0.0282317 0.00681552 0)
(-0.0295204 0.0066547 0)
(-0.0307753 0.00646912 0)
(-0.0319919 0.00625994 0)
(-0.033166 0.00602838 0)
(-0.0342934 0.00577563 0)
(-0.0353704 0.0055029 0)
(-0.0363932 0.0052114 0)
(-0.0373584 0.00490238 0)
(-0.0382629 0.00457704 0)
(-0.0391036 0.0042366 0)
(-0.0398779 0.00388226 0)
(-0.0405832 0.00351525 0)
(-0.0412172 0.00313678 0)
(-0.041778 0.00274808 0)
(-0.0422636 0.00235036 0)
(-0.0426726 0.00194483 0)
(-0.0430035 0.00153274 0)
(-0.0432552 0.00111531 0)
(-0.0434269 0.000693792 0)
(-0.0435179 0.000269434 0)
(-0.0435279 -0.000156494 0)
(-0.0434566 -0.000582703 0)
(-0.0433043 -0.00100789 0)
(-0.0430711 -0.00143074 0)
(-0.0427577 -0.00184992 0)
(-0.042365 -0.00226409 0)
(-0.041894 -0.00267186 0)
(-0.0413461 -0.00307184 0)
(-0.0407229 -0.00346262 0)
(-0.0400263 -0.00384279 0)
(-0.0392584 -0.00421092 0)
(-0.0384216 -0.00456555 0)
(-0.0375187 -0.00490522 0)
(-0.0365525 -0.00522847 0)
(-0.0355262 -0.00553385 0)
(-0.0344434 -0.00581989 0)
(-0.0333077 -0.00608517 0)
(-0.0321232 -0.00632823 0)
(-0.0308941 -0.00654766 0)
(-0.0296249 -0.00674209 0)
(-0.0283204 -0.00691017 0)
(-0.0269856 -0.0070506 0)
(-0.0256256 -0.00716215 0)
(-0.0242459 -0.00724362 0)
(-0.0228521 -0.0072939 0)
(-0.02145 -0.00731199 0)
(-0.0200455 -0.00729698 0)
(-0.0186447 -0.0072481 0)
(-0.0172538 -0.00716468 0)
(-0.0158791 -0.00704626 0)
(-0.0145267 -0.00689252 0)
(-0.0132031 -0.00670338 0)
(-0.0119144 -0.00647902 0)
(-0.0106669 -0.00621988 0)
(-0.00946647 -0.00592674 0)
(-0.00831903 -0.00560074 0)
(-0.0072301 -0.00524348 0)
(-0.0062049 -0.0048571 0)
(-0.00524827 -0.00444434 0)
(-0.00436455 -0.00400865 0)
(-0.00355753 -0.00355434 0)
(-0.00283031 -0.00308671 0)
(-0.00218532 -0.0026123 0)
(-0.00162416 -0.00213902 0)
(-0.00114761 -0.00167648 0)
(-0.000755587 -0.00123627 0)
(-0.000446934 -0.000832301 0)
(-0.000219223 -0.000481085 0)
(-7.19186e-05 -0.000202464 0)
(-9.32645e-06 -2.33013e-05 0)
(-1.26404e-05 0.000100272 0)
(-9.2114e-05 0.000385442 0)
(-0.000276057 0.000749679 0)
(-0.000555005 0.00118972 0)
(-0.000926006 0.00168537 0)
(-0.0013897 0.00221699 0)
(-0.00194546 0.00276882 0)
(-0.00259184 0.00332785 0)
(-0.00332682 0.00388358 0)
(-0.00414768 0.00442747 0)
(-0.00505115 0.00495254 0)
(-0.00603332 0.00545317 0)
(-0.00708973 0.00592487 0)
(-0.00821552 0.0063641 0)
(-0.00940542 0.00676818 0)
(-0.0106538 0.00713498 0)
(-0.0119548 0.00746313 0)
(-0.0133024 0.00775153 0)
(-0.0146903 0.00799969 0)
(-0.0161121 0.00820737 0)
(-0.0175616 0.00837462 0)
(-0.0190323 0.00850178 0)
(-0.0205179 0.00858939 0)
(-0.0220121 0.00863815 0)
(-0.0235086 0.00864891 0)
(-0.0250015 0.00862265 0)
(-0.0264847 0.00856047 0)
(-0.0279525 0.00846353 0)
(-0.0293993 0.00833305 0)
(-0.0308196 0.00817034 0)
(-0.0322083 0.00797672 0)
(-0.0335602 0.00775356 0)
(-0.0348706 0.00750227 0)
(-0.036135 0.00722425 0)
(-0.0373489 0.00692093 0)
(-0.0385083 0.00659376 0)
(-0.0396092 0.00624417 0)
(-0.0406481 0.00587364 0)
(-0.0416214 0.00548359 0)
(-0.0425261 0.00507549 0)
(-0.0433593 0.00465077 0)
(-0.0441182 0.00421092 0)
(-0.0448004 0.00375736 0)
(-0.0454037 0.00329157 0)
(-0.0459262 0.00281499 0)
(-0.0463662 0.0023291 0)
(-0.0467222 0.00183536 0)
(-0.0469931 0.00133526 0)
(-0.047178 0.000830285 0)
(-0.0472761 0.000321933 0)
(-0.047287 -0.00018827 0)
(-0.0472105 -0.000698784 0)
(-0.0470469 -0.00120805 0)
(-0.0467963 -0.0017145 0)
(-0.0464595 -0.00221655 0)
(-0.0460373 -0.00271258 0)
(-0.045531 -0.00320093 0)
(-0.0449419 -0.00367996 0)
(-0.0442717 -0.00414799 0)
(-0.0435226 -0.00460333 0)
(-0.0426968 -0.00504427 0)
(-0.0417967 -0.00546908 0)
(-0.0408254 -0.00587603 0)
(-0.0397859 -0.00626338 0)
(-0.0386816 -0.00662941 0)
(-0.0375163 -0.00697238 0)
(-0.0362939 -0.00729057 0)
(-0.0350186 -0.00758227 0)
(-0.0336951 -0.00784582 0)
(-0.0323281 -0.00807958 0)