/*--------------------------------*- C++ -*----------------------------------*\
  =========                 |
  \\      /  F ield         | OpenFOAM: The Open Source CFD Toolbox
   \\    /   O peration     | Website:  https://openfoam.org
    \\  /    A nd           | Version:  11
     \\/     M anipulation  |
\*---------------------------------------------------------------------------*/
FoamFile
{
    format      ascii;
    class       surfaceScalarField;
    location    "0.1";
    object      phi;
}
// * * * * * * * * * * * * * * * * * * * * * * * * * * * * * * * * * * * * * //

dimensions      [0 3 -1 0 0 0 0];

internalField   nonuniform List<scalar> 
19980
(
-7.08761e-06
7.08803e-06
-2.53566e-05
1.8269e-05
-4.43608e-05
1.90039e-05
-6.31272e-05
1.87663e-05
-8.15088e-05
1.8382e-05
-9.95376e-05
1.80292e-05
-0.000117291
1.7753e-05
-0.000134879
1.7588e-05
-0.000152422
1.75425e-05
-0.000170011
1.75894e-05
-0.000187684
1.76729e-05
-0.00020541
1.7726e-05
-0.000223102
1.76917e-05
-0.00024064
1.75379e-05
-0.000257902
1.72627e-05
-0.000274794
1.68918e-05
-0.000291263
1.64687e-05
-0.000307306
1.60433e-05
-0.000322965
1.56584e-05
-0.000338302
1.53378e-05
-0.000353379
1.50769e-05
-0.000368221
1.48419e-05
-0.000382801
1.45798e-05
-0.000397037
1.42363e-05
-0.000410815
1.3778e-05
-0.000424023
1.32084e-05
-0.000436594
1.25703e-05
-0.000448527
1.19332e-05
-0.000459895
1.13685e-05
-0.000470818
1.09232e-05
-0.00048142
1.06017e-05
-0.000491782
1.03623e-05
-0.000501915
1.01322e-05
-0.000511747
9.83271e-06
-0.000521155
9.40765e-06
-0.000529997
8.84193e-06
-0.000538161
8.16397e-06
-0.000545591
7.43029e-06
-0.000552291
6.69949e-06
-0.000558298
6.0069e-06
-0.000563648
5.35061e-06
-0.000568346
4.69742e-06
-0.000572355
4.00937e-06
-0.000575631
3.27566e-06
-0.000578157
2.52543e-06
-0.000579973
1.81657e-06
-0.000581191
1.21782e-06
-0.000581969
7.77943e-07
-0.000582439
4.70419e-07
-0.000582621
1.81465e-07
-0.000582424
-1.97064e-07
-0.00058173
-6.93576e-07
-0.000580412
-1.3181e-06
-0.000578335
-2.07701e-06
-0.000575497
-2.8384e-06
-0.000572099
-3.39816e-06
-0.00056829
-3.80865e-06
-0.000563967
-4.32322e-06
-0.000559046
-4.92127e-06
-0.000553665
-5.3806e-06
-0.000547836
-5.82955e-06
-0.000541315
-6.52087e-06
-0.000534148
-7.16739e-06
-0.000526742
-7.40543e-06
-0.000519084
-7.6578e-06
-0.000510601
-8.4829e-06
-0.000501117
-9.48474e-06
-0.00049111
-1.0007e-05
-0.000480781
-1.03284e-05
-0.000469797
-1.09843e-05
-0.00045818
-1.16175e-05
-0.00044646
-1.17201e-05
-0.000434706
-1.1754e-05
-0.000422378
-1.23277e-05
-0.000409367
-1.30108e-05
-0.00039623
-1.31367e-05
-0.000383145
-1.30857e-05
-0.000369519
-1.36251e-05
-0.000354967
-1.45521e-05
-0.000339868
-1.50996e-05
-0.000324601
-1.52664e-05
-0.000308909
-1.56919e-05
-0.000292457
-1.64522e-05
-0.0002755
-1.69574e-05
-0.000258496
-1.70042e-05
-0.000241421
-1.70745e-05
-0.000223972
-1.74492e-05
-0.000206243
-1.7729e-05
-0.000188689
-1.7554e-05
-0.000171406
-1.72827e-05
-0.000153936
-1.74705e-05
-0.000135985
-1.79511e-05
-0.000117905
-1.80801e-05
-0.000100064
-1.78404e-05
-8.21871e-05
-1.78772e-05
-6.37437e-05
-1.84433e-05
-4.46151e-05
-1.91287e-05
-2.55569e-05
-1.90583e-05
-7.76011e-06
-1.77967e-05
-7.76018e-06
-1.66572e-05
2.37452e-05
-4.82312e-05
4.98435e-05
-8.17855e-05
5.25584e-05
-0.000115124
5.21038e-05
-0.000148364
5.16214e-05
-0.000181474
5.11396e-05
-0.000214412
5.06912e-05
-0.000247127
5.03027e-05
-0.000279563
4.99788e-05
-0.000311669
4.96951e-05
-0.0003434
4.94042e-05
-0.000374725
4.90507e-05
-0.000405621
4.85883e-05
-0.000436076
4.79929e-05
-0.000466079
4.72654e-05
-0.000495616
4.64286e-05
-0.000524666
4.55192e-05
-0.0005532
4.45772e-05
-0.000581178
4.36364e-05
-0.000608555
4.27148e-05
-0.000635286
4.18082e-05
-0.000661334
4.08902e-05
-0.000686674
3.99196e-05
-0.000711293
3.88556e-05
-0.00073519
3.76742e-05
-0.000758362
3.63805e-05
-0.000780801
3.50101e-05
-0.000802487
3.36191e-05
-0.000823383
3.22644e-05
-0.000843443
3.09832e-05
-0.00086262
2.97786e-05
-0.000880876
2.86184e-05
-0.00089819
2.74456e-05
-0.000914556
2.61987e-05
-0.000929982
2.48337e-05
-0.000944479
2.33382e-05
-0.000958049
2.1734e-05
-0.000970683
2.0065e-05
-0.000982363
1.83785e-05
-0.000993061
1.67057e-05
-0.00100276
1.50514e-05
-0.00101146
1.33951e-05
-0.00101916
1.17091e-05
-0.00102587
9.98627e-06
-0.0010316
8.25094e-06
-0.00103632
6.54465e-06
-0.00104002
4.91326e-06
-0.00104264
3.4004e-06
-0.00104418
2.00378e-06
-0.00104463
6.32706e-07
-0.00104401
-8.17932e-07
-0.00104234
-2.35853e-06
-0.00103969
-3.96825e-06
-0.00103608
-5.68589e-06
-0.00103146
-7.45775e-06
-0.00102579
-9.06823e-06
-0.00101912
-1.04839e-05
-0.00101146
-1.19767e-05
-0.00100276
-1.36215e-05
-0.000992998
-1.51468e-05
-0.000982282
-1.65461e-05
-0.00097066
-1.81423e-05
-0.000957992
-1.98358e-05
-0.000944217
-2.11801e-05
-0.000929541
-2.2334e-05
-0.000914112
-2.39118e-05
-0.000897761
-2.58358e-05
-0.000880349
-2.74191e-05
-0.0008621
-2.85779e-05
-0.000843215
-2.98693e-05
-0.000823459
-3.13741e-05
-0.000802571
-3.26083e-05
-0.000780798
-3.35268e-05
-0.000758504
-3.46219e-05
-0.000735523
-3.59917e-05
-0.000711476
-3.71835e-05
-0.000686509
-3.80518e-05
-0.000661108
-3.90267e-05
-0.000635291
-4.03685e-05
-0.000608636
-4.17553e-05
-0.000581071
-4.28309e-05
-0.000553053
-4.37109e-05
-0.000524817
-4.4688e-05
-0.000496027
-4.57468e-05
-0.000466385
-4.66468e-05
-0.000436145
-4.73138e-05
-0.000405717
-4.7877e-05
-0.000375054
-4.83925e-05
-0.000343798
-4.88094e-05
-0.000311879
-4.92018e-05
-0.00027965
-4.97002e-05
-0.000247424
-5.0177e-05
-0.000215051
-5.04526e-05
-0.000182196
-5.06957e-05
-0.000148977
-5.10958e-05
-0.000115681
-5.174e-05
-8.28977e-05
-5.19116e-05
-4.96127e-05
-5.23434e-05
-1.79567e-05
-4.94527e-05
-2.57169e-05
-1.84604e-05
4.22053e-05
-5.15779e-05
8.29611e-05
-8.65891e-05
8.75705e-05
-0.000121586
8.71007e-05
-0.00015654
8.6575e-05
-0.000191397
8.59961e-05
-0.00022609
8.53841e-05
-0.000260545
8.47584e-05
-0.00029469
8.41236e-05
-0.00032846
8.34645e-05
-0.000361805
8.27496e-05
-0.000394697
8.19426e-05
-0.000427123
8.10144e-05
-0.00045908
7.99507e-05
-0.000490569
7.87543e-05
-0.000521582
7.7441e-05
-0.000552097
7.60343e-05
-0.000582079
7.45592e-05
-0.000611479
7.30363e-05
-0.000640241
7.14772e-05
-0.000668313
6.98806e-05
-0.000695655
6.82322e-05
-0.000722245
6.65088e-05
-0.000748076
6.46874e-05
-0.000773157
6.27544e-05
-0.00079749
6.07144e-05
-0.00082107
5.85902e-05
-0.000843869
5.64174e-05
-0.000865837
5.42327e-05
-0.000886914
5.20607e-05
-0.000907042
4.99057e-05
-0.000926173
4.775e-05
-0.000944288
4.55605e-05
-0.00096139
4.33004e-05
-0.000977499
4.09422e-05
-0.000992637
3.84771e-05
-0.00100682
3.59176e-05
-0.00102005
3.32911e-05
-0.0010323
3.06287e-05
-0.00104355
2.79545e-05
-0.00105377
2.5278e-05
-0.00106297
2.25922e-05
-0.00107114
1.988e-05
-0.00107829
1.71343e-05
-0.00108441
1.43707e-05
-0.00108948
1.1615e-05
-0.00109346
8.89215e-06
-0.0010963
6.23707e-06
-0.00109796
3.67122e-06
-0.00109847
1.14283e-06
-0.00109785
-1.43586e-06
-0.00109614
-4.07244e-06
-0.00109337
-6.7347e-06
-0.00108959
-9.47176e-06
-0.00108476
-1.22821e-05
-0.00107885
-1.49815e-05
-0.00107183
-1.75034e-05
-0.00106373
-2.00742e-05
-0.00105458
-2.27714e-05
-0.00104437
-2.53637e-05
-0.00103306
-2.78499e-05
-0.00102072
-3.04875e-05
-0.0010074
-3.31569e-05
-0.000993056
-3.5522e-05
-0.000977617
-3.77725e-05
-0.000961206
-4.03228e-05
-0.000944033
-4.30096e-05
-0.000926021
-4.54308e-05
-0.000906919
-4.76798e-05
-0.00088679
-4.99994e-05
-0.000865935
-5.22292e-05
-0.000844314
-5.42291e-05
-0.000821576
-5.62647e-05
-0.000797742
-5.84561e-05
-0.000773268
-6.04652e-05
-0.000748292
-6.21597e-05
-0.000722399
-6.39449e-05
-0.000695388
-6.60373e-05
-0.000667719
-6.80381e-05
-0.000639832
-6.96416e-05
-0.000611476
-7.11872e-05
-0.000582146
-7.30403e-05
-0.000551931
-7.49037e-05
-0.000521395
-7.62824e-05
-0.00049073
-7.73119e-05
-0.0004595
-7.85436e-05
-0.000427351
-8.00258e-05
-0.000394546
-8.11969e-05
-0.000361553
-8.18033e-05
-0.000328415
-8.23393e-05
-0.00029487
-8.32455e-05
-0.000260784
-8.42628e-05
-0.00022626
-8.49765e-05
-0.000191665
-8.52908e-05
-0.000157167
-8.55941e-05
-0.000122393
-8.65136e-05
-8.72982e-05
-8.70068e-05
-5.23695e-05
-8.72717e-05
-1.90949e-05
-8.27274e-05
-4.48119e-05
-1.85749e-05
6.07801e-05
-5.19889e-05
0.000116374
-8.71082e-05
0.00012269
-0.00012219
0.000122183
-0.000157189
0.000121575
-0.000192059
0.000120866
-0.000226746
0.000120071
-0.000261195
0.000119207
-0.000295349
0.000118278
-0.000329156
0.000117272
-0.000362572
0.000116166
-0.000395565
0.000114936
-0.000428113
0.000113562
-0.0004602
0.000112038
-0.000491813
0.000110367
-0.000522934
0.000108562
-0.000553537
0.000106637
-0.000583587
0.00010461
-0.000613045
0.000102494
-0.000641866
0.000100298
-0.000670009
9.80236e-05
-0.000697439
9.56619e-05
-0.000724129
9.31993e-05
-0.000750064
9.0622e-05
-0.000775233
8.79231e-05
-0.000799626
8.5108e-05
-0.00082323
8.21946e-05
-0.000846022
7.92094e-05
-0.000867968
7.61787e-05
-0.000889028
7.31204e-05
-0.000909161
7.00383e-05
-0.000928332
6.69214e-05
-0.00094652
6.37487e-05
-0.000963717
6.0497e-05
-0.000979925
5.71499e-05
-0.000995151
5.37032e-05
-0.0010094
5.01675e-05
-0.00102267
4.65639e-05
-0.00103496
4.29154e-05
-0.00104625
3.92391e-05
-0.00105651
3.5543e-05
-0.00106574
3.18241e-05
-0.00107393
2.80684e-05
-0.00108106
2.42681e-05
-0.00108713
2.04402e-05
-0.00109213
1.66139e-05
-0.00109605
1.28054e-05
-0.00109885
9.03817e-06
-0.00110052
5.34804e-06
-0.00110109
1.70808e-06
-0.00110054
-1.98097e-06
-0.00109888
-5.74033e-06
-0.00109612
-9.49534e-06
-0.00109231
-1.32743e-05
-0.00108745
-1.71461e-05
-0.00108148
-2.09549e-05
-0.00107443
-2.45523e-05
-0.00106634
-2.81569e-05
-0.00105717
-3.19473e-05
-0.00104686
-3.56691e-05
-0.00103553
-3.91866e-05
-0.00102323
-4.2788e-05
-0.00100989
-4.64932e-05
-0.000995488
-4.99234e-05
-0.000980121
-5.31402e-05
-0.000963819
-5.6624e-05
-0.000946511
-6.03184e-05
-0.000928231
-6.37104e-05
-0.000909118
-6.67935e-05
-0.000889139
-6.9978e-05
-0.000868134
-7.32345e-05
-0.000846142
-7.62205e-05
-0.000823386
-7.90211e-05
-0.00079988
-8.19619e-05
-0.000775418
-8.49277e-05
-0.000750005
-8.75725e-05
-0.000723947
-9.00028e-05
-0.000697366
-9.26184e-05
-0.000669994
-9.54095e-05
-0.000641665
-9.79711e-05
-0.000612684
-0.000100168
-0.000583422
-0.000102302
-0.00055375
-0.000104576
-0.000523237
-0.000106796
-0.000491828
-0.000108721
-0.000459986
-0.000110385
-0.000428084
-0.000111928
-0.000395902
-0.000113379
-0.00036294
-0.000114765
-0.000329175
-0.000116105
-0.00029516
-0.00011726
-0.000261231
-0.000118192
-0.000227191
-0.000119016
-0.000192779
-0.000119703
-0.000157365
-0.000121008
-0.000122559
-0.00012132
-8.7558e-05
-0.000122008
-5.26752e-05
-0.000122155
-1.8797e-05
-0.000116606
-6.3609e-05
-1.88144e-05
7.9595e-05
-5.23879e-05
0.000149947
-8.76249e-05
0.000157926
-0.000122816
0.000157374
-0.000157905
0.000156664
-0.000192848
0.000155808
-0.000227601
0.000154824
-0.000262118
0.000153724
-0.000296353
0.000152512
-0.000330257
0.000151176
-0.000363788
0.000149698
-0.000396913
0.00014806
-0.000429604
0.000146253
-0.000461838
0.000144272
-0.000493593
0.000142123
-0.000524845
0.000139814
-0.000555564
0.000137356
-0.000585717
0.000134763
-0.000615267
0.000132044
-0.000644177
0.000129208
-0.000672411
0.000126258
-0.000699937
0.000123188
-0.000726728
0.00011999
-0.000752762
0.000116656
-0.000778021
0.000113182
-0.00080249
0.000109578
-0.000826154
0.000105859
-0.000848992
0.000102047
-0.000870976
9.81636e-05
-0.000892078
9.42218e-05
-0.000912263
9.02241e-05
-0.000931504
8.61624e-05
-0.000949778
8.2022e-05
-0.00096707
7.77887e-05
-0.000983374
7.34538e-05
-0.000998689
6.90183e-05
-0.00101302
6.44937e-05
-0.00102635
5.9899e-05
-0.00103869
5.52523e-05
-0.00105001
5.05643e-05
-0.00106031
4.58385e-05
-0.00106956
4.10737e-05
-0.00107775
3.626e-05
-0.00108487
3.13888e-05
-0.00109091
2.64806e-05
-0.00109587
2.15774e-05
-0.00109976
1.6695e-05
-0.00110256
1.18339e-05
-0.00110424
7.03127e-06
-0.00110483
2.2916e-06
-0.00110431
-2.49532e-06
-0.00110266
-7.39019e-06
-0.00109988
-1.22736e-05
-0.00109605
-1.71049e-05
-0.00109118
-2.20214e-05
-0.00108518
-2.69514e-05
-0.00107808
-3.16546e-05
-0.00106996
-3.62757e-05
-0.00106078
-4.11238e-05
-0.00105045
-4.60016e-05
-0.00103905
-5.05887e-05
-0.00102673
-5.5104e-05
-0.00101344
-5.97827e-05
-0.000999029
-6.43376e-05
-0.000983555
-6.86147e-05
-0.000967192
-7.29875e-05
-0.000949907
-7.76031e-05
-0.000931565
-8.20529e-05
-0.000912241
-8.61167e-05
-0.000892135
-9.00844e-05
-0.000871205
-9.4165e-05
-0.000849223
-9.82018e-05
-0.000826205
-0.000102039
-0.000802463
-0.000105704
-0.000778142
-0.000109249
-0.000752982
-0.000112732
-0.000726742
-0.000116242
-0.000699647
-0.000119713
-0.000672125
-0.000122932
-0.000644192
-0.000125904
-0.000615438
-0.000128921
-0.000585669
-0.000132071
-0.000555263
-0.000134982
-0.000524687
-0.000137372
-0.000493859
-0.000139549
-0.000462304
-0.00014194
-0.000429846
-0.000144386
-0.00039683
-0.000146395
-0.000363679
-0.000147915
-0.000330483
-0.000149302
-0.000296911
-0.000150832
-0.000262572
-0.000152531
-0.000227752
-0.000153836
-0.00019285
-0.000154605
-0.000158303
-0.000155555
-0.000123275
-0.000156349
-8.79591e-05
-0.000157323
-5.26281e-05
-0.000157486
-1.91048e-05
-0.000150129
-8.27137e-05
-1.90079e-05
9.86032e-05
-5.27521e-05
0.000183691
-8.8143e-05
0.000193317
-0.000123477
0.000192709
-0.000158703
0.00019189
-0.000193779
0.000190885
-0.000228667
0.000189712
-0.000263325
0.000188381
-0.000297705
0.000186892
-0.000331762
0.000185233
-0.000365453
0.000183389
-0.000398743
0.00018135
-0.000431601
0.000179111
-0.000464
0.000176671
-0.000495914
0.000174036
-0.000527313
0.000171213
-0.000558168
0.000168211
-0.000588445
0.00016504
-0.000618112
0.000161711
-0.000647137
0.000158233
-0.000675486
0.000154607
-0.000703128
0.000150831
-0.000730037
0.000146898
-0.000756186
0.000142805
-0.000781557
0.000138553
-0.000806131
0.000134152
-0.000829891
0.000129619
-0.000852817
0.000124973
-0.000874886
0.000120233
-0.000896071
0.000115407
-0.000916344
0.000110497
-0.000935677
0.000105496
-0.000954048
0.000100392
-0.000971438
9.51791e-05
-0.000987838
8.98538e-05
-0.00100324
8.44225e-05
-0.00101765
7.88984e-05
-0.00103105
7.32994e-05
-0.00104344
6.76415e-05
-0.0010548
6.19297e-05
-0.00106513
5.61616e-05
-0.00107439
5.03378e-05
-0.00108259
4.44568e-05
-0.00108971
3.85106e-05
-0.00109574
3.25171e-05
-0.0011007
2.65334e-05
-0.00110459
2.05857e-05
-0.0011074
1.4644e-05
-0.00110909
8.7233e-06
-0.00110967
2.87038e-06
-0.00110916
-3.00672e-06
-0.00110752
-9.02984e-06
-0.00110472
-1.507e-05
-0.00110085
-2.09765e-05
-0.00109596
-2.69096e-05
-0.00108997
-3.29411e-05
-0.00108283
-3.87949e-05
-0.00107465
-4.44653e-05
-0.00106545
-5.03228e-05
-0.00105513
-5.63138e-05
-0.0010437
-6.20207e-05
-0.0010313
-6.75069e-05
-0.00101797
-7.3113e-05
-0.00100358
-7.87308e-05
-0.00098805
-8.41404e-05
-0.000971511
-8.95267e-05
-0.000954095
-9.50197e-05
-0.000935788
-0.00010036
-0.000916488
-0.000105416
-0.000896174
-0.000110398
-0.000874963
-0.000115377
-0.000852967
-0.000120197
-0.000830135
-0.000124872
-0.00080633
-0.000129509
-0.00078159
-0.000133989
-0.000756144
-0.000138178
-0.000730102
-0.000142285
-0.000703275
-0.00014654
-0.000675475
-0.000150732
-0.000646867
-0.000154511
-0.000617826
-0.000157963
-0.000588452
-0.000161445
-0.000558438
-0.000164996
-0.000527483
-0.000168327
-0.000495753
-0.000171279
-0.000463749
-0.000173944
-0.000431697
-0.000176438
-0.000399234
-0.000178858
-0.000365935
-0.000181214
-0.000331915
-0.000183322
-0.000297564
-0.000185183
-0.000263257
-0.000186838
-0.000229198
-0.000187895
-0.000194129
-0.000189673
-0.000159063
-0.000190622
-0.000123471
-0.000191941
-8.87173e-05
-0.000192076
-5.3086e-05
-0.000193117
-1.94087e-05
-0.000183807
-0.000102122
-1.91318e-05
0.000117735
-5.30828e-05
0.000217643
-8.86784e-05
0.000228913
-0.000124205
0.000228235
-0.000159622
0.000227307
-0.000194893
0.000226156
-0.000229979
0.000224797
-0.000264834
0.000223236
-0.00029941
0.000221468
-0.000333661
0.000219484
-0.000367545
0.000217273
-0.000401026
0.000214831
-0.000434072
0.000212157
-0.000466656
0.000209254
-0.000498746
0.000206127
-0.000530314
0.000202781
-0.00056133
0.000199226
-0.000591762
0.000195472
-0.00062158
0.00019153
-0.000650754
0.000187406
-0.000679252
0.000183105
-0.000707043
0.000178622
-0.000734098
0.000173954
-0.000760392
0.000169099
-0.000785902
0.000164063
-0.000810608
0.000158859
-0.000834493
0.000153503
-0.000857535
0.000148016
-0.000879715
0.000142412
-0.000901007
0.000136699
-0.000921384
0.000130874
-0.00094082
0.000124932
-0.000959293
0.000118865
-0.000976784
0.000112669
-0.000993279
0.000106349
-0.00100877
9.99156e-05
-0.00102326
9.33832e-05
-0.00103673
8.6769e-05
-0.00104917
8.00879e-05
-0.00106059
7.33421e-05
-0.00107095
6.65225e-05
-0.00108024
5.96294e-05
-0.00108846
5.26745e-05
-0.0010956
4.56559e-05
-0.00110166
3.85794e-05
-0.00110664
3.15076e-05
-0.00111054
2.44915e-05
-0.00111338
1.74781e-05
-0.00111509
1.04319e-05
-0.00111565
3.43468e-06
-0.00111512
-3.53933e-06
-0.00111348
-1.06658e-05
-0.00111068
-1.78683e-05
-0.00110677
-2.48873e-05
-0.00110185
-3.18308e-05
-0.00109587
-3.8924e-05
-0.00108872
-4.5944e-05
-0.00108046
-5.27217e-05
-0.0010712
-5.9589e-05
-0.00106087
-6.66368e-05
-0.00104944
-7.34524e-05
-0.00103697
-7.9975e-05
-0.00102352
-8.65662e-05
-0.00100903
-9.3222e-05
-0.000993471
-9.96995e-05
-0.000976887
-0.00010611
-0.000959325
-0.000112581
-0.000940841
-0.000118844
-0.000921489
-0.000124767
-0.000901223
-0.000130665
-0.000879919
-0.000136681
-0.000857616
-0.0001425
-0.000834554
-0.000147934
-0.000810831
-0.000153232
-0.00078623
-0.000158591
-0.000760544
-0.000163863
-0.000733958
-0.000168871
-0.000706852
-0.000173646
-0.000679292
-0.000178292
-0.000650953
-0.00018285
-0.000621608
-0.000187307
-0.000591489
-0.000191564
-0.000561011
-0.000195474
-0.00053027
-0.000199068
-0.000498998
-0.000202552
-0.000466947
-0.000205996
-0.000434131
-0.000209254
-0.000400795
-0.000212194
-0.000367306
-0.000214703
-0.000333766
-0.000216861
-0.000299786
-0.000219163
-0.000265215
-0.000221409
-0.00023005
-0.00022306
-0.000194944
-0.000224778
-0.000159921
-0.000225645
-0.000124686
-0.000227177
-8.90055e-05
-0.000227757
-5.34184e-05
-0.000228704
-1.9402e-05
-0.000217823
-0.000121525
-1.92263e-05
0.000136961
-5.34232e-05
0.00025184
-8.92722e-05
0.000264762
-0.000125045
0.000264008
-0.000160708
0.000262971
-0.000196226
0.000261674
-0.000231555
0.000260126
-0.000266645
0.000258327
-0.00030145
0.000256273
-0.000335923
0.000253956
-0.000370024
0.000251375
-0.000403721
0.000248527
-0.000436981
0.000245418
-0.000469775
0.000242048
-0.000502073
0.000238424
-0.000533844
0.000234552
-0.000565058
0.00023044
-0.000595686
0.0002261
-0.000625698
0.000221541
-0.000655062
0.000216771
-0.000683748
0.00021179
-0.000711722
0.000206596
-0.000738954
0.000201186
-0.000765417
0.000195562
-0.000791087
0.000189733
-0.000815944
0.000183716
-0.00083997
0.000177529
-0.000863146
0.000171192
-0.000885452
0.000164718
-0.000906863
0.00015811
-0.000927355
0.000151366
-0.000946903
0.00014448
-0.000965484
0.000137446
-0.000983079
0.000130265
-0.000999675
0.000122945
-0.00101526
0.000115504
-0.00102984
0.000107957
-0.00104339
0.00010032
-0.00105591
9.2605e-05
-0.00106738
8.48165e-05
-0.0010778
7.69401e-05
-0.00108714
6.89707e-05
-0.0010954
6.09339e-05
-0.00110259
5.2844e-05
-0.0011087
4.46904e-05
-0.00111371
3.65199e-05
-0.00111763
2.84153e-05
-0.00112048
2.03294e-05
-0.00112221
1.21581e-05
-0.00112276
3.98531e-06
-0.00112219
-4.10987e-06
-0.00112054
-1.23135e-05
-0.00111776
-2.06563e-05
-0.00111382
-2.8819e-05
-0.00110886
-3.67966e-05
-0.00110286
-4.4926e-05
-0.0010957
-5.31036e-05
-0.00108739
-6.10292e-05
-0.00107805
-6.89297e-05
-0.00106767
-7.7016e-05
-0.00105619
-8.49319e-05
-0.00104366
-9.25084e-05
-0.00103011
-0.000100109
-0.0010155
-0.000107839
-0.000999794
-0.000115402
-0.000983126
-0.000122778
-0.000965555
-0.000130152
-0.000947004
-0.000137396
-0.000927438
-0.000144333
-0.000906957
-0.000151146
-0.000885625
-0.000158013
-0.000863376
-0.000164749
-0.000840152
-0.000171158
-0.000816029
-0.000177354
-0.000791137
-0.000183483
-0.000765506
-0.000189494
-0.000739062
-0.000195315
-0.000711742
-0.000200966
-0.000683606
-0.000206428
-0.000654834
-0.000211622
-0.00062558
-0.000216561
-0.000595801
-0.000221342
-0.000565266
-0.00022601
-0.000533853
-0.000230481
-0.000501811
-0.000234593
-0.000469523
-0.000238284
-0.00043701
-0.000241767
-0.000403985
-0.000245219
-0.000370316
-0.000248372
-0.000336004
-0.000251172
-0.000301267
-0.0002539
-0.00026673
-0.000255946
-0.000231724
-0.000258066
-0.000196757
-0.000259746
-0.000160734
-0.000261668
-0.000125407
-0.000262503
-8.93503e-05
-0.000263814
-5.3672e-05
-0.000264383
-1.92207e-05
-0.000252274
-0.000140745
-1.93439e-05
0.000156305
-5.38231e-05
0.000286319
-8.99664e-05
0.000300905
-0.000126031
0.000300073
-0.000161984
0.000298925
-0.000197785
0.000297475
-0.000233386
0.000295727
-0.000268738
0.000293679
-0.000303796
0.00029133
-0.000338517
0.000288677
-0.000372866
0.000285724
-0.000406811
0.000282473
-0.000440321
0.000278928
-0.000473365
0.000275092
-0.000505911
0.00027097
-0.000537927
0.000266568
-0.000569383
0.000261896
-0.000600249
0.000256966
-0.000630494
0.000251786
-0.000660084
0.000246362
-0.000688987
0.000240693
-0.000717169
0.000234778
-0.000744599
0.000228615
-0.000771248
0.000222212
-0.000797095
0.00021558
-0.00082212
0.00020874
-0.000846304
0.000201714
-0.000869631
0.000194519
-0.00089208
0.000187167
-0.000913629
0.000179659
-0.000934253
0.00017199
-0.000953929
0.000164155
-0.000972633
0.00015615
-0.000990348
0.00014798
-0.00100706
0.000139656
-0.00102276
0.000131202
-0.00103743
0.000122635
-0.00105108
0.000113967
-0.00106368
0.000105209
-0.00107524
9.63673e-05
-0.00108572
8.74291e-05
-0.00109513
7.83788e-05
-0.00110345
6.92487e-05
-0.00111068
6.00806e-05
-0.00111685
5.08547e-05
-0.00112191
4.15772e-05
-0.00112584
3.23531e-05
-0.00112869
2.31797e-05
-0.00113043
1.38927e-05
-0.00113097
4.52892e-06
-0.00113036
-4.71968e-06
-0.00112869
-1.39853e-05
-0.00112592
-2.34314e-05
-0.00112198
-3.27562e-05
-0.00111697
-4.18094e-05
-0.00111092
-5.09678e-05
-0.00110374
-6.02886e-05
-0.00109537
-6.93954e-05
-0.00108595
-7.83538e-05
-0.00107551
-8.74544e-05
-0.00106397
-9.64708e-05
-0.00105133
-0.000105154
-0.00103766
-0.000113779
-0.00102296
-0.000122535
-0.00100718
-0.000131178
-0.000990377
-0.000139584
-0.000972658
-0.000147871
-0.000954043
-0.000156011
-0.000934443
-0.000163934
-0.000913799
-0.00017179
-0.00089218
-0.000179633
-0.000869719
-0.000187209
-0.000846472
-0.000194405
-0.000822342
-0.000201484
-0.00079721
-0.000208615
-0.000771146
-0.000215559
-0.000744389
-0.000222071
-0.000717077
-0.000228279
-0.000689067
-0.000234437
-0.000660163
-0.000240527
-0.000630418
-0.000246306
-0.000600088
-0.000251673
-0.000569315
-0.000256783
-0.000538036
-0.000261759
-0.000506166
-0.000266463
-0.000473648
-0.000270802
-0.000440445
-0.00027497
-0.00040674
-0.000278923
-0.000372818
-0.000282295
-0.000338597
-0.000285394
-0.000303996
-0.0002885
-0.000268973
-0.000290969
-0.000233394
-0.000293646
-0.000197888
-0.000295252
-0.000162056
-0.000297501
-0.000126315
-0.000298245
-9.00721e-05
-0.000300057
-5.39687e-05
-0.000300486
-1.93413e-05
-0.000286902
-0.000160087
-1.95064e-05
0.000175811
-5.43013e-05
0.000321114
-9.07739e-05
0.000337378
-0.000127167
0.000336466
-0.000163441
0.000335199
-0.000199552
0.000333585
-0.000235452
0.000331626
-0.000271094
0.000329321
-0.000306438
0.000326673
-0.000341446
0.000323685
-0.000376085
0.000320363
-0.000410324
0.000316711
-0.000444128
0.000312732
-0.000477464
0.000308428
-0.000510297
0.000303803
-0.000542596
0.000298866
-0.000574327
0.000293628
-0.000605461
0.000288099
-0.000635964
0.000282289
-0.000665802
0.0002762
-0.000694942
0.000269833
-0.000723349
0.000263185
-0.000750993
0.00025626
-0.000777849
0.000249067
-0.000803895
0.000241626
-0.000829112
0.000233958
-0.000853483
0.000226086
-0.000876991
0.000218027
-0.000899615
0.000209791
-0.000921331
0.000201375
-0.000942114
0.000192774
-0.000961941
0.000183982
-0.000980789
0.000174998
-0.000998641
0.000165831
-0.00101548
0.000156497
-0.0010313
0.000147022
-0.00104609
0.000137427
-0.00105985
0.000127722
-0.00107255
0.000117909
-0.00108418
0.000108001
-0.00109475
9.79929e-05
-0.00110423
8.78591e-05
-0.0011126
7.76239e-05
-0.00111988
6.73613e-05
-0.00112609
5.70629e-05
-0.00113119
4.66779e-05
-0.00113514
3.63034e-05
-0.00113798
2.60148e-05
-0.00113971
1.5626e-05
-0.00114026
5.07901e-06
-0.00113963
-5.35397e-06
-0.00113793
-1.56854e-05
-0.00113516
-2.61942e-05
-0.00113123
-3.66846e-05
-0.00112617
-4.68717e-05
-0.00112006
-5.70747e-05
-0.00111285
-6.75071e-05
-0.00110443
-7.7809e-05
-0.00109491
-8.78759e-05
-0.00108438
-9.7986e-05
-0.00107279
-0.00010806
-0.00106007
-0.000117871
-0.00104626
-0.000127594
-0.00103141
-0.000137382
-0.00101556
-0.000147027
-0.000998722
-0.000156424
-0.000980887
-0.000165706
-0.00096205
-0.000174848
-0.000942241
-0.000183743
-0.000921502
-0.000192529
-0.000899822
-0.000201312
-0.000877171
-0.00020986
-0.000853586
-0.00021799
-0.000829161
-0.00022591
-0.000803937
-0.000233839
-0.000777884
-0.000241612
-0.000750978
-0.000248976
-0.000723253
-0.000256004
-0.000694783
-0.000262908
-0.000665665
-0.000269645
-0.000635967
-0.000276003
-0.000605636
-0.000282004
-0.000574538
-0.000287881
-0.000542692
-0.000293605
-0.000510308
-0.000298846
-0.000477498
-0.000303613
-0.0004442
-0.000308267
-0.000410455
-0.000312668
-0.000376252
-0.000316498
-0.000341461
-0.000320184
-0.000306437
-0.000323525
-0.000271055
-0.000326351
-0.000235657
-0.000329044
-0.000199631
-0.000331278
-0.000163783
-0.000333349
-0.00012732
-0.000334709
-9.11104e-05
-0.000336266
-5.44871e-05
-0.000337109
-1.9819e-05
-0.00032157
-0.000179906
-1.96981e-05
0.000195509
-5.48405e-05
0.000356256
-9.16782e-05
0.000374216
-0.000128432
0.00037322
-0.000165059
0.000371826
-0.000201512
0.000370038
-0.000237747
0.000367861
-0.000273722
0.000365296
-0.000309399
0.000362351
-0.000344745
0.000359031
-0.000379724
0.000355342
-0.000414302
0.000351288
-0.00044844
0.00034687
-0.000482101
0.000342089
-0.00051525
0.000336953
-0.000547854
0.00033147
-0.000579881
0.000325655
-0.0006113
0.000319518
-0.000642078
0.000313067
-0.000672181
0.000306303
-0.000701576
0.000299227
-0.00073023
0.000291839
-0.000758115
0.000284145
-0.000785208
0.00027616
-0.000811488
0.000267905
-0.000836936
0.000259406
-0.000861533
0.000250683
-0.00088526
0.000241754
-0.000908092
0.000232623
-0.000930006
0.000223288
-0.000950974
0.000213742
-0.000970972
0.000203979
-0.000989978
0.000194005
-0.00100798
0.000183832
-0.00102496
0.000173478
-0.00104091
0.000162971
-0.00105582
0.000152339
-0.00106969
0.000141588
-0.00108249
0.000130711
-0.00109421
0.00011972
-0.00110485
0.000108631
-0.0011144
9.74128e-05
-0.00112284
8.60652e-05
-0.00113017
7.46857e-05
-0.00113641
6.33064e-05
-0.00114155
5.18222e-05
-0.00114553
4.02778e-05
-0.00114835
2.88369e-05
-0.00115008
1.73547e-05
-0.00115065
5.65403e-06
-0.00115002
-5.984e-06
-0.0011483
-1.74123e-05
-0.00114553
-2.89591e-05
-0.00114162
-4.05976e-05
-0.00113652
-5.19737e-05
-0.00113032
-6.32731e-05
-0.00112303
-7.47932e-05
-0.00111458
-8.62577e-05
-0.001105
-9.74636e-05
-0.00109435
-0.000108628
-0.00108266
-0.000119754
-0.00106987
-0.000130661
-0.00105598
-0.000141487
-0.001041
-0.000152357
-0.001025
-0.000163034
-0.00100803
-0.000173394
-0.0009901
-0.000183631
-0.00097114
-0.000193809
-0.000951101
-0.000203782
-0.000930076
-0.000213554
-0.000908186
-0.000223202
-0.000885436
-0.00023261
-0.000861742
-0.000241685
-0.000837069
-0.000250582
-0.000811497
-0.000259411
-0.000785149
-0.00026796
-0.000758083
-0.000276043
-0.000730249
-0.000283838
-0.000701583
-0.000291575
-0.000672123
-0.000299105
-0.000641983
-0.000306143
-0.000611211
-0.000312777
-0.000579788
-0.000319303
-0.000547777
-0.000325616
-0.000515252
-0.000331372
-0.000482137
-0.000336727
-0.000448417
-0.000341987
-0.000414292
-0.000346793
-0.000379775
-0.000351015
-0.000344817
-0.000355143
-0.00030962
-0.000358722
-0.000273863
-0.000362108
-0.000238057
-0.000364849
-0.00020154
-0.000367795
-0.000165445
-0.000369444
-0.000128541
-0.000371613
-9.21426e-05
-0.000372664
-5.51233e-05
-0.000374129
-2.01669e-05
-0.000356526
-0.000200073
-1.98933e-05
0.000215403
-5.54175e-05
0.00039178
-9.26611e-05
0.000411459
-0.000129814
0.000410373
-0.000166832
0.000408844
-0.000203672
0.000406878
-0.000240292
0.00040448
-0.000276652
0.000401657
-0.000312717
0.000398415
-0.00034845
0.000394763
-0.000383811
0.000390704
-0.000418761
0.000386238
-0.00045326
0.000381368
-0.000487269
0.000376098
-0.000520753
0.000370437
-0.000553681
0.000364398
-0.000586023
0.000357997
-0.000617748
0.000351243
-0.000648823
0.000344142
-0.000679217
0.000336697
-0.000708897
0.000328907
-0.000737833
0.000320774
-0.000765997
0.000312309
-0.000793366
0.000303529
-0.000819919
0.000294458
-0.000845635
0.000285122
-0.000870492
0.000275541
-0.000894466
0.000265728
-0.00091753
0.000255687
-0.000939657
0.000245416
-0.000960822
0.000234906
-0.000980999
0.000224157
-0.00100017
0.000213177
-0.00101833
0.000201987
-0.00103545
0.000190606
-0.00105154
0.00017906
-0.00106658
0.000167379
-0.00108057
0.000155575
-0.00109349
0.000143628
-0.00110531
0.00013154
-0.00111603
0.00011935
-0.00112566
0.000107045
-0.00113418
9.45861e-05
-0.00114156
8.20666e-05
-0.00114784
6.95852e-05
-0.00115303
5.70132e-05
-0.00115705
4.42976e-05
-0.00115988
3.16641e-05
-0.0011616
1.90775e-05
-0.00116221
6.26053e-06
-0.00116161
-6.58237e-06
-0.00115986
-1.91576e-05
-0.00115707
-3.17556e-05
-0.00115314
-4.4519e-05
-0.00114801
-5.71077e-05
-0.00114172
-6.95617e-05
-0.00113434
-8.21792e-05
-0.00112582
-9.477e-05
-0.00111618
-0.000107102
-0.00110546
-0.00011935
-0.00109365
-0.000131563
-0.00108074
-0.000143579
-0.00106673
-0.000155494
-0.00105166
-0.000167427
-0.00103553
-0.000179159
-0.00101838
-0.000190545
-0.00100024
-0.000201778
-0.000981073
-0.000212972
-0.000960867
-0.000223988
-0.000939666
-0.000234755
-0.000917549
-0.000245319
-0.000894533
-0.000255626
-0.000870587
-0.000265631
-0.000845714
-0.000275455
-0.00081998
-0.000285146
-0.000793436
-0.000294503
-0.000766075
-0.000303404
-0.000737862
-0.000312051
-0.000708832