/*--------------------------------*- C++ -*----------------------------------*\
  =========                 |
  \\      /  F ield         | OpenFOAM: The Open Source CFD Toolbox
   \\    /   O peration     | Website:  https://openfoam.org
    \\  /    A nd           | Version:  11
     \\/     M anipulation  |
\*---------------------------------------------------------------------------*/
FoamFile
{
    format      ascii;
    class       volVectorField;
    location    "0.1";
    object      U;
}
// * * * * * * * * * * * * * * * * * * * * * * * * * * * * * * * * * * * * * //

dimensions      [0 1 -1 0 0 0 0];

internalField   nonuniform List<vector> 
10100
(
(-3.52703e-05 4.7375e-05 0)
(-0.000153911 9.68054e-05 0)
(-0.000344291 9.5089e-05 0)
(-0.000536822 9.38335e-05 0)
(-0.00072199 9.22636e-05 0)
(-0.00090421 9.05309e-05 0)
(-0.00108383 8.86916e-05 0)
(-0.0012615 8.69787e-05 0)
(-0.00143806 8.56381e-05 0)
(-0.00161432 8.48047e-05 0)
(-0.00179077 8.44465e-05 0)
(-0.00196746 8.43822e-05 0)
(-0.00214394 8.43547e-05 0)
(-0.00231938 8.41186e-05 0)
(-0.00249277 8.35035e-05 0)
(-0.00266319 8.24401e-05 0)
(-0.00282998 8.09572e-05 0)
(-0.00299288 7.91642e-05 0)
(-0.00315199 7.72244e-05 0)
(-0.00330764 7.53156e-05 0)
(-0.00346023 7.3577e-05 0)
(-0.00360997 7.20535e-05 0)
(-0.00375677 7.06651e-05 0)
(-0.00390017 6.92209e-05 0)
(-0.00403944 6.74855e-05 0)
(-0.00417377 6.5274e-05 0)
(-0.00430253 6.25373e-05 0)
(-0.00442549 5.9399e-05 0)
(-0.0045429 5.61247e-05 0)
(-0.00465544 5.30334e-05 0)
(-0.00476396 5.03854e-05 0)
(-0.00486918 4.8288e-05 0)
(-0.00497142 4.66574e-05 0)
(-0.00507049 4.52478e-05 0)
(-0.0051657 4.37418e-05 0)
(-0.0052561 4.18633e-05 0)
(-0.00534071 3.94726e-05 0)
(-0.00541877 3.66063e-05 0)
(-0.00548987 3.34474e-05 0)
(-0.00555388 3.02304e-05 0)
(-0.00561086 2.7117e-05 0)
(-0.00566086 2.41139e-05 0)
(-0.00570385 2.10991e-05 0)
(-0.00573982 1.79201e-05 0)
(-0.00576886 1.44777e-05 0)
(-0.00579128 1.08211e-05 0)
(-0.00580763 7.27482e-06 0)
(-0.00581884 4.33557e-06 0)
(-0.00582578 2.20037e-06 0)
(-0.0058287 5.60351e-07 0)
(-0.00582736 -9.066e-07 0)
(-0.00582163 -2.38049e-06 0)
(-0.005811 -4.57752e-06 0)
(-0.00579399 -8.32652e-06 0)
(-0.00576981 -1.27935e-05 0)
(-0.00573979 -1.61553e-05 0)
(-0.00570481 -1.87309e-05 0)
(-0.00566336 -2.22229e-05 0)
(-0.00561539 -2.55999e-05 0)
(-0.00556408 -2.68165e-05 0)
(-0.00550968 -2.81961e-05 0)
(-0.00544784 -3.2912e-05 0)
(-0.00537831 -3.7546e-05 0)
(-0.00530641 -3.73608e-05 0)
(-0.00523194 -3.62531e-05 0)
(-0.00514833 -4.04944e-05 0)
(-0.00505563 -4.66564e-05 0)
(-0.00496077 -4.80893e-05 0)
(-0.0048633 -4.81276e-05 0)
(-0.00475588 -5.34325e-05 0)
(-0.00463962 -6.00334e-05 0)
(-0.00452366 -6.00909e-05 0)
(-0.00440918 -5.70374e-05 0)
(-0.00428837 -5.98619e-05 0)
(-0.00415932 -6.68796e-05 0)
(-0.00402871 -6.88558e-05 0)
(-0.00389893 -6.52368e-05 0)
(-0.00376424 -6.45746e-05 0)
(-0.00362119 -6.9989e-05 0)
(-0.00347324 -7.52859e-05 0)
(-0.00332305 -7.60483e-05 0)
(-0.00316802 -7.5559e-05 0)
(-0.00300604 -7.79186e-05 0)
(-0.00283961 -8.20275e-05 0)
(-0.00267156 -8.47958e-05 0)
(-0.00250123 -8.57814e-05 0)
(-0.00232753 -8.63064e-05 0)
(-0.00215222 -8.67367e-05 0)
(-0.00197745 -8.66707e-05 0)
(-0.00180273 -8.66496e-05 0)
(-0.00162672 -8.78763e-05 0)
(-0.00144926 -8.94756e-05 0)
(-0.00127033 -8.80937e-05 0)
(-0.00109049 -8.41854e-05 0)
(-0.000910793 -8.43898e-05 0)
(-0.000727908 -8.91232e-05 0)
(-0.000539047 -9.19953e-05 0)
(-0.000348979 -9.1948e-05 0)
(-0.00016092 -8.80221e-05 0)
(-4.5913e-05 -4.2536e-05 0)
(-7.84823e-05 0.000145882 0)
(-0.000309647 0.000333546 0)
(-0.000647322 0.000349139 0)
(-0.000981284 0.000345455 0)
(-0.00131495 0.000341226 0)
(-0.00164745 0.000336984 0)
(-0.00197913 0.000332972 0)
(-0.00230915 0.000329546 0)
(-0.00263646 0.000326923 0)
(-0.0029601 0.000325044 0)
(-0.00327937 0.000323571 0)
(-0.00359398 0.000321999 0)
(-0.00390394 0.00031983 0)
(-0.00420944 0.000316713 0)
(-0.00451069 0.000312512 0)
(-0.00480785 0.000307315 0)
(-0.00510088 0.000301374 0)
(-0.00538953 0.000295038 0)
(-0.00567325 0.000288653 0)
(-0.00595126 0.00028247 0)
(-0.00622267 0.000276554 0)
(-0.00648671 0.000270739 0)
(-0.00674295 0.000264665 0)
(-0.00699141 0.0002579 0)
(-0.00723251 0.000250109 0)
(-0.00746684 0.000241211 0)
(-0.00769482 0.000231449 0)
(-0.00791642 0.00022133 0)
(-0.0081311 0.000211461 0)
(-0.00833787 0.000202335 0)
(-0.00853558 0.000194149 0)
(-0.00872327 0.000186731 0)
(-0.00890048 0.000179602 0)
(-0.00906733 0.000172153 0)
(-0.00922444 0.000163861 0)
(-0.00937259 0.000154475 0)
(-0.00951236 0.000144083 0)
(-0.00964379 0.000133038 0)
(-0.00976635 0.000121784 0)
(-0.00987916 0.000110646 0)
(-0.0099814 9.96835e-05 0)
(-0.0100728 8.86828e-05 0)
(-0.0101536 7.733e-05 0)
(-0.0102247 6.54779e-05 0)
(-0.0102871 5.33047e-05 0)
(-0.0103408 4.12753e-05 0)
(-0.0103852 3.00337e-05 0)
(-0.010419 2.01745e-05 0)
(-0.0104409 1.17327e-05 0)
(-0.0104499 3.8976e-06 0)
(-0.0104466 -4.36622e-06 0)
(-0.010433 -1.35721e-05 0)
(-0.0104107 -2.40164e-05 0)
(-0.0103796 -3.59734e-05 0)
(-0.0103396 -4.85671e-05 0)
(-0.0102903 -5.98853e-05 0)
(-0.0102297 -6.96724e-05 0)
(-0.0101559 -7.97773e-05 0)
(-0.0100715 -9.06074e-05 0)
(-0.00998012 -0.000100578 0)
(-0.00987987 -0.000110078 0)
(-0.00976779 -0.000121049 0)
(-0.0096461 -0.000132068 0)
(-0.00951571 -0.000140065 0)
(-0.00937209 -0.00014692 0)
(-0.00921597 -0.000157273 0)
(-0.0090559 -0.000170387 0)
(-0.0088929 -0.000181578 0)
(-0.00871794 -0.000190376 0)
(-0.00852926 -0.000199756 0)
(-0.00833452 -0.000209264 0)
(-0.00813408 -0.000216392 0)
(-0.00792119 -0.000222561 0)
(-0.0076981 -0.00023071 0)
(-0.00747244 -0.000239337 0)
(-0.00724032 -0.000245352 0)
(-0.00699281 -0.000250358 0)
(-0.00673507 -0.00025804 0)
(-0.00647929 -0.000267644 0)
(-0.00622256 -0.000275708 0)
(-0.00595177 -0.000282319 0)
(-0.00566785 -0.000290226 0)
(-0.00538516 -0.000299054 0)
(-0.00510656 -0.000305562 0)
(-0.00481845 -0.000309348 0)
(-0.00451457 -0.000313685 0)
(-0.00420699 -0.000319798 0)
(-0.00390559 -0.000324177 0)
(-0.00360176 -0.000324 0)
(-0.00328372 -0.000322752 0)
(-0.00295642 -0.000325905 0)
(-0.00263261 -0.000331499 0)
(-0.00231342 -0.000332885 0)
(-0.00198996 -0.000331492 0)
(-0.00165582 -0.000332952 0)
(-0.00131754 -0.00033735 0)
(-0.000986955 -0.000346363 0)
(-0.000663846 -0.000344313 0)
(-0.000329464 -0.000325195 0)
(-9.06687e-05 -0.000158088 0)
(-8.81114e-05 0.000332902 0)
(-0.000338321 0.000664493 0)
(-0.000686931 0.000701752 0)
(-0.00103719 0.000696524 0)
(-0.00138829 0.000690429 0)
(-0.00173837 0.000683885 0)
(-0.00208765 0.000677335 0)
(-0.00243507 0.000671209 0)
(-0.00277941 0.000665741 0)
(-0.00311963 0.000660863 0)
(-0.00345506 0.000656211 0)
(-0.00378544 0.000651243 0)
(-0.00411088 0.000645415 0)
(-0.00443164 0.000638325 0)
(-0.004748 0.000629789 0)
(-0.00506015 0.000619849 0)
(-0.00536807 0.000608719 0)
(-0.00567143 0.00059672 0)
(-0.00596959 0.000584189 0)
(-0.00626161 0.000571392 0)
(-0.00654653 0.000558442 0)
(-0.00682353 0.000545249 0)
(-0.00709228 0.000531549 0)
(-0.00735292 0.000516998 0)
(-0.00760603 0.000501321 0)
(-0.00785226 0.000484454 0)
(-0.00809202 0.000466613 0)
(-0.00832515 0.000448253 0)
(-0.00855092 0.000429933 0)
(-0.00876812 0.000412128 0)
(-0.00897546 0.000395062 0)
(-0.00917193 0.00037863 0)
(-0.00935716 0.000362426 0)
(-0.00953144 0.000345881 0)
(-0.0096956 0.000328448 0)
(-0.00985057 0.000309775 0)
(-0.00999698 0.000289802 0)
(-0.0101348 0.000268748 0)
(-0.0102635 0.000246992 0)
(-0.0103819 0.000224926 0)
(-0.0104894 0.000202804 0)
(-0.0105855 0.00018066 0)
(-0.0106709 0.000158394 0)
(-0.0107465 0.000135975 0)
(-0.0108131 0.000113539 0)
(-0.0108708 9.13317e-05 0)
(-0.0109185 6.97181e-05 0)
(-0.0109547 4.91733e-05 0)
(-0.0109781 2.97433e-05 0)
(-0.010988 1.05666e-05 0)
(-0.0109847 -9.31523e-06 0)
(-0.0109709 -3.00306e-05 0)
(-0.0109487 -5.17767e-05 0)
(-0.0109171 -7.52641e-05 0)
(-0.0108746 -9.94889e-05 0)
(-0.0108222 -0.000121692 0)
(-0.010759 -0.000141812 0)
(-0.0106811 -0.000162648 0)
(-0.0105904 -0.000183848 0)
(-0.0104945 -0.000202682 0)
(-0.010392 -0.000221253 0)
(-0.010274 -0.000243211 0)
(-0.0101421 -0.000264867 0)
(-0.0100047 -0.000281422 0)
(-0.00985791 -0.000297812 0)
(-0.00969362 -0.000320351 0)
(-0.0095213 -0.000344325 0)
(-0.00935193 -0.000363086 0)
(-0.00917403 -0.000380526 0)
(-0.00897368 -0.000401715 0)
(-0.00876143 -0.000421458 0)
(-0.00855197 -0.000434573 0)
(-0.00833668 -0.000447093 0)
(-0.00810189 -0.000465459 0)
(-0.007855 -0.000484382 0)
(-0.00760874 -0.000496629 0)
(-0.00735733 -0.000506364 0)
(-0.00708998 -0.000521917 0)
(-0.00681273 -0.000541818 0)
(-0.00653718 -0.00055814 0)
(-0.00625959 -0.00056953 0)
(-0.00596917 -0.000581751 0)
(-0.0056679 -0.000597185 0)
(-0.0053662 -0.000611628 0)
(-0.00506478 -0.000621749 0)
(-0.00475524 -0.00062962 0)
(-0.00443509 -0.000638045 0)
(-0.00411027 -0.000645925 0)
(-0.00378433 -0.000651518 0)
(-0.00345462 -0.000656878 0)
(-0.00311839 -0.000664034 0)
(-0.00277694 -0.000670197 0)
(-0.00243435 -0.000673689 0)
(-0.00209072 -0.000677089 0)
(-0.00174327 -0.000681024 0)
(-0.00139752 -0.000691734 0)
(-0.00104331 -0.000690385 0)
(-0.000693938 -0.000698377 0)
(-0.000351814 -0.000656251 0)
(-9.4719e-05 -0.000352215 0)
(-8.93055e-05 0.00051391 0)
(-0.000341383 0.000996916 0)
(-0.000691919 0.00105152 0)
(-0.00104346 0.00104559 0)
(-0.00139532 0.00103861 0)
(-0.00174568 0.00103096 0)
(-0.0020948 0.00102305 0)
(-0.00244179 0.00101519 0)
(-0.0027857 0.0010075 0)
(-0.00312578 0.000999784 0)
(-0.00346156 0.000991653 0)
(-0.00379284 0.000982599 0)
(-0.0041196 0.000972169 0)
(-0.00444193 0.000960078 0)
(-0.00475988 0.000946247 0)
(-0.00507345 0.000930789 0)
(-0.0053825 0.000913955 0)
(-0.00568667 0.000896066 0)
(-0.00598534 0.000877434 0)
(-0.00627773 0.000858287 0)
(-0.00656302 0.000838698 0)
(-0.00684059 0.000818562 0)
(-0.00711019 0.000797639 0)
(-0.00737195 0.000775644 0)
(-0.00762627 0.000752387 0)
(-0.00787358 0.000727873 0)
(-0.00811405 0.000702341 0)
(-0.00834741 0.000676203 0)
(-0.00857293 0.000649922 0)
(-0.00878962 0.00062385 0)
(-0.00899645 0.000598107 0)
(-0.00919272 0.000572535 0)
(-0.00937824 0.00054675 0)
(-0.00955333 0.000520263 0)
(-0.00971869 0.000492634 0)
(-0.00987502 0.000463614 0)
(-0.0100227 0.000433213 0)
(-0.0101615 0.000401675 0)
(-0.0102907 0.000369371 0)
(-0.0104094 0.000336676 0)
(-0.0105169 0.000303871 0)
(-0.0106132 0.000271059 0)
(-0.0106986 0.000238192 0)
(-0.0107741 0.000205264 0)
(-0.0108405 0.000172456 0)
(-0.0108977 0.000139986 0)
(-0.0109447 0.000107963 0)
(-0.01098 7.65952e-05 0)
(-0.0110029 4.60315e-05 0)
(-0.0110133 1.56041e-05 0)
(-0.0110111 -1.58647e-05 0)
(-0.010998 -4.84592e-05 0)
(-0.0109767 -8.14049e-05 0)
(-0.0109462 -0.000114994 0)
(-0.0109033 -0.000149421 0)
(-0.0108484 -0.000182422 0)
(-0.0107838 -0.000212464 0)
(-0.0107071 -0.000242292 0)
(-0.0106164 -0.000274027 0)
(-0.0105183 -0.000304933 0)
(-0.0104159 -0.00033358 0)
(-0.0103007 -0.000363491 0)
(-0.0101678 -0.000395475 0)
(-0.0100265 -0.000425018 0)
(-0.00988058 -0.000451687 0)
(-0.00972202 -0.000481279 0)
(-0.00955024 -0.000515075 0)
(-0.0093747 -0.000546818 0)
(-0.00919419 -0.000573217 0)
(-0.0089977 -0.000598457 0)
(-0.00878605 -0.000625868 0)
(-0.00857042 -0.000652901 0)
(-0.00835205 -0.000676773 0)
(-0.00812232 -0.000699063 0)
(-0.00787892 -0.000722312 0)
(-0.00762717 -0.000746193 0)
(-0.00736996 -0.000769087 0)
(-0.00710682 -0.0007909 0)
(-0.00683762 -0.000812687 0)
(-0.00656058 -0.000834883 0)
(-0.00627315 -0.000856903 0)
(-0.00597868 -0.000877708 0)
(-0.00568408 -0.000896319 0)
(-0.00538796 -0.000912602 0)
(-0.0050809 -0.00092795 0)
(-0.00476096 -0.000943943 0)
(-0.00443845 -0.00095961 0)
(-0.00412037 -0.000971995 0)
(-0.00379989 -0.000981013 0)
(-0.00346691 -0.000990427 0)
(-0.00312244 -0.0010017 0)
(-0.00277828 -0.00101278 0)
(-0.002441 -0.00102261 0)
(-0.00210121 -0.0010278 0)
(-0.00175542 -0.00103271 0)
(-0.00139371 -0.00104127 0)
(-0.00104493 -0.00104539 0)
(-0.000702408 -0.00104756 0)
(-0.000348227 -0.000998106 0)
(-9.30369e-05 -0.000542202 0)
(-9.07601e-05 0.000701946 0)
(-0.000344607 0.0013319 0)
(-0.000697278 0.00140291 0)
(-0.00105009 0.00139686 0)
(-0.00140291 0.00138954 0)
(-0.00175393 0.00138119 0)
(-0.00210342 0.00137207 0)
(-0.00245062 0.00136239 0)
(-0.00279482 0.00135214 0)
(-0.00313547 0.00134114 0)
(-0.00347224 0.00132903 0)
(-0.00380493 0.0013154 0)
(-0.00413341 0.00129996 0)
(-0.00445756 0.00128258 0)
(-0.00477729 0.00126327 0)
(-0.00509244 0.00124222 0)
(-0.00540279 0.0012197 0)
(-0.00570795 0.001196 0)
(-0.00600737 0.00117139 0)
(-0.00630035 0.00114604 0)
(-0.00658625 0.00112 0)
(-0.00686459 0.00109314 0)
(-0.00713519 0.00106523 0)
(-0.00739817 0.00103605 0)
(-0.0076538 0.00100544 0)
(-0.00790231 0.000973423 0)
(-0.00814369 0.000940221 0)
(-0.00837757 0.000906178 0)
(-0.00860327 0.000871659 0)
(-0.00881994 0.000836926 0)
(-0.00902677 0.000802047 0)
(-0.00922329 0.000766869 0)
(-0.00940943 0.000731076 0)
(-0.00958556 0.000694293 0)
(-0.00975224 0.000656212 0)
(-0.00990999 0.000616696 0)
(-0.0100589 0.000575833 0)
(-0.0101987 0.000533907 0)
(-0.0103285 0.000491293 0)
(-0.0104474 0.000448339 0)
(-0.010555 0.000405296 0)
(-0.0106512 0.000362266 0)
(-0.0107367 0.000319174 0)
(-0.0108122 0.000275921 0)
(-0.0108784 0.000232635 0)
(-0.0109353 0.000189558 0)
(-0.0109819 0.000146725 0)
(-0.0110166 0.000104166 0)
(-0.0110391 6.21304e-05 0)
(-0.0110499 2.03451e-05 0)
(-0.0110488 -2.23107e-05 0)
(-0.0110364 -6.61565e-05 0)
(-0.0110152 -0.000110071 0)
(-0.0109851 -0.000153779 0)
(-0.0109421 -0.00019801 0)
(-0.0108853 -0.000241474 0)
(-0.0108189 -0.000282345 0)
(-0.0107427 -0.000322535 0)
(-0.0106531 -0.000364636 0)
(-0.010554 -0.000406888 0)
(-0.0104506 -0.000447185 0)
(-0.0103359 -0.00048741 0)
(-0.0102036 -0.000528642 0)
(-0.010061 -0.000568571 0)
(-0.00991417 -0.000607053 0)
(-0.009757 -0.000646975 0)
(-0.00958684 -0.000688265 0)
(-0.00941007 -0.000727889 0)
(-0.00922567 -0.00076512 0)
(-0.00902633 -0.000801128 0)
(-0.00881587 -0.000835868 0)
(-0.00860287 -0.000869759 0)
(-0.00838284 -0.000904549 0)
(-0.00814742 -0.00093924 0)
(-0.00790213 -0.000970245 0)
(-0.00765552 -0.000998142 0)
(-0.00740204 -0.00102828 0)
(-0.00713358 -0.00106194 0)
(-0.00685671 -0.00109324 0)
(-0.00658139 -0.00111846 0)
(-0.00630242 -0.00114228 0)
(-0.00600859 -0.00117006 0)
(-0.0057028 -0.00119888 0)
(-0.00539783 -0.00122224 0)
(-0.00509612 -0.00124051 0)
(-0.0047869 -0.00125963 0)
(-0.00446314 -0.0012809 0)
(-0.00413168 -0.00129967 0)
(-0.00380276 -0.00131426 0)
(-0.0034753 -0.00132763 0)
(-0.00314074 -0.00134112 0)
(-0.00279786 -0.00135454 0)
(-0.00244937 -0.00136506 0)
(-0.00210082 -0.00137035 0)
(-0.00175674 -0.00138568 0)
(-0.0014102 -0.00138349 0)
(-0.0010496 -0.00139976 0)
(-0.000699591 -0.00139557 0)
(-0.000354519 -0.00133571 0)
(-9.3682e-05 -0.000732071 0)
(-9.2144e-05 0.000890668 0)
(-0.000347442 0.00166748 0)
(-0.000702517 0.00175519 0)
(-0.00105682 0.00174921 0)
(-0.00141099 0.0017415 0)
(-0.00176315 0.00173227 0)
(-0.00211361 0.00172172 0)
(-0.00246172 0.00170995 0)
(-0.00280694 0.00169694 0)
(-0.0031489 0.00168246 0)
(-0.0034873 0.00166623 0)
(-0.0038219 0.00164799 0)
(-0.00415243 0.00162759 0)
(-0.00447862 0.00160503 0)
(-0.00480023 0.00158045 0)
(-0.00511702 0.00155407 0)
(-0.00542873 0.00152614 0)
(-0.00573498 0.00149691 0)
(-0.0060353 0.00146658 0)
(-0.00632912 0.00143522 0)
(-0.00661593 0.00140281 0)
(-0.00689536 0.00136918 0)
(-0.00716727 0.00133413 0)
(-0.00743174 0.00129746 0)
(-0.0076889 0.0012591 0)
(-0.0079388 0.00121914 0)
(-0.0081813 0.00117783 0)
(-0.00841597 0.00113551 0)
(-0.00864218 0.00109248 0)
(-0.00885923 0.00104891 0)
(-0.00906651 0.0010048 0)
(-0.00926369 0.000960003 0)
(-0.00945081 0.000914231 0)
(-0.0096282 0.000867221 0)
(-0.00979629 0.00081881 0)
(-0.0099554 0.000769007 0)
(-0.0101055 0.000718007 0)
(-0.010246 0.000666145 0)
(-0.0103763 0.000613772 0)
(-0.0104954 0.000561136 0)
(-0.010603 0.000508353 0)
(-0.0106993 0.000455429 0)
(-0.010785 0.00040223 0)
(-0.0108607 0.000348574 0)
(-0.0109269 0.000294569 0)
(-0.0109837 0.000240593 0)
(-0.0110301 0.000186746 0)
(-0.0110646 0.000132906 0)
(-0.0110867 7.93655e-05 0)
(-0.0110977 2.62249e-05 0)
(-0.0110976 -2.75893e-05 0)
(-0.0110858 -8.26858e-05 0)
(-0.0110643 -0.000137613 0)
(-0.0110341 -0.000191595 0)
(-0.010991 -0.000246003 0)
(-0.0109327 -0.000300327 0)
(-0.0108649 -0.00035222 0)
(-0.0107894 -0.00040329 0)
(-0.0107008 -0.000456893 0)
(-0.0106008 -0.000510952 0)
(-0.0104965 -0.000562068 0)
(-0.0103821 -0.000612545 0)
(-0.010249 -0.000664591 0)
(-0.0101049 -0.000715044 0)
(-0.00995898 -0.000762945 0)
(-0.00980323 -0.000812645 0)
(-0.00963115 -0.000864481 0)
(-0.00945156 -0.000913014 0)
(-0.00926743 -0.000957281 0)
(-0.00906845 -0.00100226 0)
(-0.00885468 -0.00104906 0)
(-0.0086391 -0.00109354 0)
(-0.00842153 -0.00113475 0)
(-0.00818802 -0.00117597 0)
(-0.00793782 -0.00121769 0)
(-0.0076852 -0.00125708 0)
(-0.00743376 -0.00129393 0)
(-0.00717178 -0.00133093 0)
(-0.00689413 -0.00136825 0)
(-0.00660961 -0.00140344 0)
(-0.00632476 -0.00143606 0)
(-0.00603528 -0.00146798 0)
(-0.00573626 -0.0014993 0)
(-0.00542958 -0.00152831 0)
(-0.00511828 -0.00155504 0)
(-0.00480135 -0.00158078 0)
(-0.00447849 -0.00160491 0)
(-0.00415373 -0.00162628 0)
(-0.00382785 -0.00164546 0)
(-0.00349377 -0.00166226 0)
(-0.00314936 -0.0016772 0)
(-0.00280222 -0.00169291 0)
(-0.00245681 -0.00170454 0)
(-0.00212184 -0.00171671 0)
(-0.00176855 -0.00172755 0)
(-0.00140779 -0.00173885 0)
(-0.00105701 -0.00174023 0)
(-0.000708355 -0.0017511 0)
(-0.000357584 -0.00166744 0)
(-9.76097e-05 -0.000923543 0)
(-9.31712e-05 0.00108107 0)
(-0.000349761 0.00200554 0)
(-0.000707503 0.00211006 0)
(-0.00106379 0.00210387 0)
(-0.00141984 0.00209541 0)
(-0.00177371 0.00208489 0)
(-0.00212574 0.00207251 0)
(-0.0024754 0.00205836 0)
(-0.00282232 0.00204237 0)
(-0.00316618 0.00202435 0)
(-0.00350672 0.0020041 0)
(-0.00384357 0.00198148 0)
(-0.00417636 0.00195648 0)
(-0.0045047 0.00192918 0)
(-0.00482825 0.00189977 0)
(-0.00514675 0.00186844 0)
(-0.00545995 0.00183539 0)
(-0.00576752 0.00180077 0)
(-0.00606906 0.00176467 0)
(-0.00636412 0.00172712 0)
(-0.00665229 0.00168801 0)
(-0.00693327 0.00164719 0)
(-0.00720692 0.00160451 0)
(-0.0074732 0.00155986 0)
(-0.00773212 0.0015133 0)
(-0.00798357 0.00146502 0)
(-0.00822731 0.00141532 0)
(-0.00846293 0.00136452 0)
(-0.00868988 0.00131285 0)
(-0.00890761 0.00126039 0)
(-0.00911567 0.0012071 0)
(-0.00931386 0.00115276 0)
(-0.00950221 0.00109716 0)
(-0.00968098 0.00104015 0)
(-0.00985046 0.000981712 0)
(-0.0100108 0.000921998 0)
(-0.0101618 0.000861282 0)
(-0.0103029 0.0007999 0)
(-0.0104335 0.000738127 0)
(-0.0105529 0.000676053 0)
(-0.0106607 0.000613596 0)
(-0.0107573 0.000550645 0)
(-0.0108435 0.000487062 0)
(-0.0109199 0.000422646 0)
(-0.0109864 0.000357503 0)
(-0.0110431 0.000292233 0)
(-0.0110896 0.000227152 0)
(-0.011124 0.000161925 0)
(-0.0111458 9.6719e-05 0)
(-0.0111568 3.21624e-05 0)
(-0.0111577 -3.26241e-05 0)
(-0.0111464 -9.8937e-05 0)
(-0.0111241 -0.000165193 0)
(-0.0110935 -0.000229534 0)
(-0.0110508 -0.000293967 0)
(-0.0109915 -0.00035969 0)
(-0.0109218 -0.000423545 0)
(-0.0108474 -0.000485395 0)
(-0.0107607 -0.000549867 0)
(-0.0106592 -0.00061629 0)
(-0.0105522 -0.000678919 0)
(-0.0104384 -0.000738361 0)
(-0.0103061 -0.000799775 0)
(-0.0101593 -0.000862009 0)
(-0.0100118 -0.000920922 0)
(-0.00985854 -0.000978566 0)
(-0.00968721 -0.00103844 0)
(-0.00950287 -0.00109771 0)
(-0.00931491 -0.0011526 0)
(-0.00911811 -0.00120538 0)
(-0.00890715 -0.00125986 0)
(-0.00868857 -0.00131502 0)
(-0.00846527 -0.00136748 0)
(-0.00823037 -0.00141641 0)
(-0.00798323 -0.00146344 0)
(-0.00773176 -0.00151035 0)
(-0.00747589 -0.00155764 0)
(-0.0072079 -0.0016037 0)
(-0.00692923 -0.00164614 0)
(-0.0066492 -0.00168537 0)
(-0.00636696 -0.00172468 0)
(-0.00607183 -0.00176527 0)
(-0.00576313 -0.00180393 0)
(-0.00545356 -0.00183798 0)
(-0.00514859 -0.0018691 0)
(-0.00483677 -0.00189958 0)
(-0.00450864 -0.00192866 0)
(-0.00417223 -0.0019552 0)
(-0.00383873 -0.00197868 0)
(-0.00350704 -0.00199865 0)
(-0.00317139 -0.00201863 0)
(-0.0028252 -0.00203834 0)
(-0.00247318 -0.00205089 0)
(-0.00212383 -0.00207191 0)
(-0.00177888 -0.0020747 0)
(-0.00142288 -0.00209587 0)
(-0.00106185 -0.0020964 0)
(-0.00071239 -0.00210675 0)
(-0.000358433 -0.00200381 0)
(-9.93015e-05 -0.00111689 0)
(-9.38502e-05 0.00127287 0)
(-0.000351913 0.00234643 0)
(-0.000712614 0.00246762 0)
(-0.00107148 0.00246072 0)
(-0.00142997 0.00245107 0)
(-0.00178604 0.00243894 0)
(-0.00214014 0.00242453 0)
(-0.00249186 0.0024079 0)
(-0.00284095 0.00238896 0)
(-0.00318717 0.00236755 0)
(-0.00353018 0.00234353 0)
(-0.00386953 0.00231687 0)
(-0.00420473 0.00228763 0)
(-0.00453533 0.00225593 0)
(-0.00486097 0.00222193 0)
(-0.0051814 0.00218576 0)
(-0.0054964 0.00214752 0)
(-0.00580569 0.00210731 0)
(-0.00610894 0.00206514 0)
(-0.00640578 0.00202099 0)
(-0.00669585 0.00197477 0)
(-0.00697886 0.00192639 0)
(-0.00725461 0.00187578 0)
(-0.00752295 0.00182299 0)
(-0.00778373 0.00176819 0)
(-0.00803677 0.00171164 0)
(-0.0082818 0.00165365 0)
(-0.00851845 0.00159448 0)
(-0.00874631 0.00153427 0)
(-0.00896498 0.001473 0)
(-0.00917415 0.00141054 0)
(-0.00937363 0.0013467 0)
(-0.00956342 0.00128131 0)
(-0.00974364 0.00121436 0)
(-0.00991444 0.00114598 0)
(-0.0100758 0.00107643 0)
(-0.0102276 0.00100603 0)
(-0.0103692 0.000935068 0)
(-0.0105001 0.0008637 0)
(-0.0106199 0.000791861 0)
(-0.0107284 0.000719277 0)
(-0.0108258 0.000645749 0)
(-0.010913 0.000571253 0)
(-0.0109902 0.000495694 0)
(-0.0110573 0.000419131 0)
(-0.011114 0.000342338 0)
(-0.0111604 0.000266036 0)
(-0.011195 0.000189714 0)
(-0.0112165 0.000112991 0)
(-0.0112271 3.69739e-05 0)
(-0.0112287 -3.84276e-05 0)
(-0.0112184 -0.00011535 0)
(-0.0111949 -0.000193045 0)
(-0.0111629 -0.000268259 0)
(-0.0111211 -0.000342346 0)
(-0.0110623 -0.000418812 0)
(-0.0109906 -0.000495268 0)
(-0.0109157 -0.000568697 0)
(-0.0108317 -0.000642806 0)
(-0.0107299 -0.000719801 0)
(-0.0106185 -0.000794484 0)
(-0.010503 -0.000864278 0)
(-0.0103726 -0.000933859 0)
(-0.010226 -0.00100567 0)
(-0.0100755 -0.00107661 0)
(-0.00992074 -0.00114512 0)
(-0.0097503 -0.00121261 0)
(-0.00956572 -0.0012793 0)
(-0.0093751 -0.0013447 0)
(-0.00917571 -0.00140952 0)
(-0.00896432 -0.0014735 0)
(-0.00874672 -0.0015351 0)
(-0.00852293 -0.00159458 0)
(-0.00828397 -0.00165362 0)
(-0.00803176 -0.00171155 0)
(-0.00777941 -0.00176622 0)
(-0.00752711 -0.00181821 0)
(-0.00726028 -0.00187012 0)
(-0.0069758 -0.00192209 0)
(-0.00668815 -0.00197169 0)
(-0.00640466 -0.00201779 0)
(-0.00611454 -0.00206172 0)
(-0.00580896 -0.00210495 0)
(-0.00549475 -0.00214746 0)
(-0.00517989 -0.00218751 0)
(-0.00486091 -0.00222307 0)
(-0.00453411 -0.00225511 0)
(-0.00420374 -0.00228667 0)
(-0.0038713 -0.00231656 0)
(-0.00353373 -0.00234264 0)
(-0.00318905 -0.00236785 0)
(-0.00283447 -0.00238773 0)
(-0.00249038 -0.0024042 0)
(-0.00214565 -0.00242266 0)
(-0.00179251 -0.00243935 0)
(-0.00142948 -0.00244927 0)
(-0.0010679 -0.00245821 0)
(-0.000716443 -0.00246602 0)
(-0.000356834 -0.00234931 0)
(-9.70309e-05 -0.0013103 0)
(-9.44731e-05 0.00146587 0)
(-0.000354442 0.00269007 0)
(-0.000718418 0.0028277 0)
(-0.00108034 0.00281976 0)
(-0.00144163 0.00280878 0)
(-0.00180025 0.00279503 0)
(-0.00215678 0.00277868 0)
(-0.00251097 0.00275968 0)
(-0.00286267 0.00273792 0)
(-0.00321161 0.00271323 0)
(-0.0035574 0.00268557 0)
(-0.00389948 0.00265497 0)
(-0.0042373 0.00262154 0)
(-0.0045704 0.0025854 0)
(-0.00489843 0.00254666 0)
(-0.00522116 0.00250539 0)
(-0.00553839 0.00246166 0)
(-0.0058499 0.00241551 0)
(-0.00615538 0.00236696 0)
(-0.00645449 0.00231599 0)
(-0.00674689 0.00226256 0)
(-0.00703226 0.00220666 0)
(-0.00731032 0.00214834 0)
(-0.0075808 0.00208772 0)
(-0.00784347 0.00202505 0)
(-0.00809811 0.00196058 0)
(-0.00834447 0.00189458 0)
(-0.00858231 0.00182721 0)
(-0.00881136 0.00175848 0)
(-0.00903133 0.00168829 0)
(-0.00924198 0.00161647 0)
(-0.00944309 0.00154287 0)
(-0.00963455 0.00146745 0)
(-0.00981631 0.00139031 0)
(-0.00998839 0.00131174 0)
(-0.0101507 0.0012321 0)
(-0.0103031 0.00115169 0)
(-0.0104453 0.0010707 0)
(-0.0105767 0.000989179 0)
(-0.0106973 0.000906981 0)
(-0.0108068 0.000823701 0)
(-0.0109054 0.000739071 0)
(-0.0109936 0.000653273 0)
(-0.011072 0.000566497 0)
(-0.0111397 0.000478708 0)
(-0.0111962 0.000390568 0)
(-0.0112422 0.000303265 0)
(-0.011277 0.000216419 0)
(-0.0112985 0.000128747 0)
(-0.0113082 4.12525e-05 0)
(-0.01131 -4.48124e-05 0)
(-0.0113011 -0.000131702 0)
(-0.011277 -0.000220413 0)
(-0.0112428 -0.000307208 0)
(-0.0112013 -0.000391492 0)
(-0.0111444 -0.000477839 0)
(-0.0110717 -0.000566124 0)
(-0.0109949 -0.000651907 0)
(-0.0109118 -0.000736197 0)
(-0.0108109 -0.000822215 0)
(-0.0106966 -0.000907383 0)
(-0.0105778 -0.000988728 0)
(-0.0104475 -0.00106877 0)
(-0.0103021 -0.00114984 0)
(-0.0101512 -0.00123066 0)
(-0.00999453 -0.00131033 0)
(-0.00982139 -0.00138878 0)
(-0.00963497 -0.00146458 0)
(-0.00944513 -0.00153799 0)
(-0.00924691 -0.00161222 0)
(-0.00903273 -0.00168754 0)
(-0.00880964 -0.00175944 0)
(-0.0085838 -0.00182582 0)
(-0.00834734 -0.00189065 0)
(-0.00809583 -0.00195737 0)
(-0.00783841 -0.00202356 0)
(-0.00757979 -0.00208526 0)
(-0.00731178 -0.00214283 0)
(-0.00703079 -0.00219972 0)
(-0.0067449 -0.00225736 0)
(-0.00645699 -0.00231347 0)
(-0.00615899 -0.00236533 0)
(-0.00584886 -0.0024133 0)
(-0.00553612 -0.00245978 0)
(-0.0052242 -0.00250507 0)
(-0.00490437 -0.00254744 0)
(-0.00457225 -0.00258701 0)
(-0.00423368 -0.00262367 0)
(-0.0038947 -0.00265436 0)
(-0.00355832 -0.00268206 0)
(-0.00321648 -0.00271152 0)
(-0.00286155 -0.00273467 0)
(-0.0025081 -0.00276112 0)
(-0.00215897 -0.00277329 0)
(-0.0018055 -0.00279602 0)
(-0.00144174 -0.002803 0)
(-0.0010786 -0.00282268 0)
(-0.000720839 -0.00282616 0)
(-0.000357426 -0.00269881 0)
(-9.50411e-05 -0.00150457 0)
(-9.53385e-05 0.00166015 0)
(-0.000357661 0.00303637 0)
(-0.000725182 0.00319047 0)
(-0.0010904 0.00318159 0)
(-0.0014547 0.00316948 0)
(-0.00181614 0.00315434 0)
(-0.00217549 0.00313618 0)
(-0.00253262 0.00311486 0)
(-0.0028874 0.0030902 0)
(-0.00323951 0.00306213 0)
(-0.00358843 0.00303066 0)
(-0.00393356 0.00299591 0)
(-0.0042743 0.00295803 0)
(-0.00461021 0.00291714 0)
(-0.00494098 0.00287333 0)
(-0.0052664 0.00282667 0)
(-0.00558628 0.00277719 0)
(-0.00590039 0.00272496 0)
(-0.00620847 0.00267001 0)
(-0.00651018 0.00261235 0)
(-0.00680518 0.00255199 0)
(-0.00709309 0.00248896 0)
(-0.00737355 0.00242335 0)
(-0.00764624 0.00235533 0)
(-0.00791088 0.00228512 0)
(-0.00816724 0.00221294 0)
(-0.00841517 0.00213894 0)
(-0.00865455 0.00206319 0)
(-0.00888523 0.00198563 0)
(-0.00910699 0.00190612 0)
(-0.00931957 0.00182454 0)
(-0.00952265 0.00174083 0)
(-0.00971598 0.0016551 0)
(-0.00989935 0.00156757 0)
(-0.0100727 0.00147863 0)
(-0.0102359 0.00138869 0)
(-0.010389 0.00129802 0)
(-0.0105317 0.00120668 0)
(-0.0106638 0.00111461 0)
(-0.0107854 0.00102164 0)
(-0.0108963 0.000927398 0)
(-0.0109962 0.000831537 0)
(-0.0110855 0.000734404 0)
(-0.0111648 0.000636626 0)
(-0.0112332 0.000538138 0)
(-0.0112895 0.000439094 0)
(-0.0113346 0.00034089 0)
(-0.0113695 0.00024373 0)
(-0.0113916 0.000145561 0)
(-0.0114006 4.65072e-05 0)
(-0.0114016 -5.09224e-05 0)
(-0.011394 -0.000147991 0)
(-0.0113704 -0.000247343 0)
(-0.011334 -0.000346076 0)
(-0.0112918 -0.000441694 0)
(-0.0112369 -0.000538216 0)
(-0.0111646 -0.00063744 0)
(-0.0110858 -0.000735186 0)
(-0.011002 -0.000830537 0)
(-0.010901 -0.000926288 0)
(-0.010785 -0.00102135 0)
(-0.0106644 -0.00111366 0)
(-0.0105338 -0.00120536 0)
(-0.0103879 -0.00129793 0)
(-0.010236 -0.00138918 0)
(-0.0100789 -0.00147837 0)
(-0.00990455 -0.00156688 0)
(-0.00971494 -0.00165384 0)
(-0.00952273 -0.00173784 0)
(-0.00932525 -0.00182063 0)
(-0.00911154 -0.00190377 0)
(-0.008885 -0.00198478 0)
(-0.00865414 -0.0020613 0)
(-0.00841553 -0.00213537 0)
(-0.00816467 -0.00220979 0)
(-0.0079073 -0.00228347 0)
(-0.00764637 -0.00235375 0)
(-0.00737475 -0.00242072 0)
(-0.00709034 -0.00248632 0)
(-0.0068019 -0.00255057 0)
(-0.00651264 -0.00261152 0)
(-0.00621437 -0.00266868 0)
(-0.0059034 -0.00272385 0)
(-0.00558652 -0.00277727 0)
(-0.00526754 -0.00282599 0)
(-0.00494284 -0.00286954 0)
(-0.00461034 -0.00291207 0)
(-0.0042711 -0.00295347 0)
(-0.00392969 -0.00298945 0)
(-0.00359089 -0.00302371 0)
(-0.00324165 -0.00305631 0)
(-0.00288408 -0.00308177 0)
(-0.00252901 -0.00310959 0)
(-0.00218055 -0.00312904 0)
(-0.00182222 -0.00315313 0)
(-0.00145614 -0.00316204 0)
(-0.00109105 -0.00318206 0)
(-0.000727927 -0.00318768 0)
(-0.000362435 -0.00304499 0)
(-9.51804e-05 -0.00170082 0)
(-9.64946e-05 0.00185602 0)
(-0.000361461 0.00338571 0)
(-0.000732705 0.00355665 0)
(-0.00110133 0.00354716 0)
(-0.00146888 0.00353418 0)
(-0.00183355 0.00351775 0)
(-0.00219626 0.00349769 0)
(-0.00255695 0.00347379 0)
(-0.0029154 0.00344594 0)
(-0.00327116 0.00341416 0)
(-0.00362362 0.0033786 0)
(-0.0039721 0.00333947 0)
(-0.00431607 0.00329693 0)
(-0.00465509 0.00325113 0)
(-0.0049889 0.00320213 0)
(-0.0053173 0.00315001 0)
(-0.0056401 0.00309481 0)
(-0.00595708 0.00303661 0)
(-0.00626799 0.00297543 0)
(-0.00657251 0.00291131 0)
(-0.00687028 0.00284425 0)
(-0.0071609 0.00277431 0)
(-0.00744394 0.00270155 0)
(-0.00771903 0.00262615 0)
(-0.00798587 0.00254826 0)
(-0.00824429 0.00246807 0)
(-0.00849422 0.00238566 0)
(-0.00873562 0.00230106 0)
(-0.00896842 0.00221422 0)
(-0.00919242 0.00212505 0)
(-0.00940727 0.00203351 0)
(-0.00961254 0.00193967 0)
(-0.00980781 0.00184375 0)
(-0.00999278 0.00174607 0)
(-0.0101673 0.00164702 0)
(-0.0103313 0.00154695 0)
(-0.0104852 0.00144612 0)
(-0.0106287 0.00134443 0)
(-0.0107618 0.00124168 0)
(-0.0108845 0.00113779 0)
(-0.0109969 0.00103255 0)
(-0.0110984 0.000925607 0)
(-0.0111885 0.000817267 0)
(-0.0112682 0.000708604 0)
(-0.0113373 0.000599748 0)
(-0.0113935 0.000490088 0)
(-0.0114376 0.000380707 0)
(-0.0114724 0.000272699 0)
(-0.0114958 0.000163869 0)
(-0.0115047 5.301e-05 0)
(-0.0115045 -5.67242e-05 0)
(-0.0114975 -0.000164869 0)
(-0.0114751 -0.00027497 0)
(-0.0114371 -0.000385703 0)
(-0.0113935 -0.000493388 0)
(-0.0113401 -0.000600767 0)
(-0.0112687 -0.000710809 0)
(-0.011188 -0.000820051 0)
(-0.0111029 -0.000926467 0)
(-0.0110017 -0.0010326 0)
(-0.010884 -0.00113839 0)
(-0.0107618 -0.001242 0)