/*--------------------------------*- C++ -*----------------------------------*\
  =========                 |
  \\      /  F ield         | OpenFOAM: The Open Source CFD Toolbox
   \\    /   O peration     | Website:  https://openfoam.org
    \\  /    A nd           | Version:  11
     \\/     M anipulation  |
\*---------------------------------------------------------------------------*/
FoamFile
{
    format      ascii;
    class       surfaceScalarField;
    location    "4.5";
    object      phi;
}
// * * * * * * * * * * * * * * * * * * * * * * * * * * * * * * * * * * * * * //

dimensions      [0 3 -1 0 0 0 0];

internalField   nonuniform List<scalar> 
19980
(
6.57465e-07
-6.58159e-07
2.17928e-06
-1.52177e-06
3.7779e-06
-1.59874e-06
4.95381e-06
-1.17579e-06
5.43368e-06
-4.79801e-07
5.07495e-06
3.5875e-07
3.81057e-06
1.26437e-06
1.62064e-06
2.18987e-06
-1.48576e-06
3.10639e-06
-5.48106e-06
3.99532e-06
-1.03255e-05
4.84443e-06
-1.59712e-05
5.64565e-06
-2.2364e-05
6.39285e-06
-2.94468e-05
7.08279e-06
-3.71604e-05
7.71361e-06
-4.5445e-05
8.2846e-06
-5.42401e-05
8.79515e-06
-6.34851e-05
9.24487e-06
-7.31193e-05
9.63423e-06
-8.30833e-05
9.96396e-06
-9.33179e-05
1.02347e-05
-0.000103766
1.04479e-05
-0.00011437
1.06048e-05
-0.000125077
1.07068e-05
-0.000135834
1.07566e-05
-0.00014659
1.07565e-05
-0.000157299
1.07084e-05
-0.000167913
1.06138e-05
-0.000178387
1.04741e-05
-0.000188677
1.02905e-05
-0.000198742
1.0065e-05
-0.000208542
9.79971e-06
-0.000218039
9.49656e-06
-0.000227196
9.1574e-06
-0.00023598
8.78429e-06
-0.000244359
8.37924e-06
-0.000252303
7.94375e-06
-0.000259783
7.47954e-06
-0.000266771
6.98879e-06
-0.000273245
6.47359e-06
-0.000279181
5.93579e-06
-0.000284558
5.37745e-06
-0.000289359
4.80088e-06
-0.000293567
4.20823e-06
-0.000297169
3.6012e-06
-0.00030015
2.98144e-06
-0.000302501
2.35099e-06
-0.000304213
1.71195e-06
-0.000305279
1.06606e-06
-0.000305694
4.15044e-07
-0.000305455
-2.38978e-07
-0.000304561
-8.93871e-07
-0.000303014
-1.54727e-06
-0.000300817
-2.19659e-06
-0.000297977
-2.84004e-06
-0.000294501
-3.47621e-06
-0.000290399
-4.10267e-06
-0.000285682
-4.71668e-06
-0.000280366
-5.31632e-06
-0.000274466
-5.8994e-06
-0.000268003
-6.46284e-06
-0.000260999
-7.00395e-06
-0.000253479
-7.5206e-06
-0.000245469
-8.01013e-06
-0.000236999
-8.46999e-06
-0.0002281
-8.89868e-06
-0.000218805
-9.29448e-06
-0.000209151
-9.65458e-06
-0.000199175
-9.97629e-06
-0.000188917
-1.02578e-05
-0.00017842
-1.04969e-05
-0.000167729
-1.06907e-05
-0.000156892
-1.0837e-05
-0.000145958
-1.0934e-05
-0.000134978
-1.09803e-05
-0.000124004
-1.09738e-05
-0.000113092
-1.09121e-05
-0.000102298
-1.07937e-05
-9.16809e-05
-1.06173e-05
-8.12995e-05
-1.03813e-05
-7.1215e-05
-1.00846e-05
-6.14886e-05
-9.72639e-06
-5.21823e-05
-9.30629e-06
-4.33586e-05
-8.82368e-06
-3.50805e-05
-8.27812e-06
-2.74105e-05
-7.67004e-06
-2.04094e-05
-7.00115e-06
-1.41352e-05
-6.27413e-06
-8.64288e-06
-5.49231e-06
-3.98251e-06
-4.66041e-06
-1.97138e-07
-3.78539e-06
2.68006e-06
-2.8772e-06
4.62991e-06
-1.94986e-06
5.65387e-06
-1.02398e-06
5.78551e-06
-1.31636e-07
5.10937e-06
6.76144e-07
3.79013e-06
1.31921e-06
2.12204e-06
1.6681e-06
6.14438e-07
1.50759e-06
6.14454e-07
1.5391e-06
-2.19719e-06
4.13761e-06
-4.12013e-06
6.49949e-06
-3.96063e-06
7.73732e-06
-2.41365e-06
7.25637e-06
1.14328e-09
4.68238e-06
2.93258e-06
-1.93108e-07
6.13989e-06
-7.46455e-06
9.4613e-06
-1.71443e-05
1.27861e-05
-2.91889e-05
1.60399e-05
-4.35146e-05
1.91702e-05
-6.00098e-05
2.21407e-05
-7.85431e-05
2.49261e-05
-9.8969e-05
2.75086e-05
-0.000121133
2.98774e-05
-0.000144874
3.20262e-05
-0.00017003
3.39505e-05
-0.000196434
3.56491e-05
-0.000223922
3.7122e-05
-0.000252329
3.83708e-05
-0.000281493
3.93985e-05
-0.000311254
4.02093e-05
-0.000341457
4.08072e-05
-0.000371949
4.11988e-05
-0.000402583
4.13909e-05
-0.000433216
4.139e-05
-0.000463711
4.12033e-05
-0.000493935
4.08372e-05
-0.000523758
4.02976e-05
-0.000553058
3.95905e-05
-0.000581716
3.87233e-05
-0.00060962
3.77034e-05
-0.000636661
3.65378e-05
-0.000662738
3.5234e-05
-0.000687753
3.37993e-05
-0.000711615
3.2241e-05
-0.000734237
3.05661e-05
-0.000755539
2.87816e-05
-0.000775445
2.68952e-05
-0.000793887
2.49146e-05
-0.000810798
2.2847e-05
-0.000826121
2.07002e-05
-0.000839802
1.84822e-05
-0.000851794
1.62007e-05
-0.000862056
1.3863e-05
-0.000870551
1.14765e-05
-0.000877249
9.04864e-06
-0.000882124
6.58703e-06
-0.000885157
4.09921e-06
-0.000886335
1.59244e-06
-0.000885648
-9.25304e-07
-0.000883097
-3.44544e-06
-0.000878685
-5.95954e-06
-0.000872422
-8.45937e-06
-0.000864325
-1.09367e-05
-0.000854418
-1.33836e-05
-0.000842728
-1.57919e-05
-0.000829292
-1.81527e-05
-0.000814152
-2.04567e-05
-0.000797356
-2.26951e-05
-0.000778961
-2.48585e-05
-0.000759028
-2.69369e-05
-0.000737627
-2.89208e-05
-0.000714836
-3.08015e-05
-0.000690736
-3.25703e-05
-0.000665416
-3.42186e-05
-0.000638972
-3.57378e-05
-0.000611508
-3.71192e-05
-0.000583131
-3.83535e-05
-0.000553956
-3.94319e-05
-0.000524107
-4.03457e-05
-0.000493712
-4.10867e-05
-0.000462902
-4.16466e-05
-0.000431818
-4.2018e-05
-0.000400604
-4.21938e-05
-0.000369411
-4.21671e-05
-0.000338392
-4.19314e-05
-0.000307705
-4.14806e-05
-0.000277512
-4.08096e-05
-0.00024798
-3.99138e-05
-0.000219275
-3.87897e-05
-0.000191566
-3.74349e-05
-0.000165025
-3.58479e-05
-0.00013982
-3.40285e-05
-0.00011612
-3.19784e-05
-9.40877e-05
-2.97019e-05
-7.38827e-05
-2.72062e-05
-5.56542e-05
-2.45026e-05
-3.954e-05
-2.16065e-05
-2.56606e-05
-1.85397e-05
-1.41138e-05
-1.53323e-05
-4.96555e-06
-1.20255e-05
1.76122e-06
-8.67665e-06
6.10405e-06
-5.36674e-06
8.18499e-06
-2.21255e-06
8.24469e-06
6.16394e-07
6.68857e-06
2.8753e-06
4.14265e-06
4.21398e-06
1.50318e-06
4.14697e-06
2.1177e-06
1.66935e-06
-3.86667e-06
4.09904e-06
-6.5498e-06
5.72241e-06
-5.58403e-06
5.47858e-06
-2.16985e-06
2.61248e-06
2.86734e-06
-3.38387e-06
8.92904e-06
-1.28188e-05
1.55748e-05
-2.58482e-05
2.24907e-05
-4.25147e-05
2.94525e-05
-6.27732e-05
3.62984e-05
-8.65163e-05
4.29134e-05
-0.00011359
4.92143e-05
-0.000143805
5.51415e-05
-0.00017695
6.06532e-05
-0.000212794
6.57209e-05
-0.000251093
7.03256e-05
-0.000291599
7.44564e-05
-0.000334057
7.81071e-05
-0.000378211
8.12764e-05
-0.000423807
8.39666e-05
-0.000470591
8.61824e-05
-0.000518313
8.79315e-05
-0.000566729
8.9223e-05
-0.000615598
9.00683e-05
-0.000664688
9.04804e-05
-0.000713771
9.04727e-05
-0.000762627
9.00591e-05
-0.000811043
8.92536e-05
-0.000858815
8.80698e-05
-0.000905747
8.65221e-05
-0.000951649
8.46257e-05
-0.000996342
8.23959e-05
-0.00103965
7.98484e-05
-0.00108142
7.69991e-05
-0.00112148
7.38639e-05
-0.0011597
7.04584e-05
-0.00119593
6.67984e-05
-0.00123005
6.28996e-05
-0.00126193
5.87784e-05
-0.00129147
5.44511e-05
-0.00131856
4.99339e-05
-0.0013431
4.52434e-05
-0.00136501
4.03964e-05
-0.00138422
3.54093e-05
-0.00140066
3.02985e-05
-0.00141426
2.50804e-05
-0.00142498
1.97717e-05
-0.00143279
1.43892e-05
-0.00143764
8.94939e-06
-0.00143951
3.46918e-06
-0.0014384
-2.03396e-06
-0.00143431
-7.54219e-06
-0.00142723
-1.30372e-05
-0.00141719
-1.85008e-05
-0.00140421
-2.39149e-05
-0.00138833
-2.92616e-05
-0.0013696
-3.4522e-05
-0.00134808
-3.9677e-05
-0.00132383
-4.47075e-05
-0.00129693
-4.95934e-05
-0.00126747
-5.43144e-05
-0.00123556
-5.88503e-05
-0.0012013
-6.31813e-05
-0.00116481
-6.72873e-05
-0.00112624
-7.11488e-05
-0.00108571
-7.47471e-05
-0.00104338
-7.80628e-05
-0.000999425
-8.10762e-05
-0.00095401
-8.3768e-05
-0.000907323
-8.61196e-05
-0.000859556
-8.81124e-05
-0.000810914
-8.97285e-05
-0.00076161
-9.09507e-05
-0.000711865
-9.17629e-05
-0.000661909
-9.21498e-05
-0.000611979
-9.2097e-05
-0.000562319
-9.15911e-05
-0.00051318
-9.06203e-05
-0.000464815
-8.91742e-05
-0.000417485
-8.72442e-05
-0.00037145
-8.4824e-05
-0.000326976
-8.19095e-05
-0.000284324
-7.84997e-05
-0.000243756
-7.45967e-05
-0.000205527
-7.02071e-05
-0.000169887
-6.53426e-05
-0.000137071
-6.00218e-05
-0.000107302
-5.42714e-05
-8.07801e-05
-4.81286e-05
-5.7676e-05
-4.16438e-05
-3.8123e-05
-3.48853e-05
-2.22033e-05
-2.79451e-05
-9.93198e-06
-2.09479e-05
-1.23465e-06
-1.40641e-05
4.08045e-06
-7.52775e-06
6.35832e-06
-1.6614e-06
6.1411e-06
3.09268e-06
4.21632e-06
6.13877e-06
1.6648e-06
6.69849e-06
3.78253e-06
1.29649e-06
-5.16301e-06
2.678e-06
-7.93127e-06
2.50415e-06
-5.41023e-06
-3.43084e-07
6.7746e-07
-6.67735e-06
9.20154e-06
-1.7062e-05
1.93137e-05
-3.18575e-05
3.03702e-05
-5.12559e-05
4.18893e-05
-7.53173e-05
5.35139e-05
-0.000103999
6.49801e-05
-0.000137178
7.60922e-05
-0.000174669
8.67054e-05
-0.000216242
9.67148e-05
-0.000261632
0.000106043
-0.000310547
0.000114636
-0.000362679
0.000122458
-0.000417706
0.000129483
-0.000475299
0.000135699
-0.000535123
0.000141101
-0.000596846
0.000145689
-0.000660133
0.00014947
-0.000724657
0.000152455
-0.000790092
0.000154658
-0.000856119
0.000156096
-0.000922429
0.00015679
-0.000988716
0.00015676
-0.00105469
0.000156031
-0.00112006
0.000154624
-0.00118455
0.000152565
-0.00124791
0.000149878
-0.00130987
0.000146589
-0.0013702
0.000142723
-0.00142866
0.000138308
-0.00148503
0.000133371
-0.00153911
0.000127939
-0.00159069
0.000122039
-0.00163959
0.000115698
-0.00168563
0.000108945
-0.00172866
0.000101807
-0.00176852
9.43111e-05
-0.00180507
8.64867e-05
-0.00183819
7.83617e-05
-0.00186776
6.99649e-05
-0.00189368
6.13247e-05
-0.00191585
5.24696e-05
-0.00193419
4.34283e-05
-0.00194865
3.42298e-05
-0.00195917
2.49033e-05
-0.0019657
1.54782e-05
-0.00196821
5.9838e-06
-0.0019667
-3.54941e-06
-0.00196115
-1.30904e-05
-0.00195158
-2.26081e-05
-0.00193801
-3.20713e-05
-0.00192047
-4.1448e-05
-0.00189903
-5.07062e-05
-0.00187374
-5.98135e-05
-0.00184468
-6.87369e-05
-0.00181194
-7.74428e-05
-0.00177564
-8.58974e-05
-0.00173588
-9.40664e-05
-0.00169282
-0.000101915
-0.00164659
-0.000109408
-0.00159737
-0.000116513
-0.00154532
-0.000123195
-0.00149065
-0.000129421
-0.00143355
-0.000135157
-0.00137426
-0.00014037
-0.001313
-0.000145027
-0.00125003
-0.000149095
-0.00118559
-0.000152544
-0.00111998
-0.000155343
-0.00105347
-0.000157463
-0.000986352
-0.000158877
-0.000918942
-0.000159559
-0.000851554
-0.000159485
-0.000784512
-0.000158633
-0.000718148
-0.000156984
-0.0006528
-0.000154522
-0.000588811
-0.000151234
-0.000526525
-0.00014711
-0.000466289
-0.000142146
-0.000408446
-0.000136343
-0.000353335
-0.000129708
-0.000301287
-0.000122255
-0.000252622
-0.000114008
-0.00020764
-0.000105003
-0.000166621
-9.52899e-05
-0.000129815
-8.49352e-05
-9.74295e-05
-7.40292e-05
-6.96234e-05
-6.26914e-05
-4.64889e-05
-5.10795e-05
-2.80343e-05
-3.94025e-05
-1.4161e-05
-2.79375e-05
-4.63604e-06
-1.70527e-05
9.40447e-07
-7.23778e-06
3.17383e-06
8.59274e-07
2.91788e-06
6.39467e-06
1.32687e-06
8.28954e-06
5.10936e-06
6.41537e-07
-5.80454e-06
3.69721e-07
-7.6593e-06
-2.35877e-06
-2.68164e-06
-8.62699e-06
6.94565e-06
-1.92362e-05
1.98109e-05
-3.47543e-05
3.48318e-05
-5.55497e-05
5.11656e-05
-8.18244e-05
6.8164e-05
-0.000113643
8.53323e-05
-0.000150957
0.000102294
-0.000193628
0.000118763
-0.000241447
0.000134524
-0.000294149
0.000149417
-0.000351426
0.00016332
-0.000412938
0.000176148
-0.00047832
0.00018784
-0.000547191
0.000198354
-0.000619157
0.000207665
-0.000693818
0.000215762
-0.000770772
0.000222642
-0.000849614
0.000228313
-0.000929945
0.000232786
-0.00101137
0.000236083
-0.0010935
0.000238226
-0.00117595
0.000239244
-0.00125836
0.000239167
-0.00134036
0.000238028
-0.0014216
0.000235861
-0.00150173
0.000232704
-0.00158045
0.000228592
-0.00165743
0.000223565
-0.00173236
0.000217662
-0.00180498
0.000210923
-0.001875
0.000203388
-0.00194216
0.0001951
-0.00200622
0.000186099
-0.00206694
0.000176426
-0.00212412
0.000166125
-0.00217756
0.000155237
-0.00222705
0.000143805
-0.00227243
0.000131871
-0.00231355
0.000119478
-0.00235026
0.000106671
-0.00238242
9.34923e-05
-0.00240994
7.99853e-05
-0.00243271
6.61945e-05
-0.00245064
5.21642e-05
-0.00246367
3.79388e-05
-0.00247176
2.35633e-05
-0.00247486
9.08356e-06
-0.00247296
-5.45424e-06
-0.00246604
-2.00031e-05
-0.00245413
-3.45156e-05
-0.00243726
-4.89438e-05
-0.00241547
-6.32393e-05
-0.00238882
-7.73526e-05
-0.0023574
-9.12341e-05
-0.00232131
-0.000104834
-0.00228065
-0.000118101
-0.00223556
-0.000130983
-0.0021862
-0.000143429
-0.00213273
-0.000155387
-0.00207533
-0.000166804
-0.00201422
-0.000177628
-0.00194961
-0.000187809
-0.00188173
-0.000197294
-0.00181086
-0.000206034
-0.00173725
-0.000213977
-0.0016612
-0.000221074
-0.00158302
-0.000227277
-0.00150302
-0.000232539
-0.00142155
-0.000236815
-0.00133896
-0.00024006
-0.0012556
-0.000242236
-0.00117186
-0.000243302
-0.00108811
-0.000243225
-0.00100477
-0.000241974
-0.00092224
-0.000239519
-0.000840923
-0.000235839
-0.00076124
-0.000230917
-0.000683609
-0.00022474
-0.000608449
-0.000217306
-0.000536173
-0.000208619
-0.000467188
-0.000198693
-0.000401889
-0.000187553
-0.000340655
-0.000175242
-0.000283843
-0.000161816
-0.000231779
-0.000147354
-0.000184752
-0.000131962
-0.000143002
-0.000115779
-0.000106708
-9.89846e-05
-7.59752e-05
-8.18127e-05
-5.0811e-05
-6.45667e-05
-3.11092e-05
-4.76393e-05
-1.66228e-05
-3.1539e-05
-6.93659e-06
-1.69239e-05
-1.43498e-06
-4.64247e-06
7.34641e-07
4.22503e-06
7.06304e-07
8.31791e-06
5.81563e-06
-1.68937e-07
-5.63561e-06
-2.47701e-06
-5.3513e-06
-8.27384e-06
3.11527e-06
-1.85412e-05
1.7213e-05
-3.4014e-05
3.52836e-05
-5.52218e-05
5.60398e-05
-8.25108e-05
7.84546e-05
-0.000116068
0.000101721
-0.000155945
0.000125209
-0.000202078
0.000148428
-0.000254313
0.000170997
-0.000312413
0.000192624
-0.000376083
0.000213087
-0.000444978
0.000232216
-0.000518716
0.000249886
-0.000596885
0.000266008
-0.00067905
0.000280519
-0.000764763
0.000293379
-0.000853567
0.000304566
-0.000944999
0.000314074
-0.00103859
0.000321906
-0.00113389
0.00032808
-0.00123042
0.000332618
-0.00132775
0.000335551
-0.00142542
0.000336915
-0.001523
0.00033675
-0.00162007
0.000335101
-0.00171623
0.000332014
-0.00181106
0.000327539
-0.0019042
0.000321727
-0.00199526
0.000314633
-0.00208391
0.000306309
-0.0021698
0.000296812
-0.00225261
0.000286199
-0.00233204
0.000274526
-0.00240779
0.000261852
-0.0024796
0.000248235
-0.00254721
0.000233734
-0.00261038
0.000218408
-0.00266889
0.000202317
-0.00272254
0.000185521
-0.00277114
0.00016808
-0.00281453
0.000150055
-0.00285254
0.000131508
-0.00288506
0.000112499
-0.00291195
9.30911e-05
-0.00293313
7.33466e-05
-0.00294852
5.33282e-05
-0.00295806
3.30998e-05
-0.0029617
1.27256e-05
-0.00295943
-7.72891e-06
-0.00295123
-2.81979e-05
-0.00293713
-4.86145e-05
-0.00291717
-6.89111e-05
-0.00289139
-8.90194e-05
-0.00285987
-0.00010887
-0.00282271
-0.000128393
-0.00278003
-0.000147518
-0.00273195
-0.000166174
-0.00267865
-0.000184288
-0.00262029
-0.000201788
-0.00255707
-0.0002186
-0.00248922
-0.000234653
-0.00241698
-0.000249873
-0.0023406
-0.000264189
-0.00226037
-0.000277528
-0.00217658
-0.000289819
-0.00208956
-0.000300993
-0.00199966
-0.000310981
-0.00190722
-0.000319716
-0.00181262
-0.000327132
-0.00171627
-0.000333167
-0.00161857
-0.000337762
-0.00151995
-0.000340861
-0.00142084
-0.000342411
-0.0013217
-0.000342366
-0.00122299
-0.000340683
-0.00112518
-0.000337326
-0.00102875
-0.000332266
-0.000934189
-0.00032548
-0.000841971
-0.000316958
-0.000752581
-0.000306696
-0.000666495
-0.000294706
-0.000584177
-0.00028101
-0.000506081
-0.00026565
-0.000432635
-0.000248687
-0.000364244
-0.000230207
-0.000301275
-0.000210323
-0.000244053
-0.000189185
-0.000192847
-0.000166985
-0.000147858
-0.000143974
-0.000109205
-0.000120465
-7.69091e-05
-9.68629e-05
-5.08714e-05
-7.3677e-05
-3.08552e-05
-5.15552e-05
-1.64621e-05
-3.13171e-05
-7.10662e-06
-1.3998e-05
-1.98989e-06
-8.9165e-07
-6.87058e-08
6.39672e-06
5.74694e-06
-1.05718e-06
-4.57846e-06
-5.62879e-06
-7.79633e-07
-1.48246e-05
1.23111e-05
-2.94791e-05
3.18675e-05
-5.02273e-05
5.60319e-05
-7.75286e-05
8.3341e-05
-0.00011168
0.000112606
-0.000152832
0.000142873
-0.000201008
0.000173385
-0.00025612
0.00020354
-0.000317986
0.000232863
-0.000386344
0.000260982
-0.000460867
0.00028761
-0.000541177
0.000312525
-0.000626851
0.000335561
-0.000717436
0.000356593
-0.000812451
0.000375534
-0.000911399
0.000392328
-0.00101377
0.000406939
-0.00111905
0.000419355
-0.00122672
0.000429576
-0.00133626
0.00043762
-0.00144716
0.000443514
-0.0015589
0.000447293
-0.00167099
0.000449004
-0.00178294
0.000448696
-0.00189426
0.000446426
-0.0020045
0.000442254
-0.00211321
0.000436245
-0.00221994
0.000428464
-0.00232429
0.000418982
-0.00242586
0.000407871
-0.00252425
0.000395202
-0.0026191
0.000381051
-0.00271006
0.000365493
-0.00279682
0.000348605
-0.00287905
0.000330463
-0.00295646
0.000311147
-0.00302878
0.000290734
-0.00309577
0.000269304
-0.00315719
0.000246937
-0.00321282
0.000223712
-0.00326247
0.000199711
-0.00330598
0.000175014
-0.00334319
0.000149705
-0.00337396
0.000123865
-0.00339819
9.75772e-05
-0.00341579
7.09266e-05
-0.00342669
4.39973e-05
-0.00343084
1.68756e-05
-0.00342821
-1.03517e-05
-0.00341882
-3.75965e-05
-0.00340266
-6.47705e-05
-0.00337979
-9.17834e-05
-0.00335026
-0.000118544
-0.00331417
-0.00014496
-0.00327163
-0.000170939
-0.00322276
-0.000196387
-0.00316772
-0.00022121
-0.0031067
-0.00024531
-0.00303989
-0.000268594
-0.00296753
-0.000290963
-0.00288986
-0.000312323
-0.00280716
-0.000332576
-0.00271972
-0.000351627
-0.00262787
-0.000369381
-0.00253194
-0.000385745
-0.00243231
-0.000400626
-0.00232936
-0.000413934
-0.00222349
-0.000425581
-0.00211514
-0.000435481
-0.00200475
-0.000443554
-0.0018928
-0.000449721
-0.00177975
-0.00045391
-0.0016661
-0.000456055
-0.00155238
-0.000456093
-0.00143909
-0.000453972
-0.00132677
-0.000449645
-0.00121596
-0.000443078
-0.00110719
-0.000434245
-0.00100101
-0.000423134
-0.000897966
-0.000409745
-0.000798576
-0.000394095
-0.000703363
-0.000376223
-0.000612827
-0.000356186
-0.000527446
-0.000334069
-0.000447664
-0.000309989
-0.000373888
-0.000284099
-0.000306476
-0.000256597
-0.000245726
-0.000227735
-0.000191866
-0.000197834
-0.000145036
-0.000167295
-0.00010528
-0.000136619
-7.25236e-05
-0.000106433
-4.65612e-05
-7.75176e-05
-2.70366e-05
-5.08417e-05
-1.34263e-05
-2.76082e-05
-5.02335e-06
-9.29462e-06
-9.21072e-07
2.29444e-06
4.8259e-06
-1.97686e-06
-2.60158e-06
-8.93134e-06
6.17476e-06
-2.17217e-05
2.51015e-05
-4.10103e-05
5.11561e-05
-6.73083e-05
8.23299e-05
-0.000100982
0.000117014
-0.000142258
0.000153882
-0.000191235
0.00019185
-0.000247893
0.000230043
-0.000312108
0.000267755
-0.000383664
0.000304419
-0.000462268
0.000339587
-0.000547561
0.000372903
-0.000639128
0.000404092
-0.000736511
0.000432943
-0.000839215
0.000459297
-0.000946721
0.00048304
-0.00105849
0.000504093
-0.00117396
0.000522409
-0.00129256
0.000537964
-0.00141375
0.000550757
-0.00153693
0.000560804
-0.00166155
0.000568134
-0.00178705
0.000572792
-0.00191287
0.000574829
-0.00203848
0.000574307
-0.00216335
0.000571295
-0.00228697
0.000565868
-0.00240883
0.000558105
-0.00252845
0.00054809
-0.00264538
0.00053591
-0.00275916
0.000521653
-0.00286938
0.000505414
-0.00297561
0.000487286
-0.00307748
0.000467364
-0.00317462
0.000445746
-0.00326669
0.000422529
-0.00335336
0.000397814
-0.00343432
0.000371699
-0.0035093
0.000344286
-0.00357804
0.000315677
-0.00364031
0.000285974
-0.00369587
0.00025528
-0.00374456
0.000223698
-0.00378619
0.000191334
-0.00382062
0.000158294
-0.00384772
0.000124683
-0.0038674
9.06085e-05
-0.00387959
5.61803e-05
-0.00388422
2.15078e-05
-0.00388127
-1.32982e-05
-0.00387074
-4.81255e-05
-0.00385265
-8.28602e-05
-0.00382705
-0.000117387
-0.003794
-0.000151591
-0.00375361
-0.000185353
-0.00370599
-0.000218556
-0.0036513
-0.000251079
-0.00358971
-0.000282801
-0.00352142
-0.000313602
-0.00344665
-0.000343359
-0.00336567
-0.000371949
-0.00327874
-0.00039925
-0.00318618
-0.00042514
-0.0030883
-0.000449498
-0.00298548
-0.000472203
-0.00287809
-0.000493136
-0.00276654
-0.000512181
-0.00265125
-0.000529223
-0.00253268
-0.000544152
-0.0024113
-0.00055686
-0.00228761
-0.000567245
-0.00216212
-0.000575209
-0.00203537
-0.000580664
-0.0019079
-0.000583524
-0.00178028
-0.000583715
-0.00165308
-0.000581171
-0.00152688
-0.000575838
-0.00140229
-0.000567673
-0.00127989
-0.000556647
-0.00116027
-0.00054275
-0.00104403
-0.000525984
-0.000931748
-0.000506379
-0.000823987
-0.000483984
-0.000721295
-0.000458878
-0.00062419
-0.000431174
-0.000533158
-0.00040102
-0.000448643
-0.000368614
-0.000371036
-0.000334204
-0.000300667
-0.000298104
-0.000237794
-0.000260708
-0.000182589
-0.0002225
-0.000135128
-0.00018408
-9.53752e-05
-0.000146186
-6.31736e-05
-0.000109719
-3.82299e-05
-7.57853e-05
-2.01062e-05
-4.57318e-05
-8.21247e-06
-2.11885e-05
-1.80447e-06
-4.11354e-06
3.02141e-06
-2.89969e-06
2.98101e-07
-1.22864e-05
1.55615e-05
-2.877e-05
4.15851e-05
-5.28337e-05
7.52199e-05
-8.48499e-05
0.000114346
-0.000125076
0.00015724
-0.000173654
0.00020246
-0.000230615
0.000248811
-0.000295885
0.000295313
-0.000369293
0.000341163
-0.000450583
0.000385709
-0.000539425
0.000428428
-0.000635422
0.0004689
-0.000738124
0.000506794
-0.000847036
0.000541855
-0.000961626
0.000573887
-0.00108133
0.000602747
-0.00120557
0.000628334
-0.00133375
0.000650587
-0.00146526
0.00066947
-0.00159948
0.000684979
-0.0017358
0.000697126
-0.00187361
0.000705946
-0.00201231
0.000711487
-0.00215129
0.000713809
-0.00228997
0.000712987
-0.00242778
0.000709101
-0.00256415
0.000702242
-0.00269855
0.000692504
-0.00283045
0.000679989
-0.00295934
0.000664803
-0.00308474
0.000647056
-0.00320619
0.00062686
-0.00332323
0.00060433
-0.00343545
0.000579584
-0.00354245
0.000552742
-0.00364384
0.000523924
-0.00373928
0.000493252
-0.00382843
0.000460851
-0.00391099
0.000426844
-0.00398667
0.000391357
-0.00405521
0.000354516
-0.00411638
0.00031645
-0.00416997
0.000277286
-0.00421579
0.000237155
-0.00425368
0.000196187
-0.00428352
0.000154514
-0.00430518
0.000112269
-0.00431858
6.95868e-05
-0.00432368
2.66037e-05
-0.00432043
-1.65429e-05
-0.00430884
-5.9714e-05
-0.00428894
-0.000102769
-0.00426076
-0.000145565
-0.00422439
-0.00018796
-0.00417994
-0.000229806
-0.00412753
-0.000270959
-0.00406734
-0.000311269
-0.00399956
-0.000350588
-0.00392439
-0.000388765
-0.0038421
-0.00042565
-0.00375296
-0.000461093
-0.00365727
-0.000494941
-0.00355536
-0.000527045
-0.00344761
-0.000557255
-0.00333438
-0.000585423
-0.00321612
-0.000611404
-0.00309324
-0.000635054
-0.00296623
-0.000656233
-0.00283558
-0.000674805
-0.0027018
-0.00069064
-0.00256543
-0.000703612
-0.00242704
-0.000713605
-0.00228719
-0.000720507
-0.0021465
-0.000724219
-0.00200556
-0.00072465
-0.00186501
-0.000721722
-0.00172548
-0.000715372
-0.0015876
-0.000705549
-0.00145203
-0.000692223
-0.00131939
-0.000675383
-0.00119034
-0.000655039
-0.00106549
-0.000631228
-0.000945456
-0.000604017
-0.000830827
-0.000573507
-0.000722162
-0.000539839
-0.000619986
-0.000503197
-0.000524779
-0.000463821
-0.000436968
-0.000422014
-0.000356919
-0.000378153
-0.000284926
-0.000332701
-0.0002212
-0.000286226
-0.000165859
-0.000239421
-0.000118919
-0.000193126
-8.0284e-05
-0.000148354
-4.97404e-05
-0.000106329
-2.69517e-05
-6.85207e-05
-1.14592e-05
-3.66811e-05
-2.69236e-06
-1.28804e-05
3.28991e-07
-3.80945e-06
4.10754e-06
-1.56311e-05
2.7383e-05
-3.58418e-05
6.17958e-05
-6.47444e-05
0.000104123
-0.000102566
0.000152168
-0.000149447
0.000204121
-0.000205435
0.000258448
-0.000270482
0.000313858
-0.000344448
0.00036928
-0.00042711
0.000423824
-0.000518161
0.000476761
-0.00061723
0.000527497
-0.000723879
0.000575549
-0.00083762
0.000620535
-0.000957919
0.000662154
-0.00108421
0.000700174
-0.00121588
0.000734422
-0.00135232
0.000764776
-0.00149289
0.000791157
-0.00163694
0.00081352
-0.00178382
0.000831853
-0.00193286
0.000846169
-0.00208342
0.000856503
-0.00223484
0.000862909
-0.00238649
0.000865458
-0.00253773
0.000864233
-0.00268796
0.000859328
-0.00283657
0.000850851
-0.00298298
0.000838912
-0.00312662
0.000823633
-0.00326696
0.000805138
-0.00340346
0.000783558
-0.00353563
0.000759028
-0.00366298
0.000731687
-0.00378507
0.000701673
-0.00390146
0.000669131
-0.00401174
0.000634206
-0.00411554
0.000597045
-0.00421248
0.000557797
-0.00430225
0.000516611
-0.00438453
0.000473639
-0.00445905
0.000429034
-0.00452555
0.00038295
-0.0045838
0.000335541
-0.00463361
0.000286965
-0.00467481
0.000237379
-0.00470724
0.000186943
-0.00473079
0.000135818
-0.00474537
8.41662e-05
-0.00475091
3.21524e-05
-0.0047474
-2.00575e-05
-0.00473482
-7.22954e-05
-0.0047132
-0.000124391
-0.00468259
-0.000176174
-0.00464308
-0.000227469
-0.00459478
-0.000278101
-0.00453785
-0.000327895
-0.00447245
-0.00037667
-0.00439879
-0.000424248
-0.00431711
-0.000470447
-0.00422767
-0.000515086
-0.00413078
-0.000557985
-0.00402676
-0.00059896
-0.00391597
-0.000637832
-0.00379881
-0.00067442
-0.00367568
-0.000708548
-0.00354705
-0.00074004
-0.00341337
-0.000768725
-0.00327517
-0.000794435
-0.00313297
-0.000817007
-0.00298732
-0.000836286
-0.00283881
-0.000852124
-0.00268804
-0.000864379
-0.00253562
-0.000872923
-0.0023822
-0.000877636
-0.00222844
-0.000878412
-0.002075
-0.000875161
-0.00192257
-0.000867808
-0.00177182
-0.000856298
-0.00162345
-0.000840597
-0.00147813
-0.000820694
-0.00133657
-0.000796607
-0.00119941
-0.000768384
-0.00106732
-0.000736108
-0.000940924
-0.000699904
-0.000820822
-0.00065994
-0.000707579
-0.00061644
-0.000601712
-0.000569687
-0.00050369
-0.000520037
-0.000413915
-0.000467927
-0.000332725
-0.000413891
-0.000260376
-0.000358575
-0.000197039
-0.000302759
-0.000142789
-0.000247375
-9.76049e-05
-0.000193538
-6.13616e-05
-0.000142572
-3.3834e-05
-9.60482e-05
-1.47024e-05
-5.58127e-05
-3.56976e-06
-2.40131e-05
-3.24076e-06
-4.69814e-06
8.8057e-06
-1.89291e-05
4.1614e-05
-4.28548e-05
8.57213e-05
-7.66054e-05
0.000137873
-0.000120263
0.000195825
-0.000173845
0.000257703
-0.000237295
0.000321899
-0.000310482
0.000387045
-0.000393193
0.00045199
-0.00048514
0.000515772
-0.000585966
0.000577588
-0.000695248
0.000636779
-0.000812505
0.000692806
-0.000937207
0.000745237
-0.00106878
0.000793727
-0.00120662
0.000838009
-0.00135007
0.00087788
-0.0014985
0.000913198
-0.0016512
0.000943865
-0.00180751
0.000969827
-0.00196672
0.000991064
-0.00212814
0.00100759
-0.00229107
0.00101944
-0.00245483
0.00102667
-0.00261874
0.00102937
-0.00278213
0.00102762
-0.00294434
0.00102154
-0.00310474
0.00101125
-0.00326271
0.000996882
-0.00341765
0.000978571
-0.00356898
0.000956465
-0.00371613
0.000930717
-0.00385859
0.000901484
-0.00399583
0.000868928
-0.00412737
0.000833215
-0.00425276
0.000794513
-0.00437154
0.000752994
-0.00448333
0.00070883
-0.00458773
0.000662197
-0.00468439
0.000613273
-0.00477299
0.000562236
-0.00485322
0.000509266
-0.00492482
0.000454547
-0.00498754
0.000398261
-0.00504117
0.000340593
-0.00508552
0.000281732
-0.00512044
0.000221865
-0.00514581
0.000161184
-0.00516152
9.98805e-05
-0.00516752
3.81496e-05
-0.00516376
-2.3812e-05
-0.00515025
-8.58053e-05
-0.00512702
-0.000147629
-0.00509411
-0.000209081
-0.00505162
-0.000269954
-0.00499968
-0.000330043
-0.00493844
-0.000389137
-0.00486809
-0.000447025
-0.00478884
-0.000503496
-0.00470095
-0.000558336
-0.0046047
-0.000611331
-0.00450042
-0.000662266
-0.00438845
-0.000710927
-0.00426918
-0.000757102
-0.00414303
-0.000800579
-0.00401043
-0.000841149
-0.00387186
-0.000878605
-0.00372784
-0.000912746
-0.0035789
-0.000943375
-0.0034256
-0.000970303
-0.00326854
-0.000993345
-0.00310834
-0.00101233
-0.00294563
-0.00102709
-0.00278107
-0.00103748
-0.00261535
-0.00104336
-0.00244916
-0.0010446
-0.00228321
-0.00104111
-0.00211823
-0.00103279
-0.00195494
-0.00101959
-0.00179407
-0.00100147
-0.00163635
-0.000978413
-0.0014825
-0.000950452
-0.00133324
-0.000917645
-0.00118926
-0.000880092
-0.00105122
-0.00083794
-0.000919773
-0.000791388
-0.000795518
-0.000740695
-0.000679015
-0.00068619
-0.000570773
-0.000628279
-0.000471241
-0.000567459
-0.000380802
-0.00050433
-0.000299765
-0.000439612
-0.00022836
-0.000374164
-0.000166732
-0.000309003
-0.00011494
-0.00024533
-7.29563e-05
-0.000184556
-4.06713e-05
-0.000128333
-1.79051e-05
-7.85788e-05
-4.42786e-06
-3.74904e-05
-7.66856e-06
-5.5615e-06
1.43672e-05
-2.2159e-05
5.82115e-05
-4.97606e-05
0.000113323
-8.83326e-05
0.000176445
-0.000137813
0.000245306
-0.000198098
0.000317988
-0.000269025
0.000392826
-0.00035037
0.00046839
-0.000441843
0.000543463
-0.000543088
0.000617017
-0.000653688
0.000688187
-0.000773166
0.000756257
-0.000900993
0.000820634
-0.00103659
0.000880838
-0.00117935
0.000936485
-0.00132862
0.000987274
-0.00148371
0.00103298
-0.00164394
0.00107342
-0.00180858
0.00110851
-0.00197691
0.00113816
-0.0021482
0.00116235
-0.00232172
0.0011811
-0.00249672
0.00119444
-0.0026725
0.00120245
-0.00284833
0.00120519
-0.00302351
0.0012028
-0.00319734
0.00119538
-0.00336917
0.00118307
-0.00353832
0.00116604
-0.00370417
0.00114442
-0.00386611
0.0011184
-0.00402355
0.00108815
-0.00417592
0.00105385
-0.00432269
0.00101569
-0.00446333
0.000973858
-0.00459736
0.000928549
-0.00472433
0.000879962
-0.0048438
0.000828299
-0.00495537
0.000773763
-0.00505865
0.000716561
-0.00515332
0.000656899
-0.00523904
0.000594989
-0.00531554
0.000531043
-0.00538255
0.000465273
-0.00543985
0.000397896
-0.00548725
0.000329129
-0.00552458
0.000259193
-0.0055517
0.000188309
-0.00556852
0.000116701
-0.00557497
4.45972e-05
-0.00557101
-2.77744e-05
-0.00555663
-0.000100182
-0.00553187
-0.000172391
-0.00549678
-0.000244166
-0.00545147
-0.000315267
-0.00539606
-0.000385454
-0.00533071
-0.000454482
-0.00525563
-0.000522107
-0.00517105
-0.000588082
-0.00507722
-0.000652159
-0.00497446
-0.000714089
-0.00486311
-0.000773623
-0.00474352
-0.000830513
-0.00461611
-0.000884512
-0.00448132
-0.000935374
-0.00433961
-0.000982856
-0.00419149
-0.00102672
-0.0040375
-0.00106674
-0.00387821
-0.00110267
-0.0037142
-0.00113431
-0.00354611
-0.00116144
-0.00337459
-0.00118385
-0.0032003
-0.00120137
-0.00302396
-0.00121382
-0.00284628
-0.00122104
-0.00266799
-0.00122289
-0.00248984
-0.00121926
-0.00231259
-0.00121004
-0.00213702
-0.00119516
-0.00196389
-0.0011746
-0.00179397
-0.00114833
-0.00162803
-0.0011164
-0.00146681
-0.00107886
-0.00131105
-0.00103585
-0.00116147
-0.000987524
-0.00101874
-0.000934118
-0.00088351
-0.000875925
-0.000756384
-0.000813316
-0.000637916
-0.000746747
-0.000528605
-0.000676771
-0.000428884
-0.000604051
-0.000339122
-0.000529374
-0.000259613
-0.000453672