/*--------------------------------*- C++ -*----------------------------------*\
  =========                 |
  \\      /  F ield         | OpenFOAM: The Open Source CFD Toolbox
   \\    /   O peration     | Website:  https://openfoam.org
    \\  /    A nd           | Version:  11
     \\/     M anipulation  |
\*---------------------------------------------------------------------------*/
FoamFile
{
    format      ascii;
    class       surfaceScalarField;
    location    "5.4";
    object      phi;
}
// * * * * * * * * * * * * * * * * * * * * * * * * * * * * * * * * * * * * * //

dimensions      [0 3 -1 0 0 0 0];

internalField   nonuniform List<scalar> 
19980
(
6.76368e-07
-6.77529e-07
2.41739e-06
-1.74084e-06
4.26596e-06
-1.84857e-06
5.72967e-06
-1.4637e-06
6.47409e-06
-7.44463e-07
6.32769e-06
1.46239e-07
5.20922e-06
1.11849e-06
3.09046e-06
2.11881e-06
-1.99098e-08
3.11046e-06
-4.09212e-06
4.07218e-06
-9.08062e-06
4.98886e-06
-1.49331e-05
5.85236e-06
-2.15897e-05
6.65677e-06
-2.89891e-05
7.39935e-06
-3.70656e-05
8.07648e-06
-4.57526e-05
8.68704e-06
-5.49843e-05
9.23157e-06
-6.46948e-05
9.71054e-06
-7.48194e-05
1.01247e-05
-8.52949e-05
1.04755e-05
-9.6059e-05
1.07642e-05
-0.000107051
1.09916e-05
-0.000118211
1.11598e-05
-0.000129482
1.1271e-05
-0.000140809
1.1327e-05
-0.000152138
1.13292e-05
-0.000163418
1.12795e-05
-0.000174597
1.11799e-05
-0.00018563
1.10324e-05
-0.000196469
1.0839e-05
-0.000207071
1.06019e-05
-0.000217394
1.03231e-05
-0.000227398
1.00047e-05
-0.000237047
9.64913e-06
-0.000246306
9.25838e-06
-0.000255139
8.83378e-06
-0.000263516
8.37685e-06
-0.000271406
7.88974e-06
-0.000278781
7.37487e-06
-0.000285615
6.8343e-06
-0.000291885
6.26961e-06
-0.000297567
5.68253e-06
-0.000302643
5.07531e-06
-0.000307093
4.4503e-06
-0.000310903
3.80974e-06
-0.000314058
3.15557e-06
-0.000316548
2.48962e-06
-0.000318362
1.81382e-06
-0.000319492
1.13016e-06
-0.000319933
4.4092e-07
-0.000319682
-2.51365e-07
-0.000318737
-9.44265e-07
-0.000317102
-1.63547e-06
-0.000314779
-2.32292e-06
-0.000311774
-3.00461e-06
-0.000308096
-3.67821e-06
-0.000303755
-4.34113e-06
-0.000298764
-4.99068e-06
-0.00029314
-5.62414e-06
-0.000286901
-6.23905e-06
-0.000280068
-6.83311e-06
-0.000272664
-7.40385e-06
-0.000264715
-7.94866e-06
-0.000256251
-8.46489e-06
-0.000247301
-8.94979e-06
-0.0002379
-9.40079e-06
-0.000228084
-9.81554e-06
-0.000217893
-1.01917e-05
-0.000207366
-1.05268e-05
-0.000196548
-1.08184e-05
-0.000185484
-1.1064e-05
-0.000174223
-1.12612e-05
-0.000162815
-1.14078e-05
-0.000151313
-1.15016e-05
-0.000139773
-1.15405e-05
-0.00012825
-1.15226e-05
-0.000116804
-1.14463e-05
-0.000105493
-1.13104e-05
-9.438e-05
-1.11133e-05
-8.35266e-05
-1.08534e-05
-7.29967e-05
-1.05298e-05
-6.28552e-05
-1.01415e-05
-5.31671e-05
-9.68807e-06
-4.39976e-05
-9.16948e-06
-3.54112e-05
-8.58636e-06
-2.74715e-05
-7.93979e-06
-2.024e-05
-7.23145e-06
-1.37762e-05
-6.46381e-06
-8.13582e-06
-5.64039e-06
-3.36965e-06
-4.76621e-06
4.78751e-07
-3.84847e-06
3.37632e-06
-2.89758e-06
5.30502e-06
-1.92869e-06
6.26925e-06
-9.64254e-07
6.30774e-06
-3.85245e-08
5.51264e-06
7.95086e-07
4.05986e-06
1.45284e-06
2.2601e-06
1.79984e-06
6.49037e-07
1.61104e-06
6.49054e-07
1.46705e-06
-2.14459e-06
4.22632e-06
-4.5003e-06
6.95078e-06
-4.57295e-06
8.59238e-06
-3.10533e-06
8.48509e-06
-6.36768e-07
6.19858e-06
2.43279e-06
1.48918e-06
5.82791e-06
-5.75438e-06
9.36241e-06
-1.55544e-05
1.29103e-05
-2.78685e-05
1.63864e-05
-4.26109e-05
1.9731e-05
-5.96636e-05
2.29051e-05
-7.88882e-05
2.58814e-05
-0.000100131
2.86417e-05
-0.000123227
3.11727e-05
-0.000148007
3.34673e-05
-0.000174297
3.55219e-05
-0.000201922
3.73357e-05
-0.000230708
3.891e-05
-0.000260479
4.02473e-05
-0.000291066
4.1351e-05
-0.0003223
4.22251e-05
-0.000354015
4.28755e-05
-0.000386052
4.3308e-05
-0.000418254
4.35291e-05
-0.00045047
4.35449e-05
-0.000482552
4.33619e-05
-0.00051436
4.29877e-05
-0.000545757
4.24294e-05
-0.000576612
4.16942e-05
-0.0006068
4.07898e-05
-0.000636201
3.97241e-05
-0.000664701
3.85051e-05
-0.000692193
3.71407e-05
-0.000718573
3.56382e-05
-0.000743744
3.40045e-05
-0.000767614
3.2247e-05
-0.000790097
3.03732e-05
-0.000811113
2.83911e-05
-0.000830587
2.63084e-05
-0.00084845
2.41326e-05
-0.000864639
2.18714e-05
-0.000879097
1.95329e-05
-0.000891772
1.71253e-05
-0.000902619
1.46567e-05
-0.000911599
1.21352e-05
-0.000918677
9.56836e-06
-0.000923828
6.96428e-06
-0.000927029
4.33115e-06
-0.000928266
1.6775e-06
-0.000927529
-9.87726e-07
-0.000924818
-3.65557e-06
-0.000920136
-6.31721e-06
-0.000913495
-8.96385e-06
-0.000904913
-1.15867e-05
-0.000894414
-1.41768e-05
-0.000882031
-1.67247e-05
-0.000867801
-1.92206e-05
-0.00085177
-2.16549e-05
-0.000833991
-2.40177e-05
-0.000814525
-2.62994e-05
-0.000793439
-2.84904e-05
-0.000770807
-3.05808e-05
-0.000746711
-3.25606e-05
-0.00072124
-3.44202e-05
-0.000694491
-3.61499e-05
-0.000666567
-3.77401e-05
-0.000637577
-3.91816e-05
-0.000607639
-4.04648e-05
-0.000576877
-4.15805e-05
-0.000545421
-4.25197e-05
-0.000513408
-4.32737e-05
-0.000480982
-4.38343e-05
-0.00044829
-4.41934e-05
-0.000415487
-4.43436e-05
-0.000382732
-4.4278e-05
-0.000350188
-4.39902e-05
-0.000318023
-4.34749e-05
-0.000286409
-4.27271e-05
-0.00025552
-4.17427e-05
-0.000225532
-4.05184e-05
-0.000196621
-3.9052e-05
-0.000168966
-3.73432e-05
-0.000142742
-3.5393e-05
-0.000118124
-3.32046e-05
-9.52804e-05
-3.07835e-05
-7.43737e-05
-2.81382e-05
-5.55569e-05
-2.52806e-05
-3.897e-05
-2.22274e-05
-2.47345e-05
-1.90017e-05
-1.29475e-05
-1.56355e-05
-3.67237e-06
-1.21727e-05
3.07386e-06
-8.67498e-06
7.3383e-06
-5.22872e-06
9.25718e-06
-1.95742e-06
9.09118e-06
9.61043e-07
7.27293e-06
3.27105e-06
4.4644e-06
4.60834e-06
1.60769e-06
4.46772e-06
2.25678e-06
1.62441e-06
-3.76904e-06
4.09299e-06
-6.96884e-06
5.94823e-06
-6.42807e-06
5.99203e-06
-3.14923e-06
3.37523e-06
1.97993e-06
-2.47036e-06
8.27835e-06
-1.18944e-05
1.5252e-05
-2.50802e-05
2.25485e-05
-4.20865e-05
2.99166e-05
-6.28755e-05
3.71755e-05
-8.7344e-05
4.41997e-05
-0.000115335
5.08962e-05
-0.000146656
5.72018e-05
-0.000181084
6.30706e-05
-0.000218382
6.84705e-05
-0.000258296
7.33812e-05
-0.000300565
7.77905e-05
-0.000344921
8.16926e-05
-0.000391098
8.50865e-05
-0.000438825
8.79747e-05
-0.000487837
9.03627e-05
-0.00053787
9.22582e-05
-0.000588666
9.36711e-05
-0.000639971
9.46131e-05
-0.000691538
9.50961e-05
-0.000743126
9.51333e-05
-0.000794503
9.47391e-05
-0.000845444
9.39281e-05
-0.00089573
9.27153e-05
-0.000945152
9.11166e-05
-0.00099351
8.91479e-05
-0.00104061
8.68259e-05
-0.00108627
8.41672e-05
-0.00113032
8.11883e-05
-0.00117259
7.79057e-05
-0.00121292
7.43355e-05
-0.00125117
7.04938e-05
-0.00128719
6.63976e-05
-0.00132086
6.20637e-05
-0.00135206
5.7509e-05
-0.00138068
5.27505e-05
-0.00140662
4.78053e-05
-0.00142977
4.26907e-05
-0.00145007
3.74246e-05
-0.00146744
3.20246e-05
-0.00148181
2.65082e-05
-0.00149314
2.08933e-05
-0.00150137
1.51975e-05
-0.00150648
9.43915e-06
-0.00150844
3.63698e-06
-0.00150724
-2.18995e-06
-0.00150287
-8.02224e-06
-0.00149535
-1.38405e-05
-0.00148469
-1.96253e-05
-0.00147092
-2.53569e-05
-0.00145408
-3.10153e-05
-0.00143422
-3.65801e-05
-0.00141141
-4.20303e-05
-0.00138572
-4.7345e-05
-0.00135724
-5.2503e-05
-0.00132605
-5.7483e-05
-0.00129228
-6.22639e-05
-0.00125604
-6.68246e-05
-0.00121745
-7.11435e-05
-0.00117667
-7.51994e-05
-0.00113385
-7.89715e-05
-0.00108915
-8.24391e-05
-0.00104275
-8.55814e-05
-0.00099484
-8.83784e-05
-0.000945611
-9.08102e-05
-0.000895273
-9.28577e-05
-0.000844044
-9.45022e-05
-0.000792152
-9.57263e-05
-0.000739832
-9.65131e-05
-0.000687329
-9.68469e-05
-0.000634894
-9.6713e-05
-0.000582786
-9.60986e-05
-0.000531268
-9.49923e-05
-0.000480611
-9.33844e-05
-0.000431087
-9.1267e-05
-0.00038297
-8.86346e-05
-0.000336538
-8.54847e-05
-0.000292064
-8.18175e-05
-0.000249819
-7.76375e-05
-0.00021007
-7.29537e-05
-0.000173073
-6.77805e-05
-0.000139072
-6.21388e-05
-0.000108295
-5.60581e-05
-8.09437e-05
-4.95785e-05
-5.7191e-05
-4.27545e-05
-3.71675e-05
-3.56591e-05
-2.09496e-05
-2.83907e-05
-8.54221e-06
-2.10823e-05
1.43683e-07
-1.39146e-05
5.32096e-06
-7.13478e-06
7.36293e-06
-1.08088e-06
6.8491e-06
3.78496e-06
4.61422e-06
6.84327e-06
1.79778e-06
7.28419e-06
4.05451e-06
1.21908e-06
-4.98798e-06
2.58875e-06
-8.3386e-06
2.54144e-06
-6.38085e-06
-1.515e-07
-4.56281e-07
-6.39404e-06
8.22273e-06
-1.68132e-05
1.86973e-05
-3.1811e-05
3.025e-05
-5.16103e-05
4.23479e-05
-7.62909e-05
5.45971e-05
-0.000105823
6.67073e-05
-0.000140087
7.84644e-05
-0.000178901
8.97102e-05
-0.00022203
0.000100331
-0.000269201
0.000110242
-0.000320115
0.000119384
-0.00037445
0.000127716
-0.000431872
0.000135213
-0.000492038
0.000141858
-0.000554598
0.000147647
-0.000619202
0.000152579
-0.0006855
0.00015666
-0.000753144
0.000159903
-0.000821793
0.00016232
-0.00089111
0.00016393
-0.000960767
0.000164752
-0.00103044
0.000164808
-0.00109982
0.000164121
-0.00116861
0.000162715
-0.00123651
0.000160615
-0.00130324
0.000157848
-0.00136853
0.000154441
-0.00143213
0.000150422
-0.00149378
0.000145819
-0.00155325
0.00014066
-0.00161032
0.000134973
-0.00166477
0.000128787
-0.00171641
0.00012213
-0.00176504
0.000115032
-0.0018105
0.000107521
-0.00185262
9.96269e-05
-0.00189125
9.13792e-05
-0.00192625
8.28079e-05
-0.0019575
7.39429e-05
-0.00198489
6.4815e-05
-0.00200832
5.54548e-05
-0.00202771
4.5893e-05
-0.00204297
3.61606e-05
-0.00205406
2.62889e-05
-0.00206094
1.63098e-05
-0.00206355
6.25599e-06
-0.0020619
-3.83975e-06
-0.00205598
-1.3944e-05
-0.0020458
-2.40231e-05
-0.00203138
-3.40431e-05
-0.00201277
-4.39696e-05
-0.00199002
-5.37676e-05
-0.0019632
-6.34018e-05
-0.00193239
-7.28364e-05
-0.0018977
-8.20349e-05
-0.00185924
-9.0961e-05
-0.00181715
-9.95784e-05
-0.00177156
-0.00010785
-0.00172264
-0.00011574
-0.00167058
-0.00012321
-0.00161555
-0.000130226
-0.00155777
-0.00013675
-0.00149747
-0.000142746
-0.00143487
-0.000148181
-0.00137023
-0.000153018
-0.00130381
-0.000157225
-0.0012359
-0.000160769
-0.00116678
-0.000163619
-0.00109677
-0.000165744
-0.00102616
-0.000167117
-0.000955298
-0.00016771
-0.00088451
-0.000167501
-0.000814141
-0.000166468
-0.000744542
-0.000164591
-0.00067607
-0.000161857
-0.000609083
-0.000158253
-0.000543946
-0.000153772
-0.00048102
-0.000148411
-0.000420663
-0.000142174
-0.00036323
-0.000135071
-0.000309063
-0.000127121
-0.000258492
-0.000118351
-0.00021183
-0.000108801
-0.00016936
-9.85274e-05
-0.000131337
-8.7602e-05
-9.79689e-05
-7.61224e-05
-6.94114e-05
-6.42165e-05
-4.57489e-05
-5.20531e-05
-2.69769e-05
-3.98543e-05
-1.29782e-05
-2.79135e-05
-3.49431e-06
-1.66187e-05
1.90828e-06
-6.48337e-06
3.87804e-06
1.8152e-06
3.32249e-06
7.3988e-06
1.46399e-06
9.14272e-06
5.51844e-06
5.57021e-07
-5.54507e-06
2.2057e-07
-8.00186e-06
-2.48475e-06
-3.67562e-06
-8.74406e-06
5.8032e-06
-1.94443e-05
1.89231e-05
-3.52137e-05
3.44666e-05
-5.6464e-05
5.15002e-05
-8.34273e-05
6.93113e-05
-0.000116189
8.73587e-05
-0.000154715
0.000105233
-0.000198874
0.000122623
-0.000248459
0.000139295
-0.0003032
0.000155072
-0.000362784
0.000169825
-0.000426859
0.000183459
-0.000495048
0.000195906
-0.000566956
0.00020712
-0.000642171
0.000217074
-0.000720277
0.000225752
-0.00080085
0.000233152
-0.000883468
0.000239278
-0.000967709
0.000244144
-0.00105316
0.000247769
-0.0011394
0.000250175
-0.00122604
0.000251391
-0.00131268
0.000251448
-0.00139894
0.000250379
-0.00148444
0.000248219
-0.00156883
0.000245005
-0.00165176
0.000240778
-0.0017329
0.000235577
-0.00181192
0.000229443
-0.00188852
0.00022242
-0.00196241
0.000214548
-0.00203331
0.00020587
-0.00210095
0.000196431
-0.0021651
0.000186274
-0.00222551
0.000175443
-0.00228197
0.000163982
-0.00233428
0.000151937
-0.00238225
0.000139353
-0.00242572
0.000126274
-0.00246452
0.000112747
-0.00249853
9.88198e-05
-0.00252761
8.45379e-05
-0.00255167
6.99488e-05
-0.00257061
5.50999e-05
-0.00258436
4.00397e-05
-0.00259286
2.48168e-05
-0.00259609
9.48115e-06
-0.00259401
-5.91709e-06
-0.00258663
-2.13272e-05
-0.00257395
-3.66976e-05
-0.00255602
-5.19763e-05
-0.00253288
-6.71109e-05
-0.0025046
-8.20479e-05
-0.00247127
-9.67333e-05
-0.00243299
-0.000111113
-0.0023899
-0.000125131
-0.00234212
-0.000138733
-0.00228984
-0.000151863
-0.00223322
-0.000164466
-0.00217248
-0.000176485
-0.00210782
-0.000187866
-0.0020395
-0.000198553
-0.00196775
-0.000208492
-0.00189287
-0.000217628
-0.00181514
-0.000225908
-0.00173488
-0.000233281
-0.00165241
-0.000239697
-0.00156808
-0.000245105
-0.00148223
-0.00024946
-0.00139526
-0.000252716
-0.00130755
-0.000254833
-0.00121949
-0.000255771
-0.00113149
-0.000255495
-0.00104398
-0.000253975
-0.000957393
-0.000251183
-0.00087215
-0.0002471
-0.000788695
-0.000241708
-0.000707467
-0.000235
-0.000628903
-0.000226975
-0.000553435
-0.000217641
-0.000481489
-0.000207018
-0.000413473
-0.000195137
-0.000349779
-0.000182044
-0.000290776
-0.000167805
-0.000236798
-0.000152506
-0.000188137
-0.000136263
-0.000145034
-0.000119225
-0.000107666
-0.000101585
-7.61259e-05
-8.3593e-05
-5.04092e-05
-6.55711e-05
-3.03881e-05
-4.79346e-05
-1.57876e-05
-3.12191e-05
-6.15604e-06
-1.6115e-05
-8.31493e-07
-3.50947e-06
1.09562e-06
5.47166e-06
8.32107e-07
9.40621e-06
6.35052e-06
-2.55287e-07
-5.28979e-06
-2.68003e-06
-5.57713e-06
-8.57079e-06
2.21511e-06
-1.89957e-05
1.62279e-05
-3.47683e-05
3.46959e-05
-5.64764e-05
5.61746e-05
-8.45064e-05
7.95304e-05
-0.000119076
0.000103881
-0.000160257
0.00012854
-0.000208002
0.000152978
-0.000262158
0.00017678
-0.000322495
0.000199632
-0.000388713
0.00022129
-0.000460459
0.000241572
-0.000537339
0.00026034
-0.000618928
0.000277495
-0.000704774
0.000292967
-0.000794412
0.000306712
-0.000887363
0.000318703
-0.000983141
0.00032893
-0.00108126
0.000337397
-0.00118123
0.000344116
-0.00128258
0.000349112
-0.00138481
0.000352413
-0.00148748
0.000354054
-0.0015901
0.000354078
-0.00169225
0.000352527
-0.00179349
0.000349452
-0.00189338
0.000344901
-0.00199153
0.000338929
-0.00208755
0.000331592
-0.00218105
0.000322945
-0.00227168
0.000313048
-0.00235909
0.000301958
-0.00244295
0.000289737
-0.00252297
0.000276444
-0.00259883
0.000262141
-0.00267028
0.00024689
-0.00273705
0.000230753
-0.00279891
0.000213794
-0.00285563
0.000196076
-0.00290702
0.000177663
-0.0029529
0.000158621
-0.00299309
0.000139014
-0.00302746
0.00011891
-0.00305589
9.83731e-05
-0.00307826
7.74721e-05
-0.00309449
5.62749e-05
-0.00310453
3.48504e-05
-0.00310831
1.32686e-05
-0.00310583
-8.39981e-06
-0.00309708
-3.00832e-05
-0.00308206
-5.17092e-05
-0.00306084
-7.32047e-05
-0.00303345
-9.44953e-05
-0.00299999
-0.000115506
-0.00296056
-0.000136161
-0.00291529
-0.000156384
-0.00286433
-0.000176098
-0.00280783
-0.000195225
-0.00274601
-0.000213688
-0.00267906
-0.000231409
-0.00260724
-0.000248309
-0.00253079
-0.000264312
-0.00245001
-0.00027934
-0.00236518
-0.000293316
-0.00227664
-0.000306166
-0.00218474
-0.000317816
-0.00208982
-0.000328194
-0.00199229
-0.000337229
-0.00189254
-0.000344855
-0.00179099
-0.000351006
-0.00168809
-0.000355622
-0.00158428
-0.000358645
-0.00148002
-0.000360023
-0.00137581
-0.000359708
-0.00127213
-0.000357658
-0.00116947
-0.00035384
-0.00106835
-0.000348225
-0.000969257
-0.000340796
-0.000872715
-0.000331543
-0.000779222
-0.000320468
-0.000689276
-0.000307588
-0.000603362
-0.000292932
-0.000521948
-0.00027655
-0.000445481
-0.000258511
-0.000374376
-0.00023891
-0.000309009
-0.000217873
-0.000249711
-0.000195561
-0.000196751
-0.000172185
-0.000150327
-0.000148009
-0.000110548
-0.000123372
-7.74202e-05
-9.86993e-05
-5.08228e-05
-7.4532e-05
-3.04902e-05
-5.15518e-05
-1.59861e-05
-3.06191e-05
-6.6783e-06
-1.28172e-05
-1.71008e-06
5.03455e-07
3.49387e-08
7.66113e-06
6.38546e-06
-1.14691e-06
-4.14287e-06
-5.89128e-06
-8.32722e-07
-1.53112e-05
1.16352e-05
-3.03115e-05
3.12281e-05
-5.15956e-05
5.598e-05
-7.96744e-05
8.42535e-05
-0.000114883
0.000114739
-0.000157403
0.0001464
-0.000207274
0.000178412
-0.000264422
0.000210126
-0.000328672
0.000241029
-0.000399761
0.000270721
-0.000477358
0.000298888
-0.000561077
0.00032529
-0.000650483
0.000349745
-0.000745106
0.000372117
-0.000844448
0.000392309
-0.000947992
0.000410256
-0.00105521
0.000425917
-0.00116555
0.000439274
-0.00127848
0.000450325
-0.00139345
0.000459084
-0.00150991
0.000465577
-0.00162734
0.000469839
-0.0017452
0.000471914
-0.00186297
0.000471852
-0.00198016
0.000469711
-0.00209626
0.000465552
-0.0022108
0.000459441
-0.00232331
0.000451446
-0.00243336
0.000441639
-0.00254051
0.000430096
-0.00264435
0.000416891
-0.0027445
0.000402103
-0.00284057
0.000385811
-0.00293222
0.000368094
-0.00301912
0.000349035
-0.00310094
0.000328714
-0.00317741
0.000307216
-0.00324824
0.000284624
-0.00331318
0.000261023
-0.00337202
0.000236498
-0.00342453
0.000211135
-0.00347054
0.000185023
-0.00350988
0.000158248
-0.0035424
0.000130899
-0.003568
0.000103067
-0.00358657
7.48422e-05
-0.00359803
4.63165e-05
-0.00360235
1.75832e-05
-0.00359948
-1.12636e-05
-0.00358944
-4.01287e-05
-0.00357223
-6.89155e-05
-0.00354791
-9.75266e-05
-0.00351654
-0.000125863
-0.00347822
-0.000153826
-0.00343307
-0.000181313
-0.00338123
-0.000208225
-0.00332287
-0.000234457
-0.00325819
-0.000259908
-0.0031874
-0.000284475
-0.00311075
-0.000308055
-0.00302852
-0.000330543
-0.00294099
-0.000351839
-0.00284849
-0.000371839
-0.00275137
-0.000390444
-0.00264998
-0.000407554
-0.00254472
-0.000423071
-0.00243602
-0.000436902
-0.00232429
-0.000448955
-0.00221001
-0.00045914
-0.00209364
-0.000467374
-0.00197568
-0.000473577
-0.00185665
-0.000477676
-0.00173707
-0.000479601
-0.00161749
-0.000479293
-0.00149845
-0.000476699
-0.00138051
-0.000471775
-0.00126425
-0.000464488
-0.00115023
-0.000454818
-0.00103902
-0.000442755
-0.000931177
-0.000428307
-0.000827266
-0.000411499
-0.000727823
-0.000392375
-0.000633369
-0.000371005
-0.000544396
-0.000347484
-0.000461364
-0.000321942
-0.00038469
-0.000294547
-0.000314737
-0.000265514
-0.000251806
-0.000235116
-0.000196119
-0.000203696
-0.00014781
-0.000171681
-0.000106906
-0.000139603
-7.33118e-05
-0.000108126
-4.67923e-05
-7.80714e-05
-2.69545e-05
-5.04569e-05
-1.3229e-05
-2.65426e-05
-4.85228e-06
-7.87332e-06
-8.47575e-07
3.6564e-06
5.53788e-06
-2.07137e-06
-2.07146e-06
-9.26481e-06
6.36067e-06
-2.24226e-05
2.47932e-05
-4.2263e-05
5.10684e-05
-6.93547e-05
8.30716e-05
-0.000104109
0.000119007
-0.000146786
0.000157416
-0.000197509
0.000197123
-0.000256277
0.00023718
-0.000322977
0.000276826
-0.000397398
0.00031545
-0.000479245
0.000352568
-0.000568154
0.000387797
-0.0006637
0.000420836
-0.00076541
0.000451456
-0.000872775
0.000479482
-0.000985254
0.000504788
-0.00110228
0.000527283
-0.00122328
0.000546914
-0.00134765
0.000563649
-0.00147481
0.000577483
-0.00160415
0.000588427
-0.00173509
0.000596509
-0.00186702
0.00060177
-0.00199936
0.000604262
-0.00213156
0.000604046
-0.00226304
0.000601192
-0.00239326
0.000595774
-0.0025217
0.000587875
-0.00264783
0.000577581
-0.00277117
0.000564981
-0.00289124
0.000550168
-0.00300759
0.000533239
-0.00311978
0.00051429
-0.00322739
0.000493423
-0.00333004
0.00047074
-0.00342734
0.000446343
-0.00351897
0.000420336
-0.00360458
0.000392827
-0.00368387
0.000363921
-0.00375658
0.000333727
-0.00382244
0.000302354
-0.00388121
0.000269912
-0.0039327
0.000236513
-0.00397672
0.000202269
-0.00401312
0.000167294
-0.00404175
0.000131702
-0.00406252
9.56104e-05
-0.00407534
5.91361e-05
-0.00408016
2.23984e-05
-0.00407694
-1.44824e-05
-0.00406568
-5.13844e-05
-0.00404641
-8.81847e-05
-0.00401918
-0.000124758
-0.00398407
-0.00016098
-0.00394117
-0.000196721
-0.00389063
-0.000231854
-0.0038326
-0.00026625
-0.00376728
-0.000299778
-0.00369489
-0.000332307
-0.00361565
-0.000363707
-0.00352986
-0.000393846
-0.00343781
-0.000422594
-0.00333983
-0.000449819
-0.00323628
-0.000475393
-0.00312753
-0.000499188
-0.00301401
-0.00052108
-0.00289613
-0.000540944
-0.00277437
-0.000558661
-0.00264921
-0.000574116
-0.00252116
-0.000587197
-0.00239073
-0.000597798
-0.00225849
-0.00060582
-0.00212499
-0.000611171
-0.00199083
-0.000613767
-0.00185659
-0.000613532
-0.00172289
-0.000610402
-0.00159033
-0.000604326
-0.00145956
-0.000595264
-0.00133118
-0.000583193
-0.00120583
-0.000568106
-0.00108412
-0.000550016
-0.000966663
-0.000528959
-0.000854041
-0.000504997
-0.000746825
-0.000478221
-0.000645553
-0.000448756
-0.000550724
-0.00041677
-0.000462795
-0.000382476
-0.000382163
-0.000346146
-0.000309162
-0.000308118
-0.000244046
-0.000268812
-0.00018698
-0.000228747
-0.000138025
-0.000188558
-9.71261e-05
-0.000149026
-6.40966e-05
-0.000111101
-3.86088e-05
-7.59448e-05
-2.0181e-05
-4.49704e-05
-8.17005e-06
-1.98844e-05
-1.76675e-06
-2.74689e-06
3.7711e-06
-3.00505e-06
9.3361e-07
-1.27046e-05
1.60602e-05
-2.97095e-05
4.1798e-05
-5.45471e-05
7.59061e-05
-8.76326e-05
0.000116157
-0.000129259
0.000160634
-0.000179601
0.000207758
-0.000238709
0.000256231
-0.000306524
0.000304995
-0.000382884
0.000353186
-0.000467536
0.000400102
-0.000560147
0.000445178
-0.000660312
0.000487962
-0.000767572
0.000528095
-0.000881413
0.000565298
-0.00100129
0.000599356
-0.00112661
0.00063011
-0.00125677
0.000657449
-0.00139116
0.000681297
-0.00152912
0.000701614
-0.00167003
0.000718386
-0.00181322
0.000731623
-0.00195807
0.000741353
-0.00210392
0.000747624
-0.00225015
0.000750495
-0.00239614
0.000750037
-0.00254129
0.000746334
-0.00268499
0.000739475
-0.00282667
0.000729559
-0.00296578
0.000716689
-0.00310177
0.000700974
-0.00323413
0.000682528
-0.00336236
0.000661468
-0.00348599
0.000637914
-0.00360455
0.000611989
-0.00371763
0.000583818
-0.00382482
0.000553528
-0.00392573
0.000521247
-0.00402001
0.000487108
-0.00410733
0.000451241
-0.00418738
0.000413781
-0.00425989
0.000374862
-0.0043246
0.000334622
-0.00438128
0.000293197
-0.00442974
0.000250728
-0.0044698
0.000207354
-0.00450132
0.00016322
-0.00452418
0.000118467
-0.00453828
7.32435e-05
-0.00454358
2.76954e-05
-0.00454004
-1.80278e-05
-0.00452764
-6.37754e-05
-0.00450643
-0.000109395
-0.00447646
-0.000154732
-0.00443781
-0.000199631
-0.0043906
-0.000243934
-0.00433497
-0.000287482
-0.0042711
-0.000330117
-0.0041992
-0.000371677
-0.00411951
-0.000412
-0.00403229
-0.000450926
-0.00393785
-0.000488292
-0.0038365
-0.000523936
-0.00372862
-0.0005577
-0.00361459
-0.000589423
-0.00349483
-0.000618949
-0.00336979
-0.000646124
-0.00323993
-0.000670797
-0.00310577
-0.000692822
-0.00296783
-0.000712057
-0.00282666
-0.000728366
-0.00268284
-0.00074162
-0.00253696
-0.000751699
-0.00238964
-0.00075849
-0.00224152
-0.000761893
-0.00209323
-0.000761818
-0.00194544
-0.000758188
-0.00179883
-0.000750942
-0.00165406
-0.000740036
-0.00151181
-0.000725443
-0.00137275
-0.000707161
-0.00123756
-0.000685209
-0.00110688
-0.000659636
-0.000981357
-0.000630522
-0.000861597
-0.000597981
-0.000748181
-0.000562171
-0.000641652
-0.000523299
-0.000542502
-0.000481626
-0.000451167
-0.000437481
-0.000368016
-0.000391268
-0.000293343
-0.000343485
-0.000227351
-0.000294738
-0.000170147
-0.000245763
-0.000121727
-0.000197446
-8.19697e-05
-0.000150858
-5.06289e-05
-0.000107286
-2.73275e-05
-6.82718e-05
-1.15589e-05
-3.5653e-05
-2.69358e-06
-1.16122e-05
1.0775e-06
-3.93013e-06
4.86368e-06
-1.61482e-05
2.82784e-05
-3.7045e-05
6.26948e-05
-6.69526e-05
0.000105814
-0.000106131
0.000155336
-0.000154751
0.000209254
-0.00021288
0.000265887
-0.000280489
0.000323841
-0.00035745
0.000381956
-0.000443545
0.00043928
-0.000538468
0.000495025
-0.000641842
0.000548552
-0.00075322
0.000599341
-0.000872101
0.000646976
-0.000997934
0.000691131
-0.00113013
0.00073155
-0.00126806
0.000768043
-0.00141108
0.000800471
-0.00155853
0.000828743
-0.00170972
0.000852804
-0.00186397
0.000872633
-0.00202058
0.000888237
-0.00217887
0.000899646
-0.00233816
0.000906912
-0.00249777
0.000910102
-0.00265703
0.000909298
-0.00281529
0.000904597
-0.00297192
0.000896105
-0.0031263
0.000883936
-0.00327782
0.000868213
-0.00342591
0.000849066
-0.00357002
0.000826629
-0.00370959
0.000801043
-0.00384413
0.00077245
-0.00397314
0.000740998
-0.00409616
0.000706838
-0.00421275
0.000670121
-0.00432251
0.000631004
-0.00442504
0.000589643
-0.00452
0.000546197
-0.00460704
0.000500828
-0.00468588
0.0004537
-0.00475624
0.000404976
-0.00481786
0.000354823
-0.00487054
0.00030341
-0.00491409
0.000250906
-0.00494836
0.000197485
-0.00497321
0.000143319
-0.00498855
8.85859e-05
-0.00499432
3.3463e-05
-0.00499048
-2.18696e-05
-0.00497703
-7.72297e-05
-0.00495399
-0.000132433
-0.00492143
-0.000187294
-0.00487943
-0.000241623
-0.00482814
-0.000295231
-0.00476769
-0.000347928
-0.00469829
-0.000399519
-0.00462015
-0.000449812
-0.00453354
-0.000498612
-0.00443874
-0.000545725
-0.00433608
-0.000590956
-0.0042259
-0.00063411
-0.00410861
-0.000674996
-0.00398461
-0.000713423
-0.00385436
-0.000749201
-0.00371833
-0.000782148
-0.00357705
-0.000812081
-0.00343104
-0.000838826
-0.00328089
-0.000862214
-0.00312717
-0.000882083
-0.00297051
-0.000898279
-0.00281155
-0.000910659
-0.00265095
-0.00091909
-0.00248939
-0.000923453
-0.00232757
-0.000923642
-0.00216618
-0.00091957
-0.00200596
-0.000911165
-0.00184762
-0.000898377
-0.00169188
-0.000881179
-0.00153947
-0.000859571
-0.0013911
-0.00083358
-0.00124747
-0.000803267
-0.00110926
-0.000768733
-0.000977126
-0.000730117
-0.000851687
-0.000687611
-0.000733526
-0.00064146
-0.000623177
-0.000591975
-0.000521117
-0.000539541
-0.000427757
-0.000484628
-0.000343432
-0.00042781
-0.000268395
-0.000369776
-0.000202806
-0.000311352
-0.000146724
-0.000253528
-0.000100104
-0.000197477
-6.27937e-05
-0.000144596
-3.45306e-05
-9.6535e-05
-1.49527e-05
-5.52309e-05
-3.61117e-06
-2.29538e-05
-2.53364e-06
-4.839e-06
9.70282e-06
-1.95573e-05
4.29965e-05
-4.43401e-05
8.74776e-05
-7.93371e-05
0.000140811
-0.000124649
0.000200648
-0.000180315
0.00026492
-0.000246296
0.000331868
-0.000322472
0.000400017
-0.000408638
0.000468123
-0.00050451
0.000535151
-0.000609725
0.000600241
-0.000723856
0.000662682
-0.000846409
0.000721894
-0.000976838
0.000777406
-0.00111455
0.000828844
-0.00125892
0.000875915
-0.00140927
0.000918395
-0.00156492
0.000956124
-0.00172517
0.000988988
-0.00188928
0.00101692
-0.00205654
0.00103989
-0.00222621
0.00105791
-0.00239757
0.001071
-0.00256988
0.00107922
-0.00274243
0.00108265
-0.00291452
0.00108138
-0.00308544
0.00107552
-0.00325453
0.0010652
-0.00342113
0.00105053
-0.0035846
0.00103168
-0.00374431
0.00100878
-0.00389968
0.000982
-0.00405014
0.000951499
-0.00419513
0.000917445
-0.00433415
0.000880012
-0.00446669
0.000839377
-0.00459228
0.000795719
-0.0047105
0.000749221
-0.00482093
0.00070007
-0.00492318
0.000648453
-0.00501692
0.000594561
-0.0051018
0.000538587
-0.00517755
0.000480726
-0.00524391
0.000421174
-0.00530063
0.000360132
-0.00534752
0.000297801
-0.00538442
0.000234384
-0.00541119
0.000170089
-0.00542773
0.000105122
-0.00543396
3.96966e-05
-0.00542986
-2.59757e-05
-0.00541541
-9.16788e-05
-0.00539065
-0.000157195
-0.00535564
-0.000222303
-0.00531048
-0.000286781
-0.00525531
-0.000350405
-0.00519029
-0.000412948
-0.00511562
-0.000474183
-0.00503155
-0.000533881
-0.00493835
-0.000591812
-0.00483633
-0.000647747
-0.00472583
-0.000701456
-0.00460723
-0.000752711
-0.00448094
-0.000801284
-0.00434742
-0.00084695
-0.00420713
-0.000889489
-0.00406059
-0.000928683
-0.00390835
-0.00096432
-0.00375099
-0.000996194
-0.00358909
-0.00102411
-0.00342331
-0.00104787
-0.00325429
-0.0010673
-0.00308272
-0.00108223
-0.00290929
-0.00109251
-0.00273474
-0.00109801
-0.0025598
-0.00109858
-0.00238522
-0.00109415
-0.00221176
-0.00108462
-0.00204019
-0.00106994
-0.00187128
-0.00105009
-0.0017058
-0.00102506
-0.0015445
-0.000994883
-0.00138812
-0.000959647
-0.00123739
-0.000919464
-0.001093
-0.000874503
-0.000955622
-0.000824988
-0.00082588
-0.000771203
-0.000704347
-0.000713508
-0.000591545
-0.000652342
-0.000487931
-0.000588243
-0.000393889
-0.000521851
-0.000309728
-0.000453937
-0.000235668
-0.000385412
-0.000171842
-0.000317354
-0.000118288
-0.000251031
-7.49548e-05
-0.00018793
-4.17011e-05
-0.000129789
-1.83109e-05
-7.86211e-05
-4.51016e-06
-3.67545e-05
-7.04377e-06
-5.72692e-06
1.54297e-05
-2.29096e-05
6.01792e-05
-5.15454e-05
0.000116113
-9.16082e-05
0.000180874
-0.000143048
0.000252087
-0.000205769
0.000327641
-0.000279623
0.000405723
-0.000364392
0.000484785
-0.000459788
0.000563519
-0.000565454
0.000640818
-0.000680968
0.000715754
-0.000805842
0.000787556
-0.000939533
0.000855585
-0.00108145
0.000919321
-0.00123095
0.000978346
-0.00138737
0.00103233
-0.00154999
0.00108102
-0.00171809
0.00112422
-0.00189092
0.00116182
-0.00206772
0.00119372
-0.00224772
0.0012199
-0.00243016
0.00124035
-0.00261426
0.0012551
-0.00279925
0.00126422
-0.00298439
0.00126779
-0.00316893
0.00126592
-0.00335213
0.00125873
-0.00353329
0.00124635
-0.0037117
0.00122895
-0.00388671
0.00120668
-0.00405764
0.00117972
-0.00422388
0.00114824
-0.00438482
0.00111244
-0.00453989
0.00107251
-0.00468853
0.00102865
-0.00483022
0.000981071
-0.00496447
0.000929972
-0.00509082
0.00087557
-0.00520883
0.00081808
-0.0053181
0.000757722
-0.00541826
0.000694716
-0.00550896
0.000629286
-0.00558989
0.000561661
-0.00566078
0.000492068
-0.00572139
0.000420741
-0.00577151
0.000347915
-0.00581095
0.000273825
-0.00583957
0.000198714
-0.00585727
0.000122823
-0.00586398
4.63986e-05
-0.00585964
-3.03116e-05
-0.00584426
-0.000107056
-0.00581788
-0.000183582
-0.00578055
-0.000259631
-0.00573238
-0.000334946
-0.00567352
-0.000409265
-0.00560414
-0.000482326
-0.00552446
-0.000553864
-0.00543473
-0.000623612
-0.00533524
-0.000691305
-0.00522631
-0.000756676
-0.00510831
-0.000819457
-0.00498163
-0.000879384
-0.00484672
-0.000936193
-0.00470405
-0.000989624
-0.00455412
-0.00103942
-0.00439747
-0.00108533
-0.00423469
-0.00112711
-0.00406637
-0.00116451
-0.00389315
-0.00119732
-0.0037157
-0.00122531
-0.00353472
-0.00124828
-0.00335093
-0.00126603
-0.00316506
-0.00127838
-0.00297787
-0.00128519
-0.00279016
-0.0012863
-0.0026027
-0.0012816
-0.00241631
-0.00127101
-0.00223179
-0.00125446
-0.00204996
-0.00123192
-0.00187162
-0.0012034
-0.00169757
-0.00116893
-0.00152859
-0.00112862
-0.00136547
-0.00108259
-0.00120892
-0.00103105
-0.00105967
-0.000974239
-0.000918379
-0.000912494
-0.000785671
-0.000846216
-0.000662114
-0.0007759
-0.000548215
-0.000702141
-0.000444415
-0.000625651
-0.000351081
-0.00054727
-0.000268505
-0.000467989
-0.000196895
-0.000388964
-0.000136382