/*--------------------------------*- C++ -*----------------------------------*\
  =========                 |
  \\      /  F ield         | OpenFOAM: The Open Source CFD Toolbox
   \\    /   O peration     | Website:  https://openfoam.org
    \\  /    A nd           | Version:  11
     \\/     M anipulation  |
\*---------------------------------------------------------------------------*/
FoamFile
{
    format      ascii;
    class       volVectorField;
    location    "5.4";
    object      U;
}
// * * * * * * * * * * * * * * * * * * * * * * * * * * * * * * * * * * * * * //

dimensions      [0 1 -1 0 0 0 0];

internalField   nonuniform List<vector> 
10100
(
(1.79042e-06 -4.11511e-06 0)
(1.46367e-05 -9.16921e-06 0)
(3.3119e-05 -9.45853e-06 0)
(5.13796e-05 -8.09693e-06 0)
(6.28855e-05 -5.51567e-06 0)
(6.61454e-05 -2.38787e-06 0)
(5.995e-05 9.73013e-07 0)
(4.38083e-05 4.36595e-06 0)
(1.7617e-05 7.66248e-06 0)
(-1.8369e-05 1.07991e-05 0)
(-6.37651e-05 1.37413e-05 0)
(-0.000118101 1.64748e-05 0)
(-0.00018078 1.90053e-05 0)
(-0.000251211 2.13255e-05 0)
(-0.000328743 2.34146e-05 0)
(-0.000412711 2.52754e-05 0)
(-0.000502456 2.69206e-05 0)
(-0.000597321 2.83581e-05 0)
(-0.000696652 2.95947e-05 0)
(-0.000799803 3.06363e-05 0)
(-0.000906147 3.14862e-05 0)
(-0.00101507 3.21469e-05 0)
(-0.00112597 3.26262e-05 0)
(-0.00123826 3.29379e-05 0)
(-0.00135138 3.30909e-05 0)
(-0.00146479 3.30846e-05 0)
(-0.00157796 3.29225e-05 0)
(-0.00169037 3.26135e-05 0)
(-0.00180155 3.21662e-05 0)
(-0.00191101 3.15876e-05 0)
(-0.00201832 3.08824e-05 0)
(-0.00212304 3.00544e-05 0)
(-0.00222478 2.91118e-05 0)
(-0.00232313 2.8067e-05 0)
(-0.00241775 2.69285e-05 0)
(-0.00250829 2.56958e-05 0)
(-0.00259442 2.43666e-05 0)
(-0.00267583 2.29448e-05 0)
(-0.00275222 2.14413e-05 0)
(-0.00282333 1.98668e-05 0)
(-0.0028889 1.8227e-05 0)
(-0.00294871 1.65247e-05 0)
(-0.00300254 1.47629e-05 0)
(-0.00305022 1.29469e-05 0)
(-0.00309155 1.10843e-05 0)
(-0.00312641 9.18319e-06 0)
(-0.00315466 7.25065e-06 0)
(-0.0031762 5.29118e-06 0)
(-0.00319093 3.30754e-06 0)
(-0.0031988 1.30439e-06 0)
(-0.00319975 -7.10434e-07 0)
(-0.00319378 -2.72763e-06 0)
(-0.00318087 -4.73825e-06 0)
(-0.00316106 -6.73601e-06 0)
(-0.00313441 -8.71698e-06 0)
(-0.00310097 -1.06767e-05 0)
(-0.00306084 -1.26089e-05 0)
(-0.00301415 -1.45051e-05 0)
(-0.00296104 -1.63553e-05 0)
(-0.00290167 -1.81506e-05 0)
(-0.00283626 -1.98837e-05 0)
(-0.00276501 -2.15483e-05 0)
(-0.00268818 -2.31386e-05 0)
(-0.00260604 -2.46476e-05 0)
(-0.00251889 -2.60668e-05 0)
(-0.00242705 -2.73873e-05 0)
(-0.00233088 -2.86014e-05 0)
(-0.00223075 -2.97019e-05 0)
(-0.00212705 -3.06822e-05 0)
(-0.00202021 -3.15356e-05 0)
(-0.00191069 -3.22556e-05 0)
(-0.00179894 -3.2835e-05 0)
(-0.00168548 -3.32663e-05 0)
(-0.0015708 -3.35421e-05 0)
(-0.00145546 -3.3655e-05 0)
(-0.00134 -3.35986e-05 0)
(-0.00122501 -3.33688e-05 0)
(-0.00111108 -3.29621e-05 0)
(-0.000998816 -3.23734e-05 0)
(-0.000888832 -3.15967e-05 0)
(-0.000781763 -3.06264e-05 0)
(-0.000678254 -2.94589e-05 0)
(-0.000578953 -2.80917e-05 0)
(-0.000484514 -2.65236e-05 0)
(-0.000395584 -2.47543e-05 0)
(-0.000312806 -2.27845e-05 0)
(-0.000236809 -2.06159e-05 0)
(-0.000168201 -1.82519e-05 0)
(-0.000107561 -1.56981e-05 0)
(-5.54263e-05 -1.29653e-05 0)
(-1.22756e-05 -1.00704e-05 0)
(2.14995e-05 -7.03908e-06 0)
(4.5629e-05 -3.91004e-06 0)
(6.0024e-05 -7.4637e-07 0)
(6.48704e-05 2.34337e-06 0)
(6.07772e-05 5.16613e-06 0)
(4.89826e-05 7.38669e-06 0)
(3.17908e-05 8.41035e-06 0)
(1.38488e-05 7.21134e-06 0)
(2.75703e-06 2.76255e-06 0)
(5.40972e-06 -1.3762e-05 0)
(2.68548e-05 -3.14867e-05 0)
(5.70302e-05 -3.29073e-05 0)
(8.12047e-05 -2.5185e-05 0)
(9.02252e-05 -1.1519e-05 0)
(7.90345e-05 5.48779e-06 0)
(4.44884e-05 2.41802e-05 0)
(-1.51333e-05 4.3516e-05 0)
(-0.000100372 6.27648e-05 0)
(-0.000211095 8.1515e-05 0)
(-0.000346622 9.94286e-05 0)
(-0.000505893 0.000116353 0)
(-0.000687637 0.000132147 0)
(-0.000890359 0.000146745 0)
(-0.00111245 0.000160085 0)
(-0.00135225 0.000172135 0)
(-0.00160803 0.000182891 0)
(-0.00187803 0.000192361 0)
(-0.00216051 0.000200561 0)
(-0.00245372 0.000207514 0)
(-0.00275593 0.00021324 0)
(-0.00306544 0.000217761 0)
(-0.00338059 0.000221113 0)
(-0.00369974 0.000223334 0)
(-0.00402131 0.000224459 0)
(-0.00434377 0.000224522 0)
(-0.00466561 0.000223556 0)
(-0.00498541 0.000221599 0)
(-0.00530176 0.000218694 0)
(-0.00561333 0.000214879 0)
(-0.00591885 0.000210194 0)
(-0.00621709 0.000204679 0)
(-0.00650687 0.000198378 0)
(-0.0067871 0.000191334 0)
(-0.0070567 0.000183587 0)
(-0.00731468 0.000175171 0)
(-0.0075601 0.000166117 0)
(-0.00779208 0.000156462 0)
(-0.00800978 0.000146251 0)
(-0.0082124 0.000135525 0)
(-0.00839925 0.000124322 0)
(-0.00856965 0.000112681 0)
(-0.00872302 0.000100642 0)
(-0.00885881 8.82471e-05 0)
(-0.00897653 7.5539e-05 0)
(-0.00907575 6.25591e-05 0)
(-0.00915611 4.9347e-05 0)
(-0.00921731 3.59425e-05 0)
(-0.00925912 2.23854e-05 0)
(-0.00928134 8.71894e-06 0)
(-0.00928385 -5.00959e-06 0)
(-0.00926661 -1.87524e-05 0)
(-0.00922963 -3.24628e-05 0)
(-0.00917297 -4.60967e-05 0)
(-0.0090968 -5.96115e-05 0)
(-0.00900133 -7.2962e-05 0)
(-0.00888683 -8.60994e-05 0)
(-0.00875367 -9.89728e-05 0)
(-0.00860224 -0.00011153 0)
(-0.00843305 -0.000123719 0)
(-0.00824667 -0.000135492 0)
(-0.00804372 -0.000146799 0)
(-0.00782494 -0.000157589 0)
(-0.00759109 -0.000167812 0)
(-0.00734303 -0.000177416 0)
(-0.00708169 -0.000186351 0)
(-0.00680806 -0.000194566 0)
(-0.0065232 -0.000202015 0)
(-0.00622826 -0.000208647 0)
(-0.00592445 -0.000214415 0)
(-0.00561303 -0.000219271 0)
(-0.00529534 -0.00022317 0)
(-0.00497279 -0.000226067 0)
(-0.00464683 -0.00022792 0)
(-0.00431897 -0.000228689 0)
(-0.00399078 -0.000228335 0)
(-0.00366388 -0.000226825 0)
(-0.00333991 -0.000224132 0)
(-0.0030206 -0.000220228 0)
(-0.00270765 -0.000215088 0)
(-0.00240283 -0.00020869 0)
(-0.0021079 -0.000201018 0)
(-0.00182464 -0.000192067 0)
(-0.00155483 -0.000181838 0)
(-0.0013002 -0.000170343 0)
(-0.00106248 -0.000157605 0)
(-0.000843347 -0.00014366 0)
(-0.000644374 -0.000128561 0)
(-0.00046704 -0.000112384 0)
(-0.000312668 -9.5236e-05 0)
(-0.000182368 -7.72691e-05 0)
(-7.69689e-05 -5.87019e-05 0)
(3.09318e-06 -3.98466e-05 0)
(5.79189e-05 -2.1158e-05 0)
(8.83601e-05 -3.31435e-06 0)
(9.63174e-05 1.26586e-05 0)
(8.5071e-05 2.52067e-05 0)
(5.98279e-05 3.19695e-05 0)
(2.94291e-05 2.94643e-05 0)
(7.17916e-06 1.38347e-05 0)
(7.05073e-06 -3.04604e-05 0)
(2.8424e-05 -5.9012e-05 0)
(5.29231e-05 -5.83596e-05 0)
(6.5234e-05 -3.66103e-05 0)
(5.41598e-05 -9.57696e-07 0)
(1.29486e-05 4.32637e-05 0)
(-6.27539e-05 9.22565e-05 0)
(-0.000175505 0.000143404 0)
(-0.000326455 0.000194924 0)
(-0.000515613 0.000245509 0)
(-0.000742216 0.000294317 0)
(-0.00100494 0.000340717 0)
(-0.00130201 0.0003843 0)
(-0.00163132 0.000424778 0)
(-0.00199056 0.000461948 0)
(-0.00237725 0.000495688 0)
(-0.00278881 0.000525935 0)
(-0.0032226 0.000552663 0)
(-0.00367593 0.000575878 0)
(-0.0041461 0.000595615 0)
(-0.00463046 0.00061192 0)
(-0.00512633 0.000624848 0)
(-0.00563111 0.000634475 0)
(-0.00614223 0.00064089 0)
(-0.00665719 0.000644182 0)
(-0.00717356 0.000644438 0)
(-0.00768896 0.000641759 0)
(-0.0082011 0.000636249 0)
(-0.00870775 0.000628014 0)
(-0.0092068 0.000617163 0)
(-0.00969619 0.000603807 0)
(-0.010174 0.000588059 0)
(-0.0106382 0.000570033 0)
(-0.0110872 0.000549846 0)
(-0.0115192 0.000527609 0)
(-0.0119325 0.000503429 0)
(-0.0123258 0.000477412 0)
(-0.0126975 0.000449673 0)
(-0.0130463 0.000420327 0)
(-0.0133709 0.00038949 0)
(-0.0136703 0.000357275 0)
(-0.0139433 0.000323794 0)
(-0.0141889 0.000289168 0)
(-0.0144064 0.000253516 0)
(-0.0145949 0.000216959 0)
(-0.0147538 0.000179617 0)
(-0.0148824 0.000141606 0)
(-0.0149803 0.000103046 0)
(-0.0150471 6.40578e-05 0)
(-0.0150824 2.4768e-05 0)
(-0.0150862 -1.46924e-05 0)
(-0.0150584 -5.41906e-05 0)
(-0.0149989 -9.35952e-05 0)
(-0.0149079 -0.000132776 0)
(-0.0147857 -0.000171601 0)
(-0.0146325 -0.000209937 0)
(-0.0144489 -0.000247645 0)
(-0.0142354 -0.000284582 0)
(-0.0139927 -0.000320603 0)
(-0.0137216 -0.000355565 0)
(-0.013423 -0.000389324 0)
(-0.0130979 -0.000421738 0)
(-0.0127475 -0.000452661 0)
(-0.0123731 -0.000481948 0)
(-0.0119759 -0.000509455 0)
(-0.0115575 -0.000535038 0)
(-0.0111195 -0.000558558 0)
(-0.0106635 -0.000579873 0)
(-0.0101915 -0.000598846 0)
(-0.00970526 -0.000615341 0)
(-0.0092069 -0.000629225 0)
(-0.00869852 -0.000640371 0)
(-0.00818234 -0.00064866 0)
(-0.00766069 -0.000653973 0)
(-0.00713596 -0.000656201 0)
(-0.00661064 -0.000655243 0)
(-0.00608727 -0.000651007 0)
(-0.00556848 -0.000643413 0)
(-0.00505693 -0.000632392 0)
(-0.00455535 -0.000617886 0)
(-0.00406647 -0.00059985 0)
(-0.00359304 -0.000578259 0)
(-0.00313784 -0.000553108 0)
(-0.00270358 -0.00052442 0)
(-0.00229297 -0.000492245 0)
(-0.00190862 -0.000456671 0)
(-0.00155305 -0.000417832 0)
(-0.00122863 -0.000375913 0)
(-0.000937523 -0.000331172 0)
(-0.000681633 -0.000283965 0)
(-0.000462499 -0.000234775 0)
(-0.000281194 -0.000184268 0)
(-0.000138171 -0.00013336 0)
(-3.30716e-05 -8.33227e-05 0)
(3.55381e-05 -3.59382e-05 0)
(7.05015e-05 6.28746e-06 0)
(7.6391e-05 3.98361e-05 0)
(5.99715e-05 5.98569e-05 0)
(3.19752e-05 5.98561e-05 0)
(8.37067e-06 3.17315e-05 0)
(5.97289e-06 -4.47921e-05 0)
(2.08554e-05 -7.99636e-05 0)
(3.04858e-05 -6.97666e-05 0)
(1.96336e-05 -2.59621e-05 0)
(-2.31022e-05 4.08579e-05 0)
(-0.000105147 0.000122428 0)
(-0.000231474 0.000212695 0)
(-0.000405091 0.000307228 0)
(-0.000627426 0.00040284 0)
(-0.000898689 0.000497223 0)
(-0.00121805 0.000588701 0)
(-0.00158396 0.00067604 0)
(-0.0019943 0.000758393 0)
(-0.00244651 0.000835129 0)
(-0.0029377 0.000905814 0)
(-0.00346475 0.000970163 0)
(-0.00402438 0.00102799 0)
(-0.00461318 0.00107921 0)
(-0.00522768 0.00112378 0)
(-0.00586437 0.00116174 0)
(-0.00651974 0.00119314 0)
(-0.00719031 0.00121808 0)
(-0.00787262 0.00123667 0)
(-0.00856327 0.00124907 0)
(-0.00925894 0.00125543 0)
(-0.00995639 0.00125592 0)
(-0.0106524 0.00125073 0)
(-0.011344 0.00124004 0)
(-0.0120281 0.00122405 0)
(-0.012702 0.00120297 0)
(-0.0133628 0.001177 0)
(-0.0140079 0.00114636 0)
(-0.0146347 0.00111128 0)
(-0.0152409 0.00107197 0)
(-0.0158241 0.00102863 0)
(-0.0163822 0.000981492 0)
(-0.0169131 0.000930766 0)
(-0.0174149 0.000876678 0)
(-0.0178858 0.000819452 0)
(-0.0183241 0.00075931 0)
(-0.0187282 0.000696473 0)
(-0.0190966 0.000631167 0)
(-0.0194282 0.000563623 0)
(-0.0197217 0.000494077 0)
(-0.019976 0.000422762 0)
(-0.0201903 0.000349913 0)
(-0.0203637 0.000275762 0)
(-0.0204956 0.000200544 0)
(-0.0205855 0.000124503 0)
(-0.0206331 4.78877e-05 0)
(-0.0206379 -2.90508e-05 0)
(-0.0206001 -0.000106057 0)
(-0.0205195 -0.000182875 0)
(-0.0203964 -0.000259249 0)
(-0.0202311 -0.000334916 0)
(-0.0200241 -0.000409613 0)
(-0.0197761 -0.000483067 0)
(-0.0194877 -0.000555004 0)
(-0.01916 -0.000625146 0)
(-0.0187939 -0.000693217 0)
(-0.0183908 -0.000758936 0)
(-0.017952 -0.000822026 0)
(-0.0174791 -0.000882204 0)
(-0.0169737 -0.00093919 0)
(-0.0164378 -0.000992704 0)
(-0.0158732 -0.00104247 0)
(-0.0152822 -0.00108821 0)
(-0.0146671 -0.00112967 0)
(-0.0140302 -0.00116657 0)
(-0.0133743 -0.00119865 0)
(-0.0127019 -0.00122566 0)
(-0.012016 -0.00124736 0)
(-0.0113196 -0.00126353 0)
(-0.0106157 -0.00127393 0)
(-0.00990754 -0.00127836 0)
(-0.00919844 -0.00127665 0)
(-0.00849179 -0.00126861 0)
(-0.00779107 -0.0012541 0)
(-0.00709982 -0.001233 0)
(-0.00642163 -0.00120522 0)
(-0.00576012 -0.00117067 0)
(-0.00511891 -0.00112934 0)
(-0.00450161 -0.00108125 0)
(-0.0039118 -0.00102644 0)
(-0.00335296 -0.000965067 0)
(-0.00282847 -0.000897312 0)
(-0.00234157 -0.000823471 0)
(-0.00189524 -0.000743945 0)
(-0.0014922 -0.000659281 0)
(-0.00113479 -0.00057021 0)
(-0.000824866 -0.000477706 0)
(-0.000563666 -0.00038307 0)
(-0.000351641 -0.000288044 0)
(-0.000188246 -0.000194965 0)
(-7.16738e-05 -0.00010698 0)
(1.45343e-06 -2.83286e-05 0)
(3.63765e-05 3.52977e-05 0)
(4.06027e-05 7.64026e-05 0)
(2.54713e-05 8.52814e-05 0)
(7.38917e-06 4.89448e-05 0)
(3.86966e-06 -5.42672e-05 0)
(8.17952e-06 -8.63187e-05 0)
(-4.02498e-06 -5.75536e-05 0)
(-4.61878e-05 1.70549e-05 0)
(-0.000129066 0.000123802 0)
(-0.000260147 0.000251709 0)
(-0.000444453 0.000392465 0)
(-0.000685128 0.000539866 0)
(-0.000983703 0.000689201 0)
(-0.00134035 0.000836994 0)
(-0.0017542 0.000980648 0)
(-0.00222352 0.00111821 0)
(-0.00274587 0.00124827 0)
(-0.00331832 0.00136975 0)
(-0.00393752 0.0014819 0)
(-0.0045998 0.00158419 0)
(-0.00530129 0.00167629 0)
(-0.00603794 0.00175799 0)
(-0.00680558 0.00182918 0)
(-0.00760003 0.00188987 0)
(-0.00841704 0.0019401 0)
(-0.00925237 0.00198002 0)
(-0.0101019 0.00200978 0)
(-0.0109613 0.00202958 0)
(-0.0118267 0.00203966 0)
(-0.0126941 0.00204029 0)
(-0.0135595 0.00203174 0)
(-0.0144192 0.00201431 0)
(-0.0152696 0.00198831 0)
(-0.0161071 0.00195405 0)
(-0.0169282 0.00191188 0)
(-0.0177298 0.00186213 0)
(-0.0185086 0.00180515 0)
(-0.0192618 0.00174129 0)
(-0.0199864 0.00167089 0)
(-0.0206797 0.0015943 0)
(-0.0213393 0.00151188 0)
(-0.0219626 0.001424 0)
(-0.0225475 0.00133101 0)
(-0.0230918 0.00123327 0)
(-0.0235937 0.00113116 0)
(-0.0240513 0.00102503 0)
(-0.024463 0.000915269 0)
(-0.0248274 0.000802251 0)
(-0.0251431 0.000686359 0)
(-0.025409 0.000567971 0)
(-0.0256242 0.000447472 0)
(-0.0257878 0.000325252 0)
(-0.0258992 0.000201706 0)
(-0.025958 7.72395e-05 0)
(-0.0259637 -4.77408e-05 0)
(-0.0259164 -0.000172822 0)
(-0.0258161 -0.000297588 0)
(-0.0256629 -0.000421617 0)
(-0.0254574 -0.000544482 0)
(-0.0252001 -0.000665752 0)
(-0.0248918 -0.000784987 0)
(-0.0245335 -0.000901744 0)
(-0.0241263 -0.00101557 0)
(-0.0236715 -0.00112603 0)
(-0.0231708 -0.00123266 0)
(-0.0226259 -0.00133501 0)
(-0.0220385 -0.00143262 0)
(-0.021411 -0.00152505 0)
(-0.0207454 -0.00161185 0)
(-0.0200444 -0.00169256 0)
(-0.0193106 -0.00176675 0)
(-0.0185468 -0.00183399 0)
(-0.017756 -0.00189384 0)
(-0.0169415 -0.0019459 0)
(-0.0161066 -0.00198977 0)
(-0.0152548 -0.00202506 0)
(-0.0143898 -0.0020514 0)
(-0.0135154 -0.00206844 0)
(-0.0126355 -0.00207588 0)
(-0.0117542 -0.00207341 0)
(-0.0108756 -0.00206078 0)
(-0.0100041 -0.00203776 0)
(-0.00914382 -0.00200417 0)
(-0.00829924 -0.00195988 0)
(-0.00747474 -0.0019048 0)
(-0.0066747 -0.00183891 0)
(-0.00590348 -0.00176227 0)
(-0.00516537 -0.00167502 0)
(-0.00446456 -0.00157739 0)
(-0.00380506 -0.00146975 0)
(-0.00319071 -0.00135261 0)
(-0.00262501 -0.00122667 0)
(-0.00211115 -0.00109283 0)
(-0.00165181 -0.00095233 0)
(-0.00124912 -0.00080674 0)
(-0.000904464 -0.000658134 0)
(-0.000618342 -0.000509215 0)
(-0.000390145 -0.000363511 0)
(-0.000217926 -0.000225636 0)
(-9.81234e-05 -0.000101618 0)
(-2.52997e-05 6.94324e-07 0)
(8.22276e-06 7.12323e-05 0)
(1.34134e-05 9.71662e-05 0)
(5.26382e-06 6.09574e-05 0)
(1.23794e-06 -5.60802e-05 0)
(-7.4719e-06 -7.32354e-05 0)
(-4.61882e-05 -1.55984e-05 0)
(-0.00012551 9.92927e-05 0)
(-0.00025472 0.00025489 0)
(-0.000440932 0.000437821 0)
(-0.000688873 0.000637717 0)
(-0.00100151 0.000846524 0)
(-0.00138025 0.00105812 0)
(-0.00182514 0.00126779 0)
(-0.00233512 0.00147192 0)
(-0.00290825 0.00166777 0)
(-0.00354184 0.00185327 0)
(-0.00423259 0.00202684 0)
(-0.00497674 0.00218736 0)
(-0.00577018 0.002334 0)
(-0.00660849 0.00246618 0)
(-0.00748709 0.00258356 0)
(-0.00840124 0.00268593 0)
(-0.00934609 0.00277324 0)
(-0.0103168 0.00284553 0)
(-0.0113085 0.00290294 0)
(-0.0123162 0.00294568 0)
(-0.0133353 0.00297401 0)
(-0.014361 0.00298825 0)
(-0.0153886 0.00298875 0)
(-0.0164135 0.00297592 0)
(-0.0174315 0.00295015 0)
(-0.0184382 0.00291189 0)
(-0.0194294 0.0028616 0)
(-0.0204012 0.00279975 0)
(-0.0213497 0.00272682 0)
(-0.0222712 0.00264332 0)
(-0.0231623 0.00254975 0)
(-0.0240194 0.0024466 0)
(-0.0248396 0.0023344 0)
(-0.0256197 0.00221367 0)
(-0.0263569 0.00208493 0)
(-0.0270486 0.00194871 0)
(-0.0276923 0.00180554 0)
(-0.0282858 0.00165595 0)
(-0.0288268 0.0015005 0)
(-0.0293136 0.00133973 0)
(-0.0297443 0.00117419 0)
(-0.0301174 0.00100444 0)
(-0.0304317 0.000831039 0)
(-0.0306859 0.000654556 0)
(-0.0308791 0.000475565 0)
(-0.0310106 0.000294647 0)
(-0.0310798 0.000112394 0)
(-0.0310864 -7.05959e-05 0)
(-0.0310302 -0.00025372 0)
(-0.0309112 -0.000436368 0)
(-0.0307299 -0.000617921 0)
(-0.0304867 -0.000797752 0)
(-0.0301822 -0.000975228 0)
(-0.0298175 -0.00114971 0)
(-0.0293937 -0.00132054 0)
(-0.0289121 -0.00148708 0)
(-0.0283743 -0.00164867 0)
(-0.0277822 -0.00180465 0)
(-0.0271378 -0.00195436 0)
(-0.0264434 -0.00209714 0)
(-0.0257013 -0.00223233 0)
(-0.0249145 -0.00235928 0)
(-0.0240856 -0.00247734 0)
(-0.023218 -0.00258587 0)
(-0.0223149 -0.00268425 0)
(-0.0213798 -0.00277186 0)
(-0.0204166 -0.0028481 0)
(-0.0194292 -0.0029124 0)
(-0.0184216 -0.00296421 0)
(-0.0173982 -0.00300301 0)
(-0.0163635 -0.00302829 0)
(-0.015322 -0.00303962 0)
(-0.0142785 -0.00303657 0)
(-0.0132378 -0.0030188 0)
(-0.0122048 -0.00298599 0)
(-0.0111846 -0.0029379 0)
(-0.0101823 -0.00287436 0)
(-0.00920291 -0.00279528 0)
(-0.00825148 -0.00270067 0)
(-0.00733306 -0.00259063 0)
(-0.00645258 -0.00246542 0)
(-0.0056148 -0.00232542 0)
(-0.00482432 -0.00217121 0)
(-0.00408547 -0.00200357 0)
(-0.00340223 -0.00182355 0)
(-0.00277815 -0.00163253 0)
(-0.00221628 -0.00143228 0)
(-0.00171897 -0.00122509 0)
(-0.00128781 -0.00101388 0)
(-0.000923411 -0.000802384 0)
(-0.000625256 -0.000595385 0)
(-0.000391466 -0.000398981 0)
(-0.000218599 -0.000220947 0)
(-0.000101389 -7.11844e-05 0)
(-3.24352e-05 3.78572e-05 0)
(-1.87981e-06 9.05334e-05 0)
(2.58357e-06 6.55857e-05 0)
(-1.5963e-06 -4.92336e-05 0)
(-2.47489e-05 -3.78168e-05 0)
(-9.29582e-05 6.02902e-05 0)
(-0.00021329 0.000225593 0)
(-0.000393212 0.000439288 0)
(-0.000638952 0.000685876 0)
(-0.000954756 0.000953069 0)
(-0.00134314 0.00123123 0)
(-0.00180514 0.00151279 0)
(-0.00234056 0.00179184 0)
(-0.0029481 0.00206374 0)
(-0.00362552 0.00232489 0)
(-0.00436986 0.00257254 0)
(-0.00517747 0.00280458 0)
(-0.00604422 0.00301941 0)
(-0.00696557 0.00321586 0)
(-0.00793666 0.00339312 0)
(-0.0089524 0.00355063 0)
(-0.0100075 0.00368807 0)
(-0.0110967 0.0038053 0)
(-0.0122144 0.00390234 0)
(-0.0133552 0.00397932 0)
(-0.0145137 0.00403649 0)
(-0.0156845 0.00407417 0)
(-0.0168623 0.00409276 0)
(-0.0180417 0.00409272 0)
(-0.0192177 0.00407456 0)
(-0.0203854 0.00403881 0)
(-0.0215397 0.00398606 0)
(-0.0226762 0.00391692 0)
(-0.0237901 0.00383203 0)
(-0.0248771 0.00373202 0)
(-0.0259331 0.00361758 0)
(-0.026954 0.00348937 0)
(-0.027936 0.00334808 0)
(-0.0288755 0.00319442 0)
(-0.029769 0.0030291 0)
(-0.0306133 0.00285282 0)
(-0.0314055 0.00266632 0)
(-0.0321426 0.00247031 0)
(-0.0328221 0.00226554 0)
(-0.0334415 0.00205274 0)
(-0.0339987 0.00183267 0)
(-0.0344918 0.00160608 0)
(-0.0349189 0.00137374 0)
(-0.0352785 0.00113641 0)
(-0.0355694 0.00089488 0)
(-0.0357904 0.000649929 0)
(-0.0359408 0.00040236 0)
(-0.0360198 0.000152981 0)
(-0.0360271 -9.73917e-05 0)
(-0.0359625 -0.00034793 0)
(-0.0358261 -0.000597798 0)
(-0.0356184 -0.000846151 0)
(-0.0353397 -0.00109213 0)
(-0.034991 -0.00133487 0)
(-0.0345733 -0.00157349 0)
(-0.034088 -0.00180711 0)
(-0.0335365 -0.00203484 0)
(-0.0329208 -0.00225579 0)
(-0.0322429 -0.00246907 0)
(-0.0315051 -0.00267377 0)
(-0.03071 -0.00286899 0)
(-0.0298604 -0.00305385 0)
(-0.0289594 -0.00322745 0)
(-0.0280104 -0.00338891 0)
(-0.0270169 -0.00353738 0)
(-0.0259827 -0.003672 0)
(-0.0249118 -0.00379195 0)
(-0.0238085 -0.00389641 0)
(-0.0226773 -0.00398462 0)
(-0.0215228 -0.00405583 0)
(-0.0203499 -0.00410935 0)
(-0.0191637 -0.00414452 0)
(-0.0179693 -0.00416075 0)
(-0.0167721 -0.0041575 0)
(-0.0155776 -0.00413429 0)
(-0.0143913 -0.00409073 0)
(-0.0132189 -0.00402654 0)
(-0.0120661 -0.00394149 0)
(-0.0109385 -0.00383551 0)
(-0.00984188 -0.00370863 0)
(-0.00878176 -0.00356107 0)
(-0.00776367 -0.00339318 0)
(-0.00679292 -0.00320554 0)
(-0.0058746 -0.00299899 0)
(-0.00501348 -0.00277462 0)
(-0.00421397 -0.00253391 0)
(-0.00348 -0.00227873 0)
(-0.00281493 -0.00201147 0)
(-0.00222139 -0.00173518 0)
(-0.0017012 -0.00145367 0)
(-0.00125522 -0.00117175 0)
(-0.00088313 -0.000895443 0)
(-0.000583333 -0.000632284 0)
(-0.000352745 -0.000391704 0)
(-0.000186575 -0.000185473 0)
(-7.80477e-05 -2.81502e-05 0)
(-1.89251e-05 6.22545e-05 0)
(-3.30148e-07 6.16825e-05 0)
(-4.49153e-06 -3.32009e-05 0)
(-4.27666e-05 2.16074e-05 0)
(-0.000142225 0.000172791 0)
(-0.00030602 0.000399276 0)
(-0.000539462 0.00068058 0)
(-0.000847842 0.000999427 0)
(-0.00123452 0.00134189 0)
(-0.00170138 0.00169691 0)
(-0.00224899 0.00205556 0)
(-0.00287674 0.00241076 0)
(-0.00358298 0.00275692 0)
(-0.00436515 0.00308957 0)
(-0.00521992 0.00340523 0)
(-0.0061433 0.00370123 0)
(-0.00713081 0.00397549 0)
(-0.00817751 0.00422646 0)
(-0.0092781 0.00445304 0)
(-0.0104271 0.00465445 0)
(-0.0116186 0.00483022 0)
(-0.012847 0.00498012 0)
(-0.0141061 0.00510411 0)
(-0.0153901 0.00520231 0)
(-0.016693 0.00527499 0)
(-0.0180088 0.00532255 0)
(-0.0193316 0.00534545 0)
(-0.0206557 0.00534426 0)
(-0.0219754 0.00531961 0)
(-0.0232853 0.00527217 0)
(-0.0245799 0.00520268 0)
(-0.025854 0.00511193 0)
(-0.0271026 0.0050007 0)
(-0.0283208 0.00486984 0)
(-0.029504 0.0047202 0)
(-0.0306478 0.00455265 0)
(-0.0317478 0.00436809 0)
(-0.0328 0.00416741 0)
(-0.0338007 0.00395155 0)
(-0.0347462 0.00372142 0)
(-0.0356331 0.00347797 0)
(-0.0364584 0.00322214 0)
(-0.037219 0.00295489 0)
(-0.0379125 0.00267719 0)
(-0.0385362 0.00239001 0)
(-0.039088 0.00209435 0)
(-0.039566 0.0017912 0)
(-0.0399684 0.00148157 0)
(-0.0402939 0.00116646 0)
(-0.0405411 0.000846913 0)
(-0.0407092 0.000523972 0)
(-0.0407975 0.000198688 0)
(-0.0408055 -0.000127871 0)
(-0.0407331 -0.000454629 0)
(-0.0405804 -0.000780492 0)
(-0.0403478 -0.00110436 0)
(-0.0400358 -0.00142511 0)
(-0.0396454 -0.00174162 0)
(-0.0391779 -0.00205275 0)
(-0.0386346 -0.00235735 0)
(-0.0380174 -0.00265426 0)
(-0.0373282 -0.00294233 0)
(-0.0365694 -0.00322039 0)
(-0.0357436 -0.00348727 0)
(-0.0348536 -0.00374182 0)
(-0.0339026 -0.00398286 0)
(-0.032894 -0.00420927 0)
(-0.0318315 -0.00441989 0)
(-0.0307191 -0.00461362 0)
(-0.029561 -0.00478935 0)
(-0.0283616 -0.00494603 0)
(-0.0271258 -0.00508261 0)
(-0.0258584 -0.00519811 0)
(-0.0245647 -0.00529157 0)
(-0.02325 -0.00536212 0)
(-0.0219198 -0.00540891 0)
(-0.0205801 -0.00543119 0)
(-0.0192365 -0.00542828 0)
(-0.0178953 -0.00539961 0)
(-0.0165625 -0.00534469 0)
(-0.0152443 -0.00526316 0)
(-0.013947 -0.0051548 0)
(-0.0126768 -0.00501953 0)
(-0.01144 -0.00485745 0)
(-0.0102426 -0.00466886 0)
(-0.00909076 -0.00445429 0)
(-0.00799019 -0.00421452 0)
(-0.00694645 -0.00395067 0)
(-0.00596475 -0.00366421 0)
(-0.00504989 -0.00335704 0)
(-0.00420616 -0.00303159 0)
(-0.00343726 -0.00269092 0)
(-0.00274615 -0.00233883 0)
(-0.00213496 -0.00198006 0)
(-0.00160484 -0.00162046 0)
(-0.00115586 -0.00126727 0)
(-0.000786851 -0.000929363 0)
(-0.000495288 -0.000617693 0)
(-0.000277087 -0.000345679 0)
(-0.000126353 -0.000129661 0)
(-3.67878e-05 1.0469e-05 0)
(-3.30111e-06 4.8685e-05 0)
(-7.36473e-06 -7.85684e-06 0)
(-6.10523e-05 0.000105993 0)
(-0.000192557 0.000323408 0)
(-0.000401191 0.000622392 0)
(-0.000689941 0.00098111 0)
(-0.00106289 0.00138093 0)
(-0.00152246 0.00180661 0)
(-0.00206972 0.0022457 0)
(-0.00270463 0.00268817 0)
(-0.00342602 0.00312584 0)
(-0.00423182 0.00355216 0)
(-0.00511906 0.00396185 0)
(-0.00608402 0.00435073 0)
(-0.00712236 0.00471552 0)
(-0.00822919 0.00505365 0)
(-0.00939918 0.00536318 0)
(-0.0106266 0.0056427 0)
(-0.0119056 0.0058912 0)
(-0.0132299 0.00610802 0)
(-0.0145933 0.00629283 0)
(-0.0159892 0.00644552 0)
(-0.0174113 0.00656619 0)
(-0.0188531 0.00665514 0)
(-0.0203082 0.00671281 0)
(-0.0217702 0.00673975 0)
(-0.0232329 0.00673662 0)
(-0.02469 0.00670419 0)
(-0.0261357 0.00664327 0)
(-0.027564 0.00655478 0)
(-0.0289694 0.00643965 0)
(-0.0303462 0.00629887 0)
(-0.0316892 0.00613348 0)
(-0.0329934 0.00594453 0)
(-0.0342538 0.00573312 0)
(-0.0354659 0.00550034 0)
(-0.0366251 0.00524735 0)
(-0.0377274 0.00497527 0)
(-0.0387688 0.00468528 0)
(-0.0397456 0.00437855 0)
(-0.0406544 0.00405626 0)
(-0.041492 0.00371963 0)
(-0.0422555 0.00336988 0)
(-0.0429422 0.00300822 0)
(-0.0435497 0.0026359 0)
(-0.0440759 0.00225418 0)
(-0.0445189 0.00186431 0)
(-0.0448771 0.00146758 0)
(-0.0451492 0.0010653 0)
(-0.0453342 0.000658754 0)
(-0.0454314 0.000249287 0)
(-0.0454402 -0.000161765 0)
(-0.0453604 -0.000573045 0)
(-0.0451923 -0.000983182 0)
(-0.0449362 -0.00139079 0)
(-0.0445929 -0.00179446 0)
(-0.0441632 -0.00219277 0)
(-0.0436486 -0.00258431 0)
(-0.0430507 -0.00296762 0)
(-0.0423713 -0.00334126 0)
(-0.0416127 -0.00370378 0)
(-0.0407774 -0.00405372 0)
(-0.0398683 -0.00438961 0)
(-0.0388885 -0.00471001 0)
(-0.0378415 -0.00501347 0)
(-0.0367309 -0.00529854 0)
(-0.0355609 -0.00556382 0)
(-0.0343357 -0.00580792 0)
(-0.03306 -0.00602946 0)
(-0.0317386 -0.00622713 0)
(-0.0303768 -0.00639964 0)
(-0.0289798 -0.00654576 0)
(-0.0275534 -0.00666433 0)
(-0.0261034 -0.00675423 0)
(-0.0246358 -0.00681446 0)
(-0.023157 -0.00684409 0)
(-0.0216733 -0.0068423 0)
(-0.0201913 -0.00680838 0)
(-0.0187176 -0.00674178 0)
(-0.017259 -0.00664207 0)
(-0.0158222 -0.00650901 0)
(-0.014414 -0.00634254 0)
(-0.0130411 -0.00614283 0)
(-0.0117101 -0.00591029 0)
(-0.0104276 -0.00564563 0)
(-0.00919967 -0.00534988 0)
(-0.00803239 -0.00502445 0)
(-0.00693137 -0.0046712 0)
(-0.0059018 -0.00429251 0)
(-0.00494837 -0.00389137 0)
(-0.00407511 -0.0034715 0)
(-0.00328537 -0.0030375 0)
(-0.00258165 -0.00259499 0)
(-0.00196554 -0.00215085 0)
(-0.00143756 -0.00171342 0)
(-0.000997132 -0.00129286 0)
(-0.000642449 -0.000901443 0)
(-0.000370302 -0.000554006 0)
(-0.000175847 -0.000268342 0)
(-5.48909e-05 -6.57683e-05 0)
(-6.23621e-06 2.64023e-05 0)
(-1.01639e-05 2.68289e-05 0)
(-7.92135e-05 0.000215574 0)
(-0.000243102 0.000512873 0)
(-0.000497142 0.000896001 0)
(-0.000842074 0.00134226 0)
(-0.00128072 0.00183196 0)
(-0.00181442 0.00234874 0)
(-0.00244332 0.00287907 0)
(-0.0031666 0.00341186 0)
(-0.00398254 0.00393798 0)
(-0.00488849 0.00444996 0)
(-0.00588101 0.00494178 0)
(-0.00695595 0.00540856 0)
(-0.00810856 0.00584643 0)
(-0.00933357 0.00625233 0)
(-0.0106252 0.00662394 0)
(-0.0119774 0.00695951 0)
(-0.0133839 0.00725777 0)
(-0.0148379 0.00751791 0)
(-0.0163328 0.00773943 0)
(-0.0178617 0.00792218 0)
(-0.0194177 0.00806623 0)
(-0.0209939 0.00817189 0)
(-0.0225835 0.00823964 0)
(-0.0241797 0.00827012 0)
(-0.0257757 0.0082641 0)
(-0.0273649 0.00822246 0)
(-0.0289409 0.00814619 0)
(-0.0304975 0.00803636 0)
(-0.0320285 0.0078941 0)
(-0.033528 0.00772058 0)
(-0.0349903 0.00751706 0)
(-0.03641 0.0072848 0)
(-0.0377818 0.00702513 0)
(-0.0391007 0.0067394 0)
(-0.040362 0.00642898 0)
(-0.0415611 0.00609526 0)
(-0.0426938 0.00573965 0)
(-0.0437562 0.00536359 0)
(-0.0447445 0.00496854 0)
(-0.0456553 0.00455597 0)
(-0.0464855 0.00412735 0)
(-0.0472321 0.0036842 0)
(-0.0478925 0.00322803 0)
(-0.0484646 0.00276037 0)
(-0.0489462 0.00228277 0)
(-0.0493356 0.0017968 0)
(-0.0496315 0.00130405 0)
(-0.0498327 0.000806119 0)
(-0.0499383 0.000304628 0)
(-0.049948 -0.00019878 0)
(-0.0498615 -0.000702448 0)
(-0.0496789 -0.0012047 0)
(-0.0494007 -0.00170383 0)
(-0.0490277 -0.00219814 0)
(-0.0485609 -0.00268588 0)
(-0.0480017 -0.00316531 0)
(-0.047352 -0.00363469 0)
(-0.0466137 -0.00409224 0)
(-0.0457893 -0.00453619 0)
(-0.0448815 -0.00496476 0)
(-0.0438933 -0.00537618 0)
(-0.0428282 -0.00576868 0)
(-0.0416898 -0.00614049 0)
(-0.0404823 -0.00648987 0)
(-0.0392098 -0.00681511 0)
(-0.0378772 -0.00711452 0)
(-0.0364894 -0.00738643 0)
(-0.0350515 -0.00762926 0)
(-0.0335693 -0.00784144 0)
(-0.0320484 -0.0080215 0)
(-0.030495 -0.00816802 0)
(-0.0289152 -0.0082797 0)
(-0.0273158 -0.0083553 0)
(-0.0257033 -0.00839372 0)
(-0.0240846 -0.00839401 0)
(-0.0224668 -0.00835532 0)
(-0.0208569 -0.00827701 0)
(-0.0192623 -0.0081586 0)
(-0.0176901 -0.00799982 0)
(-0.0161476 -0.00780065 0)
(-0.0146419 -0.00756134 0)
(-0.0131802 -0.00728242 0)
(-0.0117693 -0.00696479 0)
(-0.010416 -0.00660973 0)
(-0.00912662 -0.00621899 0)
(-0.00790722 -0.00579481 0)
(-0.00676341 -0.00534006 0)
(-0.00570025 -0.0048583 0)
(-0.00472222 -0.00435393 0)
(-0.00383305 -0.0038323 0)
(-0.00303573 -0.00329989 0)
(-0.00233232 -0.00276455 0)
(-0.00172393 -0.00223566 0)
(-0.00121067 -0.00172449 0)
(-0.000791585 -0.00124449 0)
(-0.000464443 -0.000811684 0)
(-0.000225555 -0.000445002 0)
(-7.28879e-05 -0.000166794 0)
(-9.0887e-06 -5.13596e-06 0)
(-1.28833e-05 7.07105e-05 0)
(-9.71259e-05 0.000350293 0)
(-0.000293201 0.000741306 0)
(-0.000592736 0.00122054 0)
(-0.000994156 0.00176468 0)
(-0.00149898 0.00235331 0)
(-0.00210741 0.00296918 0)
(-0.00281862 0.00359789 0)
(-0.00363094 0.0042274 0)
(-0.00454194 0.00484773 0)
(-0.00554837 0.00545063 0)
(-0.00664625 0.00602933 0)
(-0.00783096 0.00657832 0)
(-0.0090973 0.00709315 0)
(-0.0104395 0.00757031 0)
(-0.0118516 0.00800707 0)
(-0.0133268 0.00840136 0)
(-0.0148586 0.00875166 0)
(-0.0164399 0.00905695 0)
(-0.0180635 0.00931664 0)
(-0.0197222 0.00953046 0)
(-0.0214087 0.00969849 0)
(-0.0231156 0.00982101 0)
(-0.0248358 0.00989857 0)
(-0.0265619 0.00993189 0)
(-0.0282868 0.00992184 0)
(-0.0300036 0.00986946 0)
(-0.0317053 0.00977587 0)
(-0.0333854 0.00964233 0)
(-0.0350372 0.00947014 0)
(-0.0366546 0.00926071 0)
(-0.0382315 0.0090155 0)
(-0.0397621 0.00873602 0)
(-0.0412406 0.00842384 0)
(-0.042662 0.00808054 0)
(-0.0440209 0.00770776 0)
(-0.0453127 0.00730715 0)
(-0.0465329 0.00688041 0)
(-0.0476771 0.00642924 0)
(-0.0487414 0.00595538 0)
(-0.0497222 0.00546058 0)
(-0.0506161 0.00494663 0)
(-0.0514199 0.0044153 0)
(-0.0521311 0.00386842 0)
(-0.052747 0.00330781 0)
(-0.0532655 0.00273535 0)
(-0.0536849 0.00215289 0)
(-0.0540035 0.00156233 0)
(-0.0542203 0.000965603 0)
(-0.0543342 0.000364637 0)
(-0.0543449 -0.000238603 0)
(-0.0542521 -0.000842134 0)
(-0.054056 -0.00144395 0)
(-0.0537569 -0.00204202 0)
(-0.0533558 -0.00263431 0)
(-0.0528537 -0.00321873 0)
(-0.0522523 -0.00379321 0)
(-0.0515533 -0.00435566 0)
(-0.050759 -0.00490397 0)
(-0.049872 -0.00543603 0)
(-0.048895 -0.00594971 0)
(-0.0478315 -0.0064429 0)
(-0.046685 -0.00691349 0)
(-0.0454595 -0.0073594 0)
(-0.0441593 -0.00777854 0)
(-0.042789 -0.00816887 0)
(-0.0413535 -0.00852839 0)
(-0.0398583 -0.00885515 0)
(-0.0383088 -0.00914723 0)
(-0.0367109 -0.0094028 0)
(-0.0350709 -0.00962011 0)