/*--------------------------------*- C++ -*----------------------------------*\
  =========                 |
  \\      /  F ield         | OpenFOAM: The Open Source CFD Toolbox
   \\    /   O peration     | Website:  https://openfoam.org
    \\  /    A nd           | Version:  11
     \\/     M anipulation  |
\*---------------------------------------------------------------------------*/
FoamFile
{
    format      ascii;
    class       volScalarField;
    location    "3.6";
    object      p;
}
// * * * * * * * * * * * * * * * * * * * * * * * * * * * * * * * * * * * * * //

dimensions      [0 2 -2 0 0 0 0];

internalField   nonuniform List<scalar> 
10100
(
1.44839e-07
8.444e-05
-0.000102568
-0.000600268
-0.00136516
-0.00234216
-0.00348114
-0.00473275
-0.00605339
-0.00740423
-0.00875176
-0.0100659
-0.0113214
-0.0124973
-0.0135765
-0.0145449
-0.0153897
-0.0161011
-0.0166707
-0.0170914
-0.0173586
-0.0174695
-0.0174206
-0.0172093
-0.0168338
-0.0162938
-0.0155911
-0.0147292
-0.0137111
-0.0125395
-0.0112175
-0.00974934
-0.00813967
-0.0063938
-0.00451765
-0.00251734
-0.000398951
0.0018313
0.00416716
0.00660265
0.00913206
0.011749
0.0144459
0.0172137
0.0200437
0.0229285
0.0258606
0.0288321
0.0318338
0.0348557
0.0378873
0.0409187
0.0439406
0.0469441
0.0499207
0.0528607
0.0557535
0.0585892
0.0613586
0.0640534
0.0666653
0.0691857
0.0716057
0.0739167
0.0761112
0.0781823
0.0801234
0.081928
0.0835901
0.0851039
0.0864636
0.0876648
0.0887034
0.0895761
0.0902806
0.0908164
0.0911841
0.0913845
0.0914189
0.0912895
0.0910004
0.0905571
0.0899659
0.0892348
0.0883739
0.0873955
0.0863132
0.0851426
0.0839014
0.0826102
0.0812927
0.0799764
0.0786925
0.0774775
0.0763726
0.0754233
0.0746775
0.0741834
0.0739862
0.0740575
-4.7196e-05
1.98309e-05
-0.000171006
-0.000619575
-0.00128159
-0.00212074
-0.00309848
-0.00417696
-0.00531983
-0.00649464
-0.00767098
-0.00882227
-0.00992541
-0.0109611
-0.0119133
-0.012767
-0.0135102
-0.0141328
-0.014626
-0.0149832
-0.0151991
-0.0152694
-0.0151915
-0.014963
-0.0145819
-0.0140472
-0.0133598
-0.0125219
-0.0115361
-0.0104053
-0.00913259
-0.00772149
-0.00617629
-0.00450209
-0.00270455
-0.000789256
0.00123853
0.00337322
0.0056088
0.00793929
0.0103591
0.0128622
0.0154414
0.0180883
0.0207948
0.0235533
0.0263565
0.0291968
0.0320658
0.034954
0.0378514
0.0407481
0.043635
0.0465041
0.0493473
0.0521551
0.0549176
0.0576257
0.0602707
0.0628444
0.0653391
0.0677467
0.0700585
0.0722666
0.0743645
0.0763458
0.0782038
0.0799326
0.0815272
0.0829824
0.0842925
0.0854528
0.08646
0.087311
0.088004
0.088539
0.0889171
0.0891393
0.089207
0.0891226
0.0888908
0.0885171
0.0880076
0.0873701
0.0866146
0.0857532
0.0847993
0.0837679
0.0826758
0.0815425
0.0803901
0.0792432
0.0781299
0.0770816
0.0761331
0.0753206
0.0746793
0.0742429
0.074056
0.0741281
0.000193568
0.000227756
2.18504e-05
-0.000408509
-0.00101695
-0.00177383
-0.00264953
-0.00361331
-0.00463469
-0.0056852
-0.00673867
-0.00777078
-0.00876087
-0.00969118
-0.0105462
-0.0113121
-0.0119766
-0.0125293
-0.0129629
-0.01327
-0.0134452
-0.0134842
-0.0133831
-0.0131398
-0.0127532
-0.0122223
-0.0115469
-0.0107284
-0.00976889
-0.00867091
-0.00743767
-0.00607256
-0.00457941
-0.00296315
-0.00122933
0.000616954
0.00257102
0.0046277
0.00678144
0.00902662
0.0113575
0.013768
0.0162509
0.0187988
0.0214042
0.02406
0.0267585
0.0294923
0.0322533
0.0350321
0.0378194
0.040606
0.0433834
0.0461435
0.0488785
0.0515791
0.0542358
0.0568402
0.0593844
0.0618606
0.0642607
0.0665769
0.0688011
0.0709262
0.072946
0.0748544
0.0766451
0.0783128
0.079853
0.081261
0.0825314
0.0836594
0.0846414
0.085475
0.0861589
0.0866933
0.0870793
0.087318
0.0874113
0.0873623
0.0871756
0.0868565
0.0864109
0.085846
0.0851714
0.0843991
0.0835421
0.0826149
0.0816334
0.0806158
0.0795823
0.0785552
0.0775594
0.0766224
0.075774
0.0750444
0.0744616
0.0740535
0.0738672
0.0739308
0.000726146
0.000684041
0.000435227
-3.49508e-06
-0.000594891
-0.00131105
-0.0021275
-0.00301834
-0.00395827
-0.00492299
-0.00588892
-0.00683469
-0.00774106
-0.00859152
-0.00937204
-0.0100695
-0.010672
-0.0111697
-0.0115547
-0.0118212
-0.0119637
-0.0119773
-0.0118579
-0.0116029
-0.0112112
-0.0106822
-0.0100162
-0.00921381
-0.00827634
-0.00720605
-0.00600603
-0.00467955
-0.00323032
-0.00166294
1.74539e-05
0.00180598
0.00369799
0.0056886
0.00777292
0.009946
0.0122021
0.0145345
0.016936
0.0193997
0.021919
0.0244873
0.0270974
0.0297414
0.032411
0.0350971
0.0377906
0.0404834
0.0431678
0.045836
0.0484798
0.0510899
0.0536573
0.0561745
0.058634
0.0610279
0.0633484
0.0655878
0.0677384
0.0697935
0.0717475
0.0735946
0.0753289
0.0769454
0.0784404
0.0798091
0.0810463
0.0821472
0.0831086
0.0839282
0.0846048
0.0851384
0.0855305
0.0857825
0.0858965
0.0858761
0.0857259
0.0854508
0.0850559
0.0845478
0.0839358
0.0832319
0.0824489
0.0816004
0.0807012
0.0797681
0.0788193
0.077875
0.0769574
0.0760906
0.0753005
0.0746128
0.0740517
0.0736428
0.0734287
0.0734375
0.00149507
0.00133933
0.00102184
0.00055174
-4.44568e-05
-0.000744096
-0.0015256
-0.00236794
-0.00324971
-0.00414982
-0.00504827
-0.00592595
-0.00676528
-0.00755086
-0.00826914
-0.00890869
-0.00945835
-0.00990896
-0.0102522
-0.0104828
-0.0105957
-0.0105864
-0.010451
-0.0101863
-0.00979065
-0.0092636
-0.00860564
-0.00781734
-0.00689969
-0.00585473
-0.00468518
-0.00339421
-0.00198563
-0.00046366
0.00116735
0.00290279
0.00473781
0.00666765
0.00868796
0.0107942
0.0129808
0.0152408
0.0175672
0.0199533
0.0223931
0.0248803
0.0274081
0.0299688
0.0325538
0.0351539
0.0377608
0.0403671
0.0429656
0.0455487
0.0481082
0.0506349
0.0531204
0.0555577
0.0579394
0.0602576
0.0625047
0.0646736
0.0667569
0.0687479
0.0706413
0.072432
0.0741144
0.0756842
0.0771377
0.0784703
0.0796769
0.0807529
0.0816954
0.0825022
0.0831721
0.0837053
0.0841028
0.0843665
0.0844989
0.0845037
0.0843855
0.0841484
0.0837966
0.0833364
0.0827771
0.0821307
0.0814097
0.0806265
0.0797943
0.0789282
0.0780449
0.0771626
0.0763009
0.0754807
0.0747242
0.0740532
0.0734893
0.0730558
0.0727837
0.0726922
0.00245426
0.00215763
0.00175152
0.0012323
0.000611168
-9.18856e-05
-0.000860297
-0.00167525
-0.0025197
-0.00337522
-0.0042239
-0.00504979
-0.0058372
-0.00657134
-0.00723981
-0.0078316
-0.00833701
-0.0087478
-0.00905649
-0.00925666
-0.00934398
-0.0093146
-0.00916479
-0.0088917
-0.00849344
-0.00796907
-0.00731865
-0.006543
-0.00564331
-0.00462129
-0.00347938
-0.00222086
-0.000849478
0.000631007
0.00221669
0.00390322
0.00568598
0.00756058
0.00952285
0.0115681
0.0136904
0.0158836
0.018141
0.0204563
0.0228235
0.0252367
0.0276889
0.0301728
0.0326798
0.035201
0.0377289
0.0402565
0.0427767
0.045282
0.0477643
0.0502149
0.052626
0.0549906
0.0573016
0.059551
0.0617314
0.0638361
0.0658583
0.0677914
0.0696302
0.0713697
0.073005
0.0745322
0.0759478
0.0772475
0.0784259
0.0794789
0.080404
0.0811994
0.0818635
0.0823962
0.0827986
0.0830725
0.0832208
0.0832471
0.0831554
0.0829493
0.0826327
0.0822117
0.0816959
0.081097
0.0804266
0.0796955
0.0789155
0.0781
0.0772644
0.0764252
0.0755995
0.074805
0.0740603
0.0733844
0.0727968
0.0723178
0.0719631
0.0717387
0.00355744
0.00310545
0.00259561
0.00201162
0.00134911
0.000623834
-0.000148971
-0.000955766
-0.00178148
-0.00260983
-0.0034258
-0.00421477
-0.00496319
-0.00565859
-0.00628883
-0.00684285
-0.00731268
-0.00769061
-0.00797045
-0.00814607
-0.00821272
-0.00816675
-0.008005
-0.00772482
-0.00732449
-0.00680293
-0.00615982
-0.00539587
-0.00451242
-0.00351116
-0.00239443
-0.0011654
0.000172463
0.00161572
0.00316055
0.00480268
0.00653806
0.00836288
0.0102729
0.0122632
0.0143276
0.01646
0.0186548
0.0209059
0.0232077
0.0255541
0.0279382
0.0303523
0.0327884
0.0352382
0.0376948
0.0401517
0.0426017
0.045037
0.0474498
0.0498319
0.052176
0.0544756
0.0567232
0.0589107
0.0610313
0.0630788
0.0650467
0.0669283
0.0687183
0.0704122
0.0720055
0.0734944
0.0748758
0.0761452
0.0772978
0.07833
0.0792396
0.080025
0.0806843
0.0812167
0.081623
0.0819055
0.0820667
0.0821101
0.0820389
0.0818566
0.0815673
0.0811773
0.0806962
0.0801349
0.0795037
0.0788118
0.0780694
0.077289
0.0764848
0.0756714
0.0748634
0.0740755
0.0733236
0.0726245
0.0719955
0.0714536
0.070998
0.0706206
0.00476414
0.00414873
0.00352562
0.00286528
0.0021471
0.00138502
0.00059145
-0.000222369
-0.0010441
-0.00186055
-0.00265782
-0.00342293
-0.00414438
-0.00481129
-0.00541268
-0.0059386
-0.00638089
-0.00673305
-0.00698932
-0.00714497
-0.00719537
-0.00713655
-0.00696553
-0.00668003
-0.00627842
-0.00575962
-0.00512332
-0.0043702
-0.0035015
-0.00251898
-0.00142514
-0.000222889
0.00108477
0.00249459
0.00400278
0.00560528
0.00729835
0.00907847
0.0109415
0.0128821
0.0148944
0.0169725
0.0191111
0.0213045
0.0235473
0.0258336
0.0281563
0.0305077
0.0328801
0.0352659
0.0376588
0.0400526
0.0424397
0.0448123
0.047163
0.0494843
0.0517689
0.0540102
0.056201
0.0583334
0.0604011
0.0623982
0.064318
0.0661541
0.067901
0.0695546
0.0711108
0.0725659
0.0739165
0.0751585
0.0762876
0.077301
0.0781972
0.0789742
0.0796293
0.0801612
0.0805706
0.0808597
0.0810308
0.0810867
0.0810304
0.0808655
0.0805966
0.0802306
0.0797763
0.0792433
0.0786402
0.0779751
0.0772572
0.0764983
0.0757113
0.0749088
0.0741027
0.0733055
0.072531
0.0717936
0.0711086
0.0704903
0.0699212
0.0693797
0.00603989
0.00525797
0.0045153
0.00377012
0.00298551
0.00217416
0.0013469
0.000513207
-0.000317479
-0.00113384
-0.00192409
-0.00267718
-0.00338239
-0.00402987
-0.00461072
-0.00511627
-0.0055382
-0.00587123
-0.00610997
-0.00625006
-0.00628766
-0.00621912
-0.00604136
-0.0057522
-0.0053502
-0.0048344
-0.00420458
-0.00346142
-0.00260616
-0.0016406
-0.000567305
0.000610963
0.00189159
0.00327148
0.00474689
0.00631418
0.00797007
0.00971073
0.0115316
0.0134275
0.0153931
0.017423
0.0195117
0.0216538
0.023844
0.0260765
0.0283441
0.0306393
0.032955
0.0352844
0.0376212
0.0399591
0.0422902
0.0446071
0.0469029
0.0491706
0.0514025
0.0535922
0.0557325
0.0578164
0.0598378
0.061791
0.0636689
0.0654649
0.0671742
0.0687927
0.0703166
0.0717419
0.0730652
0.0742828
0.0753912
0.0763885
0.0772732
0.0780428
0.078694
0.079225
0.0796364
0.0799302
0.0801081
0.0801724
0.0801262
0.0799737
0.07972
0.0793715
0.0789363
0.0784223
0.077837
0.0771876
0.076483
0.0757339
0.0749517
0.074147
0.0733294
0.0725097
0.0716997
0.0709117
0.070159
0.0694542
0.0687641
0.0680533
0.0073568
0.00640763
0.00554183
0.00470528
0.00384639
0.00297598
0.00210494
0.00124006
0.000389748
-0.000436678
-0.00123017
-0.00198103
-0.00267936
-0.00331642
-0.00388455
-0.0043761
-0.00478437
-0.00510388
-0.00533043
-0.00545979
-0.00548815
-0.00541237
-0.00522985
-0.00493856
-0.00453694
-0.00402431
-0.00340076
-0.00266681
-0.00182378
-0.000873694
0.000181241
0.00133857
0.0025954
0.0039486
0.0053951
0.00693175
0.00855504
0.0102608
0.0120444
0.0139011
0.0158256
0.0178127
0.0198574
0.0219545
0.0240985
0.0262833
0.028502
0.0307476
0.0330138
0.0352939
0.0375817
0.0398704
0.0421524
0.0444206
0.0466686
0.0488894
0.0510753
0.0532196
0.0553159
0.0573578
0.0593394
0.0612545
0.0630959
0.0648573
0.0665342
0.0681229
0.0696191
0.0710185
0.0723181
0.0735147
0.0746057
0.0755895
0.0764642
0.0772271
0.0778743
0.0784039
0.0788162
0.0791126
0.0792945
0.079364
0.0793245
0.0791805
0.0789371
0.0786001
0.0781763
0.0776725
0.0770956
0.0764524
0.0757513
0.0750018
0.0742137
0.0733954
0.0725548
0.0717014
0.0708453
0.0699964
0.0691672
0.0683692
0.0675535
0.066672
0.00869188
0.00757661
0.00658552
0.00565373
0.00471376
0.00377724
0.00285375
0.00194895
0.00106981
0.000223709
-0.000581736
-0.00133853
-0.00203817
-0.00267292
-0.0032357
-0.00371978
-0.00412023
-0.00443172
-0.00465058
-0.00477311
-0.00479563
-0.00471518
-0.00452961
-0.00423733
-0.0038369
-0.0033276
-0.00270991
-0.00198462
-0.00115276
-0.000216225
0.000822566
0.00196129
0.00319738
0.00452785
0.00594957
0.00745952
0.00905437
0.0107298
0.0124812
0.0143037
0.0161925
0.0181427
0.0201493
0.0222072
0.0243108
0.026454
0.0286302
0.030833
0.0330565
0.0352941
0.0375393
0.0397854
0.0420251
0.0442516
0.0464586
0.0486388
0.0507848
0.0528901
0.0549491
0.0569554
0.0589029
0.0607853
0.0625955
0.0643275
0.0659773
0.067541
0.0690139
0.0703915
0.0716712
0.0728506
0.0739275
0.0748999
0.0757659
0.0765223
0.0771653
0.0776928
0.0781049
0.0784022
0.078586
0.0786583
0.0786229
0.0784842
0.0782466
0.077915
0.0774953
0.0769941
0.0764176
0.0757724
0.0750662
0.0743073
0.0735036
0.0726617
0.0717885
0.070892
0.0699809
0.0690633
0.0681513
0.0672554
0.0663118
0.0652606
0.0100255
0.00874636
0.00762965
0.00659924
0.00557415
0.00456513
0.00358239
0.00263069
0.00171465
0.000840676
1.5443e-05
-0.000754681
-0.00146278
-0.002102
-0.00266599
-0.00314934
-0.00354719
-0.00385578
-0.00407131
-0.00419023
-0.00420951
-0.00412677
-0.00393996
-0.00364749
-0.00324867
-0.0027433
-0.00213137
-0.00141362
-0.000591553
0.000332929
0.00135782
0.0024808
0.00369918
0.00501025
0.00641119
0.00789881
0.0094694
0.0111188
0.0128425
0.0146361
0.0164948
0.0184136
0.0203877
0.0224119
0.0244809
0.0265885
0.0287286
0.0308954
0.0330829
0.0352843
0.0374932
0.0397029
0.0419068
0.0440982
0.0462706
0.0484164
0.0505286
0.0526015
0.0546295
0.0566062
0.0585251
0.06038
0.062164
0.0638718
0.0654994
0.0670427
0.0684967
0.0698569
0.071121
0.072287
0.0733525
0.0743155
0.0751737
0.0759239
0.0765624
0.0770872
0.0774979
0.0777952
0.0779797
0.0780534
0.0780197
0.0778828
0.0776465
0.0773149
0.0768933
0.076388
0.0758054
0.0751513
0.0744324
0.0736556
0.0728275
0.0719537
0.0710397
0.0700926
0.0691195
0.0681275
0.0671285
0.0661315
0.0650592
0.0638407
0.0113409
0.00990055
0.00865803
0.00752725
0.00641373
0.00532779
0.00428046
0.0032752
0.00231584
0.00140744
0.000555253
-0.000235119
-0.00095802
-0.00160766
-0.00217869
-0.0026669
-0.00306762
-0.00337755
-0.00359323
-0.00371175
-0.00373048
-0.00364711
-0.00346016
-0.00316878
-0.00277236
-0.00227071
-0.00166414
-0.000953458
-0.000139906
0.000774733
0.00178819
0.00289797
0.00410169
0.00539698
0.00678096
0.00825007
0.00980048
0.0114283
0.0131293
0.0148992
0.0167329
0.0186258
0.0205729
0.0225691
0.024609
0.0266871
0.0287975
0.0309345
0.0330921
0.0352634
0.037442
0.0396218
0.0417964
0.0439589
0.0461026
0.0482201
0.0503049
0.0523518
0.0543549
0.0563076
0.0582032
0.0600357
0.0617989
0.0634876
0.0650978
0.0666252
0.0680646
0.0694119
0.0706647
0.0718208
0.0728777
0.073833
0.0746844
0.0754289
0.076063
0.0765847
0.0769938
0.0772903
0.0774746
0.0775482
0.0775141
0.0773758
0.0771368
0.0768006
0.0763722
0.0758579
0.0752635
0.0745943
0.0738556
0.0730535
0.0721934
0.0712804
0.070319
0.069315
0.0682749
0.0672047
0.0661153
0.0650152
0.0638143
0.062432
0.0126233
0.0110245
0.00965637
0.00842409
0.00721966
0.00605389
0.00493739
0.00387321
0.0028651
0.00191667
0.00103163
0.000214795
-0.00052872
-0.00119433
-0.00177805
-0.00227563
-0.00268366
-0.00299873
-0.00321786
-0.0033385
-0.00335867
-0.00327657
-0.00309085
-0.00280124
-0.00240775
-0.00191008
-0.00130834
-0.000603493
0.000203043
0.00110957
0.0021139
0.00321354
0.00440603
0.00568891
0.00705925
0.00851353
0.0100481
0.0116591
0.0133424
0.0150933
0.0169073
0.0187794
0.0207049
0.0226786
0.0246954
0.0267501
0.028837
0.0309503
0.0330839
0.0352309
0.0373854
0.0395415
0.0416928
0.0438324
0.0459534
0.048049
0.0501128
0.0521397
0.0541238
0.0560579
0.0579356
0.0597511
0.0614987
0.0631734
0.064771
0.0662871
0.0677165
0.0690551
0.0703004
0.07145
0.0725009
0.0734504
0.0742964
0.075036
0.0756663
0.0761854
0.0765928
0.0768881
0.0770711
0.0771428
0.0771058
0.0769635
0.0767186
0.0763745
0.0759358
0.0754082
0.0747971
0.0741069
0.0733421
0.0725081
0.0716098
0.0706516
0.0696373
0.0685718
0.0674607
0.0663089
0.0651267
0.0639222
0.0625938
0.0610514
0.0138591
0.0121047
0.0106124
0.00927708
0.00798019
0.00673184
0.00554298
0.00441619
0.00335429
0.00236055
0.00143792
0.000589743
-0.000179841
-0.00086673
-0.00146774
-0.00197916
-0.00239807
-0.0027212
-0.00294649
-0.0030719
-0.00309529
-0.0030155
-0.00283232
-0.00254578
-0.0021556
-0.00166146
-0.00106377
-0.000363706
0.000437379
0.00133791
0.00233568
0.00342808
0.00461244
0.00588616
0.00724636
0.00868971
0.0102128
0.0118116
0.0134818
0.0152189
0.017018
0.0188745
0.0207837
0.0227405
0.0247401
0.0267775
0.028847
0.0309425
0.0330577
0.0351864
0.0373229
0.0394615
0.0415955
0.0437181
0.0458225
0.0479023
0.0499512
0.0519642
0.0539349
0.0558561
0.0577214
0.0595254
0.0612627
0.0629285
0.0645184
0.0660277
0.0674513
0.0687852
0.0700268
0.071173
0.0722204
0.0731662
0.0740084
0.0747447
0.0753724
0.0758896
0.0762953
0.0765886
0.0767688
0.0768368
0.0767951
0.0766466
0.0763937
0.0760392
0.0755872
0.0750427
0.0744102
0.0736937
0.0728972
0.0720259
0.0710842
0.0700759
0.069004
0.0678731
0.0666876
0.0654512
0.064174
0.0628648
0.0614102
0.0597114
0.0150357
0.0131291
0.0115134
0.010075
0.00868374
0.00735049
0.00608706
0.0048944
0.00377483
0.00273157
0.00176678
0.00088293
8.30056e-05
-0.000629812
-0.00125197
-0.00178075
-0.00221337
-0.00254763
-0.00278151
-0.00291315
-0.00294132
-0.00286564
-0.00268629
-0.00240328
-0.0020163
-0.00152539
-0.000931138
-0.000234516
0.00056319
0.00146009
0.00245375
0.0035415
0.00472064
0.00598846
0.00734216
0.0087786
0.0102944
0.0118854
0.0135473
0.0152753
0.0170646
0.0189106
0.0208088
0.0227545
0.0247428
0.0267689
0.0288267
0.0309101
0.033013
0.0351294
0.037254
0.0393812
0.0415039
0.0436154
0.0457093
0.0477793
0.0498195
0.0518243
0.0537872
0.0557009
0.0575594
0.0593577
0.0610903
0.0627522
0.0643389
0.0658457
0.0672675
0.0686007
0.0698421
0.070988
0.0720346
0.072979
0.0738197
0.0745547
0.0751813
0.0756973
0.076101
0.0763913
0.0765675
0.0766304
0.0765825
0.0764263
0.0761636
0.0757966
0.0753285
0.0747635
0.0741055
0.0733581
0.0725255
0.0716124
0.0706229
0.0695601
0.0684269
0.067227
0.065964
0.0646403
0.0632668
0.0618526
0.0602731
0.058421
0.0161424
0.0140855
0.0123478
0.0108068
0.00931991
0.0078998
0.00655905
0.00529799
0.00411786
0.00302168
0.002011
0.00108725
0.00025312
-0.000488636
-0.00113505
-0.00168415
-0.00213326
-0.00248068
-0.00272484
-0.00286445
-0.0028991
-0.00282898
-0.00265429
-0.00237495
-0.00199101
-0.00150287
-0.000911024
-0.000216175
0.00058025
0.00147584
0.00246778
0.0035534
0.00473009
0.00599524
0.00734616
0.00877975
0.0102925
0.0118801
0.013538
0.0152615
0.0170459
0.0188866
0.0207794
0.0227196
0.0247026
0.0267231
0.0287749
0.0308518
0.0329483
0.0350587
0.0371777
0.0392994
0.0414167
0.043523
0.0456124
0.0476789
0.0497162
0.0517183
0.0536788
0.0555908
0.0574485
0.0592468
0.0609801
0.0626431
0.064231
0.0657395
0.0671637
0.0684998
0.0697443
0.0708929
0.0719416
0.0728877
0.0737297
0.0744657
0.0750928
0.075608
0.0760094
0.0762961
0.0764675
0.0765248
0.07647
0.076305
0.0760308
0.0756488
0.0751616
0.0745727
0.0738858
0.0731043
0.0722321
0.0712737
0.0702325
0.0691116
0.0679135
0.0666415
0.0652981
0.0638852
0.0624143
0.0608947
0.0591913
0.0571887
0.0171691
0.0149634
0.0131048
0.0114609
0.00987877
0.00837008
0.00694937
0.00561793
0.00437507
0.00322255
0.00216261
0.00119622
0.000325006
-0.000448455
-0.00112195
-0.00169323
-0.00216092
-0.00252335
-0.00277926
-0.00292845
-0.00297116
-0.00290759
-0.00273786
-0.00246216
-0.00208098
-0.00159477
-0.00100378
-0.000308761
0.000488369
0.00138468
0.00237717
0.00346321
0.00464033
0.00590609
0.00725788
0.00869251
0.0102062
0.0117945
0.0134528
0.0151764
0.0169607
0.0188012
0.0206939
0.0226345
0.0246178
0.0266381
0.0286894
0.0307657
0.032862
0.0349726
0.0370921
0.0392142
0.0413321
0.0434394
0.0455306
0.0475994
0.0496394
0.0516444
0.0536081
0.0555242
0.0573871
0.0591913
0.0609305
0.0625992
0.0641929
0.0657075
0.0671384
0.0684812
0.0697321
0.0708866
0.0719407
0.0728918
0.0737383
0.0744777
0.0751065
0.0756215
0.076021
0.0763042
0.076471
0.0765226
0.0764604
0.0762853
0.0759978
0.0755983
0.0750892
0.0744739
0.0737557
0.0729376
0.0720232
0.0710164
0.0699204
0.0687381
0.0674721
0.0661252
0.0646993
0.0631958
0.0616264
0.0600009
0.0581744
0.0560236
0.0181064
0.0157542
0.0137742
0.012027
0.0103493
0.00875191
0.00724999
0.00584532
0.00453752
0.00332693
0.00221504
0.00120322
0.000292809
-0.000514261
-0.00121673
-0.00181234
-0.00229995
-0.0026786
-0.00294796
-0.00310837
-0.00316013
-0.0031034
-0.00293859
-0.00266643
-0.00228745
-0.00180173
-0.0012096
-0.000512473
0.000287075
0.00118596
0.00218124
0.0032704
0.00445101
0.00572072
0.0070769
0.00851623
0.0100347
0.0116278
0.0132906
0.0150187
0.0168076
0.0186532
0.0205514
0.0224976
0.0244863
0.0265118
0.0285681
0.0306501
0.0327524
0.0348693
0.036995
0.0391234
0.0412481
0.0433629
0.045462
0.0475389
0.0495871
0.0516008
0.053574
0.0555004
0.0573742
0.0591895
0.0609396
0.0626188
0.0642232
0.0657486
0.0671904
0.068544
0.0698049
0.0709689
0.0720319
0.0729914
0.0738452
0.0745902
0.0752221
0.0757381
0.0761367
0.0764175
0.0765807
0.0766267
0.0765564
0.0763698
0.0760667
0.0756476
0.0751146
0.0744712
0.07372
0.0728636
0.0719046
0.0708466
0.0696931
0.0684469
0.0671107
0.0656866
0.0641762
0.0625806
0.0609115
0.0591797
0.057231
0.0549336
0.0189464
0.0164486
0.0143475
0.0124964
0.0107222
0.00903579
0.00745192
0.00597246
0.00459751
0.00332708
0.00216169
0.00110265
0.000151192
-0.000691555
-0.00142406
-0.00204537
-0.00255421
-0.00295049
-0.0032348
-0.00340741
-0.0034685
-0.00341861
-0.00325872
-0.00298965
-0.00261155
-0.00212441
-0.00152928
-0.000828481
-2.49014e-05
0.000878574
0.00187915
0.00297425
0.00416146
0.00543846
0.00680258
0.00825026
0.00977728
0.0113789
0.0130504
0.0147875
0.0165861
0.018442
0.0203508
0.0223074
0.0243065
0.0263426
0.02841
0.0305035
0.0326178
0.0347466
0.0368845
0.0390256
0.0411635
0.0432921
0.0454051
0.047496
0.0495583
0.0515868
0.0535755
0.0555182
0.0574086
0.05924
0.061006
0.062701
0.0643212
0.0658622
0.0673193
0.0686876
0.0699626
0.0711399
0.0722156
0.0731867
0.0740503
0.0748027
0.0754397
0.0759584
0.0763581
0.0766384
0.0767988
0.0768394
0.0767599
0.0765601
0.0762398
0.0757996
0.0752417
0.0745689
0.0737833
0.0728864
0.0718804
0.0707689
0.0695557
0.0682438
0.0668352
0.065332
0.0637353
0.0620458
0.0602759
0.0584375
0.0563668
0.0539241
0.0196799
0.0170384
0.0148173
0.0128613
0.0109896
0.00921353
0.00754695
0.00599172
0.0045481
0.00321616
0.00199602
0.000888423
-0.000105513
-0.00098517
-0.00174902
-0.00239685
-0.00292831
-0.00334375
-0.00364381
-0.00382881
-0.00389929
-0.00385634
-0.00370103
-0.00343381
-0.00305473
-0.00256445
-0.00196498
-0.00125908
-0.000449532
0.000460928
0.00146944
0.00257336
0.00377039
0.00505825
0.00643395
0.00789354
0.00943266
0.0110468
0.0127314
0.0144824
0.0162957
0.0181667
0.0200907
0.0220627
0.0240775
0.0261298
0.028214
0.0303248
0.0324565
0.0346032
0.0367594
0.0389195
0.0410771
0.0432257
0.0453587
0.0474696
0.0495524
0.0516019
0.0536122
0.0555767
0.0574886
0.0593414
0.0611286
0.062845
0.0644862
0.0660479
0.0675248
0.0689121
0.0702055
0.0714003
0.0724923
0.0734779
0.0743538
0.0751159
0.0757602
0.0762844
0.0766875
0.076969
0.0771277
0.0771625
0.077073
0.076859
0.0765205
0.0760586
0.075475
0.0747718
0.0739499
0.0730102
0.0719549
0.070788
0.0695134
0.068134
0.0666512
0.0650669
0.0633819
0.0615966
0.0597248
0.0577794
0.0555867
0.052999
0.0202998
0.0175156
0.0151756
0.013115
0.0111446
0.00927772
0.00752787
0.00589592
0.00438244
0.00298775
0.00171174
0.000554451
-0.000483255
-0.00140031
-0.00219677
-0.00287238
-0.00342762
-0.00386299
-0.00417898
-0.00437644
-0.0044565
-0.00442024
-0.00426834
-0.00400119
-0.0036195
-0.00312495
-0.00251994
-0.00180715
-0.000989275
-6.92578e-05
0.000949946
0.00206584
0.00327621
0.00457854
0.00596935
0.00744438
0.00899943
0.0106304
0.0123328
0.0141026
0.0159352
0.0178259
0.01977
0.0217626
0.0237986
0.0258727
0.0279793
0.0301128
0.0322675
0.034438
0.0366188
0.0388043
0.0409877
0.0431622
0.0453214
0.0474588
0.0495685
0.0516453
0.0536829
0.0556745
0.0576133
0.0594928
0.0613069
0.06305
0.0647179
0.0663054
0.0678071
0.0692183
0.0705344
0.0717507
0.0728625
0.0738656
0.0747566
0.0755314
0.0761862
0.0767187
0.0771278
0.077412
0.0775694
0.0775987
0.077499
0.0772708
0.0769143
0.0764305
0.0758205
0.0750852
0.0742249
0.0732403
0.0721341
0.0709103
0.0695729
0.0681241
0.0665652
0.0648976
0.0631221
0.0612395
0.0592647
0.0572114
0.0548959
0.0521629
0.0208017
0.0178736
0.0154145
0.0132504
0.0111808
0.00922157
0.00738757
0.00567824
0.00409396
0.0026353
0.00130221
9.4575e-05
-0.00098757
-0.00194329
-0.00277328
-0.00347782
-0.00405747
-0.00451283
-0.0048449
-0.00505504
-0.00514443
-0.00511376
-0.00496364
-0.00469506
-0.00430973
-0.00380984
-0.00319766
-0.00247575
-0.00164708
-0.000714835
0.000318154
0.00144956
0.00267692
0.00399716
0.00540647
0.00690069
0.00847599
0.0101284
0.0118535
0.0136467
0.0155032
0.0174184
0.0193876
0.021406
0.0234688
0.0255702
0.0277045
0.0298661
0.0320498
0.03425
0.0364616
0.0386785
0.0408936
0.0431004
0.0452921
0.0474625
0.0496056
0.0517156
0.0537862
0.0558103
0.0577816
0.0596935
0.06154
0.0633157
0.0650155
0.0666342
0.0681661
0.0696061
0.0709496
0.0721915
0.0733266
0.0743507
0.0752602
0.0760512
0.07672
0.0772639
0.077681
0.0779693
0.0781264
0.0781507
0.0780419
0.0778003
0.0774266
0.0769208
0.0762834
0.0755143
0.0746137
0.073583
0.0724249
0.0711433
0.0697416
0.0682215
0.0665842
0.064831
0.0629631
0.0609817
0.0589025
0.0567399
0.0543008
0.0514214
0.0211809
0.0181073
0.0155277
0.0132599
0.0110913
0.00903863
0.00711901
0.00533152
0.00367572
0.00215227
0.000761099
-0.000497873
-0.00162491
-0.00262066
-0.00348506
-0.00421895
-0.00482313
-0.00529864
-0.00564699
-0.00586954
-0.00596714
-0.0059405
-0.00579082
-0.0055199
-0.00512997
-0.00462316
-0.00400167
-0.00326829
-0.00242631
-0.00147888
-0.000428622
0.000721957
0.00196976
0.00331123
0.00474267
0.00626034
0.00786057
0.00953923
0.0112915
0.0131125
0.0149976
0.0169423
0.0189421
0.020992
0.0230868
0.0252208
0.0273882
0.0295837
0.0318022
0.0340383
0.0362865
0.0385406
0.0407937
0.0430389
0.0452697
0.0474796
0.0496621
0.0518112
0.0539204
0.0559829
0.0579924
0.0599427
0.0618275
0.0636412
0.0653785
0.0670337
0.068601
0.070075
0.0714506
0.0727223
0.0738848
0.0749338
0.0758658
0.0766768
0.0773629
0.0779208
0.078348
0.0786419
0.0788001
0.0788211
0.0787048
0.0784516
0.0780612
0.0775332
0.0768672
0.076063
0.0751213
0.0740438
0.0728334
0.0714931
0.0700254
0.0684319
0.066714
0.0648732
0.0629111
0.0608294
0.0586442
0.0563706
0.0538063
0.0507789
0.0214322
0.0182117
0.0155095
0.0131365
0.0108686
0.00872203
0.00671529
0.00484843
0.00312045
0.00153163
8.18061e-05
-0.00122967
-0.00240286
-0.003439
-0.00433832
-0.00510176
-0.0057306
-0.00622641
-0.0065907
-0.00682453
-0.00692886
-0.00690503
-0.00675494
-0.00648078
-0.00608472
-0.00556888
-0.00493575
-0.00418849
-0.00333037
-0.00236437
-0.00129327
-0.000120144
0.00115137
0.00251766
0.00397546
0.00552125
0.00715111
0.00886045
0.0106442
0.0124978
0.0144166
0.0163963
0.0184321
0.0205188
0.022651
0.024823
0.0270292
0.0292646
0.0315239
0.0338017
0.0360923
0.0383895
0.0406866
0.0429766
0.0452528
0.0475083
0.0497364
0.0519305
0.0540842
0.056191
0.0582449
0.0602395
0.0621685
0.0640259
0.065806
0.0675031
0.069111
0.0706239
0.0720363
0.0733424
0.0745368
0.0756152
0.0765739
0.0774087
0.0781151
0.0786897
0.0791292
0.0794308
0.0795923
0.0796124
0.0794908
0.0792272
0.0788206
0.0782698
0.0775745
0.076735
0.0757523
0.0746281
0.0733647
0.0719643
0.070429
0.0687604
0.0669599
0.0650298
0.062972
0.060788
0.0584948
0.0561086
0.0534169
0.0502399
0.0215491
0.0181808
0.0153543
0.0128738
0.0105053
0.00826413
0.0061695
0.00422213
0.00242107
0.000766008
-0.000743365
-0.00210786
-0.00332829
-0.004405
-0.00533943
-0.00613271
-0.00678632
-0.00730197
-0.00768102
-0.00792472
-0.00803465
-0.00801279
-0.00786133
-0.00758244
-0.00717822
-0.00665109
-0.00600394
-0.00524
-0.00436242
-0.00337431
-0.00227902
-0.00108021
0.000218469
0.00161376
0.0031026
0.00468122
0.00634515
0.00808952
0.00990946
0.0118006
0.0137586
0.0157787
0.0178558
0.0199846
0.0221596
0.0243753
0.0266265
0.0289078
0.031214
0.0335392
0.035878
0.0382244
0.0405715
0.0429125
0.0452403
0.0475474
0.0498268
0.0520721
0.0542766
0.0564341
0.0585385
0.0605835
0.0625624
0.064469
0.0662975
0.0680417
0.0696954
0.0712523
0.0727065
0.0740519
0.0752831
0.0763956
0.0773853
0.0782476
0.0789777
0.0795716
0.0800262
0.0803386
0.0805064
0.0805283
0.0804033
0.0801303
0.0797076
0.0791342
0.07841
0.0775358
0.0765127
0.0753418
0.0740244
0.0725626
0.0709583
0.0692131
0.0673288
0.0653081
0.0631527
0.0608642
0.058461
0.05596
0.0531388
0.0498094
0.0215241
0.0180075
0.0150557
0.0124655
0.0099944
0.00765766
0.00547461
0.00344576
0.00157045
-0.000151705
-0.00172156
-0.00313969
-0.00440745
-0.00552533
-0.00649507
-0.00731816
-0.00799612
-0.00853056
-0.0089231
-0.00917564
-0.0092903
-0.00926931
-0.00911494
-0.00882933
-0.00841477
-0.007874
-0.00721008
-0.00642621
-0.00552567
-0.00451215
-0.00338961
-0.00216173
-0.000831792
0.000597155
0.0021217
0.00373749
0.00543974
0.0072237
0.00908491
0.0110191
0.0130217
0.0150874
0.0172109
0.0193871
0.0216107
0.0238764
0.0261785
0.0285119
0.0308709
0.0332497
0.0356428
0.0380443
0.0404477
0.0428457
0.0452308
0.0475953
0.0499322
0.0522349
0.0544969
0.0567117
0.0588731
0.0609744
0.0630089
0.0649703
0.0668527
0.0686497
0.0703545
0.0719607
0.0734619
0.0748519
0.0761249
0.0772763
0.0783015
0.0791954
0.0799528
0.0805696
0.0810428
0.0813694
0.0815469
0.0815731
0.0814463
0.0811649
0.0807271
0.0801321
0.0793803
0.0784726
0.0774096
0.0761915
0.0748193
0.073295
0.0716208
0.0697981
0.067829
0.0657163
0.0634615
0.0610666
0.0585509
0.0559326
0.0529795
0.0494942
0.0213505
0.0176847
0.0146066
0.0119052
0.00932954
0.00689583
0.00462331
0.00251214
0.000561541
-0.00122854
-0.00285925
-0.00433189
-0.00564718
-0.00680671
-0.00781175
-0.00866409
-0.00936547
-0.00991767
-0.0103229
-0.0105834
-0.0107017
-0.01068
-0.0105207
-0.0102262
-0.00979897
-0.00924183
-0.00855792
-0.00775069
-0.00682401
-0.00578212
-0.00462905
-0.00336811
-0.00200231
-0.000535041
0.00102952
0.00268661
0.00443162
0.00626025
0.00816816
0.0101508
0.012203
0.0143194
0.0164948
0.0187241
0.0210024
0.0233241
0.0256836
0.028075
0.0304928
0.0329313
0.0353851
0.0378483
0.0403139
0.0427747
0.0452229
0.0476507
0.0500513
0.0524181
0.0547442
0.057023
0.0592478
0.0614117
0.0635078
0.06553
0.0674721
0.0693275
0.071089
0.07275
0.0743037
0.0757435
0.0770636
0.0782588
0.0793241
0.080254
0.0810431
0.0816871
0.082183
0.0825276
0.0827178
0.0827507
0.082624
0.0823358
0.0818846
0.08127
0.0804923
0.0795521
0.0784492
0.0771834
0.0757558
0.0741686
0.0724239
0.0705231
0.0684682
0.066262
0.0639061
0.0614025
0.058772
0.0560337
0.0529455
0.0493001
0.0210232