/*--------------------------------*- C++ -*----------------------------------*\
  =========                 |
  \\      /  F ield         | OpenFOAM: The Open Source CFD Toolbox
   \\    /   O peration     | Website:  https://openfoam.org
    \\  /    A nd           | Version:  11
     \\/     M anipulation  |
\*---------------------------------------------------------------------------*/
FoamFile
{
    format      ascii;
    class       surfaceScalarField;
    location    "3.6";
    object      phi;
}
// * * * * * * * * * * * * * * * * * * * * * * * * * * * * * * * * * * * * * //

dimensions      [0 3 -1 0 0 0 0];

internalField   nonuniform List<scalar> 
19980
(
6.71529e-07
-6.7214e-07
2.18048e-06
-1.50893e-06
3.78901e-06
-1.60843e-06
4.99947e-06
-1.21048e-06
5.53158e-06
-5.32071e-07
5.23965e-06
2.91786e-07
4.05044e-06
1.18936e-06
1.94764e-06
2.1029e-06
-1.05801e-06
3.00572e-06
-4.93542e-06
3.87746e-06
-9.64094e-06
4.70575e-06
-1.5121e-05
5.48008e-06
-2.13168e-05
6.19587e-06
-2.81675e-05
6.85077e-06
-3.56103e-05
7.44289e-06
-4.35828e-05
7.97243e-06
-5.20221e-05
8.43924e-06
-6.08684e-05
8.84635e-06
-7.00612e-05
9.19278e-06
-7.95437e-05
9.48257e-06
-8.92602e-05
9.71647e-06
-9.91571e-05
9.89675e-06
-0.000109182
1.00249e-05
-0.000119284
1.0102e-05
-0.000129413
1.01289e-05
-0.000139521
1.01077e-05
-0.000149561
1.00406e-05
-0.000159491
9.93032e-06
-0.000169271
9.77935e-06
-0.000178861
9.58973e-06
-0.000188224
9.36328e-06
-0.000197326
9.10262e-06
-0.000206136
8.80985e-06
-0.000214622
8.48605e-06
-0.000222755
8.13245e-06
-0.000230506
7.75109e-06
-0.00023785
7.34422e-06
-0.000244764
6.91358e-06
-0.000251224
6.46085e-06
-0.000257212
5.98777e-06
-0.000262708
5.49529e-06
-0.000267692
4.98399e-06
-0.000272147
4.45527e-06
-0.000276058
3.91131e-06
-0.000279412
3.35421e-06
-0.000282198
2.78561e-06
-0.000284405
2.20679e-06
-0.000286024
1.61909e-06
-0.000287048
1.0243e-06
-0.000287472
4.24377e-07
-0.000287293
-1.79045e-07
-0.00028651
-7.83865e-07
-0.000285122
-1.38773e-06
-0.000283133
-1.98922e-06
-0.000280546
-2.5869e-06
-0.000277368
-3.17817e-06
-0.000273607
-3.7607e-06
-0.000269274
-4.33263e-06
-0.000264383
-4.89156e-06
-0.000258947
-5.4354e-06
-0.000252984
-5.96288e-06
-0.000246513
-6.47171e-06
-0.000239555
-6.95821e-06
-0.000232135
-7.41952e-06
-0.000224281
-7.85401e-06
-0.000216021
-8.25975e-06
-0.000207387
-8.63438e-06
-0.000198411
-8.97616e-06
-0.000189127
-9.28355e-06
-0.000179573
-9.554e-06
-0.000169788
-9.78477e-06
-0.000159814
-9.97419e-06
-0.000149693
-1.01209e-05
-0.000139471
-1.02225e-05
-0.000129195
-1.02764e-05
-0.000118914
-1.02809e-05
-0.000108678
-1.02352e-05
-9.85408e-05
-1.01377e-05
-8.85548e-05
-9.98607e-06
-7.87758e-05
-9.77892e-06
-6.92596e-05
-9.51613e-06
-6.00623e-05
-9.19728e-06
-5.12413e-05
-8.82107e-06
-4.2855e-05
-8.38632e-06
-3.49621e-05
-7.89293e-06
-2.76206e-05
-7.34149e-06
-2.08879e-05
-6.73273e-06
-1.48202e-05
-6.06765e-06
-9.47189e-06
-5.34836e-06
-4.8933e-06
-4.57865e-06
-1.12913e-06
-3.76421e-06
1.7837e-06
-2.91284e-06
3.82e-06
-2.03634e-06
4.97316e-06
-1.1532e-06
5.26544e-06
-2.92304e-07
4.76523e-06
5.00184e-07
3.61495e-06
1.15028e-06
2.07832e-06
1.53665e-06
6.29122e-07
1.44916e-06
6.29074e-07
1.44874e-06
-2.12101e-06
3.87683e-06
-3.93685e-06
6.08273e-06
-3.81447e-06
7.20387e-06
-2.33164e-06
6.65694e-06
1.50336e-08
4.08006e-06
2.86873e-06
-7.21872e-07
5.99111e-06
-7.83577e-06
9.21682e-06
-1.72638e-05
1.24335e-05
-2.89537e-05
1.55672e-05
-4.28146e-05
1.85665e-05
-5.87299e-05
2.13953e-05
-7.65639e-05
2.40298e-05
-9.61688e-05
2.64556e-05
-0.000117389
2.86627e-05
-0.000140064
3.06481e-05
-0.000164034
3.24091e-05
-0.000189137
3.3949e-05
-0.000215214
3.527e-05
-0.000242108
3.63771e-05
-0.000269666
3.72743e-05
-0.000297737
3.79681e-05
-0.000326176
3.84631e-05
-0.000354838
3.8764e-05
-0.000383587
3.88776e-05
-0.000412289
3.88101e-05
-0.000440816
3.85682e-05
-0.000469046
3.81601e-05
-0.000496861
3.75942e-05
-0.000524149
3.6878e-05
-0.000550805
3.6019e-05
-0.000576728
3.50254e-05
-0.000601822
3.39041e-05
-0.000625997
3.26611e-05
-0.000649167
3.13029e-05
-0.000671253
2.98364e-05
-0.000692177
2.82684e-05
-0.00071187
2.66063e-05
-0.000730266
2.48567e-05
-0.000747304
2.30261e-05
-0.000762929
2.112e-05
-0.000777088
1.91431e-05
-0.000789734
1.71015e-05
-0.000800825
1.5002e-05
-0.000810322
1.28514e-05
-0.000818193
1.06566e-05
-0.00082441
8.42406e-06
-0.000828951
6.16001e-06
-0.000831798
3.87088e-06
-0.000832937
1.56351e-06
-0.000832361
-7.55133e-07
-0.000830067
-3.07801e-06
-0.000826057
-5.39754e-06
-0.00082034
-7.70623e-06
-0.000812929
-9.99722e-06
-0.000803845
-1.22629e-05
-0.000793111
-1.44945e-05
-0.00078076
-1.66841e-05
-0.000766827
-1.88241e-05
-0.000751356
-2.09068e-05
-0.000734395
-2.2924e-05
-0.000715999
-2.4867e-05
-0.000696231
-2.67263e-05
-0.000675158
-2.84925e-05
-0.000652856
-3.01568e-05
-0.000629404
-3.17113e-05
-0.00060489
-3.31485e-05
-0.000579406
-3.44603e-05
-0.000553051
-3.56386e-05
-0.00052593
-3.66751e-05
-0.000498153
-3.75619e-05
-0.000469836
-3.82912e-05
-0.000441101
-3.88554e-05
-0.000412077
-3.92468e-05
-0.000382895
-3.94586e-05
-0.000353692
-3.9484e-05
-0.000324611
-3.93165e-05
-0.000295798
-3.895e-05
-0.000267405
-3.83792e-05
-0.000239584
-3.76e-05
-0.000212491
-3.66092e-05
-0.000186284
-3.54041e-05
-0.000161122
-3.39828e-05
-0.000137165
-3.2344e-05
-0.00011457
-3.04878e-05
-9.34948e-05
-2.84167e-05
-7.40921e-05
-2.61355e-05
-5.65075e-05
-2.36523e-05
-4.08767e-05
-2.09791e-05
-2.7322e-05
-1.81334e-05
-1.59461e-05
-1.51401e-05
-6.82438e-06
-1.20347e-05
6.82143e-09
-8.86759e-06
4.56574e-06
-5.71204e-06
6.9475e-06
-2.67403e-06
7.35681e-06
9.08262e-08
6.15307e-06
2.35403e-06
3.90605e-06
3.78372e-06
1.45122e-06
3.90399e-06
2.08035e-06
1.43097e-06
-3.55198e-06
3.48715e-06
-5.99295e-06
4.75751e-06
-5.08456e-06
4.21847e-06
-1.79257e-06
1.14749e-06
3.08606e-06
-4.9349e-06
8.9511e-06
-1.43067e-05
1.5363e-05
-2.7102e-05
2.20123e-05
-4.33453e-05
2.86769e-05
-6.29817e-05
3.52038e-05
-8.58953e-05
4.14802e-05
-0.000111928
4.74279e-05
-0.000140891
5.29929e-05
-0.000172573
5.81372e-05
-0.000206749
6.28388e-05
-0.000243182
6.70812e-05
-0.000281632
7.08595e-05
-0.000321854
7.41711e-05
-0.000363605
7.7021e-05
-0.000406641
7.94134e-05
-0.000450725
8.13582e-05
-0.000495621
8.28634e-05
-0.000541098
8.39401e-05
-0.000586933
8.45995e-05
-0.000632909
8.48538e-05
-0.000678816
8.4717e-05
-0.000724452
8.42034e-05
-0.00076962
8.33286e-05
-0.000814134
8.21084e-05
-0.000857815
8.05585e-05
-0.000900491
7.8695e-05
-0.000941999
7.65338e-05
-0.000982185
7.40899e-05
-0.0010209
7.13776e-05
-0.00105801
6.84118e-05
-0.00109338
6.52072e-05
-0.00112689
6.17788e-05
-0.00115843
5.81415e-05
-0.00118788
5.43101e-05
-0.00121515
5.02989e-05
-0.00124015
4.61211e-05
-0.0012628
4.17898e-05
-0.00128302
3.73188e-05
-0.00130074
3.27224e-05
-0.0013159
2.80154e-05
-0.00132846
2.32125e-05
-0.00133836
1.83279e-05
-0.00134558
1.33762e-05
-0.00135008
8.37204e-06
-0.00135185
3.33015e-06
-0.00135087
-1.73432e-06
-0.00134714
-6.80548e-06
-0.00134067
-1.18676e-05
-0.00133147
-1.69051e-05
-0.00131957
-2.19015e-05
-0.00130499
-2.68401e-05
-0.00128778
-3.17041e-05
-0.00126799
-3.6476e-05
-0.00124567
-4.11383e-05
-0.00122091
-4.56741e-05
-0.00119376
-5.00658e-05
-0.00116434
-5.42947e-05
-0.00113272
-5.83412e-05
-0.00109903
-6.21867e-05
-0.00106337
-6.58129e-05
-0.00102588
-6.92016e-05
-0.000986694
-7.23349e-05
-0.000945959
-7.51954e-05
-0.000903832
-7.77656e-05
-0.00086048
-8.00277e-05
-0.000816077
-8.19642e-05
-0.00077081
-8.35582e-05
-0.000724872
-8.47937e-05
-0.000678464
-8.56547e-05
-0.000631797
-8.61257e-05
-0.000585089
-8.61925e-05
-0.000538563
-8.58419e-05
-0.000492452
-8.50617e-05
-0.00044699
-8.38406e-05
-0.00040242
-8.21699e-05
-0.000358987
-8.00428e-05
-0.000316936
-7.74545e-05
-0.000276517
-7.4402e-05
-0.000237976
-7.08847e-05
-0.000201558
-6.69059e-05
-0.000167501
-6.24737e-05
-0.000136035
-5.76016e-05
-0.000107377
-5.23106e-05
-8.17252e-05
-4.66308e-05
-5.92542e-05
-4.06044e-05
-4.01043e-05
-3.42902e-05
-2.43702e-05
-2.77688e-05
-1.20862e-05
-2.11515e-05
-3.20517e-06
-1.45931e-05
2.4287e-06
-8.308e-06
5.11427e-06
-2.59475e-06
5.33661e-06
2.13177e-06
3.81298e-06
5.3073e-06
1.54733e-06
6.16968e-06
3.62769e-06
9.79742e-07
-4.53173e-06
1.87879e-06
-6.89201e-06
1.26867e-06
-4.47458e-06
-1.92441e-06
1.40048e-06
-8.47381e-06
9.63565e-06
-1.89009e-05
1.93781e-05
-3.35273e-05
2.99895e-05
-5.25161e-05
4.10011e-05
-7.59055e-05
5.20663e-05
-0.000103635
6.29333e-05
-0.000135574
7.34191e-05
-0.000171534
8.33878e-05
-0.000211285
9.27439e-05
-0.000254567
0.00010142
-0.000301097
0.000109369
-0.000350577
0.000116561
-0.0004027
0.000122982
-0.000457149
0.000128621
-0.00051361
0.000133482
-0.000571765
0.000137569
-0.0006313
0.000140893
-0.000691906
0.000143469
-0.000753279
0.000145313
-0.000815123
0.000146443
-0.000877149
0.00014688
-0.000939077
0.000146645
-0.00100064
0.000145763
-0.00106157
0.000144258
-0.00112161
0.000142157
-0.00118054
0.000139485
-0.00123811
0.000136268
-0.00129411
0.000132534
-0.00134833
0.000128307
-0.00140057
0.000123614
-0.00145063
0.000118479
-0.00149836
0.000112929
-0.00154357
0.00010699
-0.00158611
0.000100686
-0.00162584
9.40428e-05
-0.00166263
8.70863e-05
-0.00169635
7.98401e-05
-0.00172689
7.23281e-05
-0.00175415
6.45751e-05
-0.00177803
5.66061e-05
-0.00179846
4.84464e-05
-0.00181537
4.01215e-05
-0.0018287
3.16566e-05
-0.0018384
2.30768e-05
-0.00184443
1.44079e-05
-0.00184678
5.67578e-06
-0.00184542
-3.09301e-06
-0.00184036
-1.18714e-05
-0.00183159
-2.06321e-05
-0.00181915
-2.93477e-05
-0.00180306
-3.79903e-05
-0.00178337
-4.65313e-05
-0.00176013
-5.49412e-05
-0.00173342
-6.31904e-05
-0.00170331
-7.12492e-05
-0.00166989
-7.90876e-05
-0.00163328
-8.66749e-05
-0.0015936
-9.39796e-05
-0.00155097
-0.00010097
-0.00150554
-0.000107614
-0.00145748
-0.00011388
-0.00140694
-0.000119736
-0.00135412
-0.000125153
-0.00129922
-0.0001301
-0.00124244
-0.000134544
-0.00118401
-0.000138458
-0.00112416
-0.000141811
-0.00106315
-0.000144574
-0.00100122
-0.000146719
-0.000938659
-0.000148219
-0.000875735
-0.000149049
-0.000812742
-0.000149186
-0.000749978
-0.000148606
-0.000687751
-0.000147289
-0.000626372
-0.000145219
-0.000566162
-0.00014238
-0.000507443
-0.000138762
-0.00045054
-0.000134357
-0.000395778
-0.000129164
-0.00034348
-0.000123183
-0.00029396
-0.000116425
-0.000247527
-0.000108907
-0.000204474
-0.000100655
-0.000165074
-9.17102e-05
-0.000129576
-8.21293e-05
-9.81918e-05
-7.19887e-05
-7.10893e-05
-6.13927e-05
-4.83767e-05
-5.04812e-05
-3.00858e-05
-3.94425e-05
-1.61498e-05
-2.85292e-05
-6.37738e-06
-1.80804e-05
-4.213e-07
-8.55071e-06
2.2589e-06
-5.48442e-07
2.4377e-06
5.12841e-06
1.17942e-06
7.42797e-06
4.80706e-06
3.07896e-07
-4.83968e-06
-4.59915e-07
-6.12394e-06
-3.60866e-06
-1.32581e-06
-1.01643e-05
7.95622e-06
-2.08858e-05
2.03572e-05
-3.62937e-05
3.4786e-05
-5.67145e-05
5.04102e-05
-8.2315e-05
6.66018e-05
-0.000113133
8.28838e-05
-0.000149103
9.89037e-05
-0.000190075
0.000114391
-0.000235838
0.00012915
-0.000286127
0.000143033
-0.000340641
0.000155934
-0.00039905
0.000167778
-0.000461004
0.000178515
-0.000526136
0.000188114
-0.000594075
0.00019656
-0.000664438
0.000203845
-0.000736847
0.000209978
-0.000810922
0.000214968
-0.000886288
0.000218835
-0.000962574
0.000221599
-0.00103942
0.000223289
-0.00111647
0.000223932
-0.00119339
0.000223561
-0.00126984
0.000222211
-0.00134549
0.000219916
-0.00142005
0.000216714
-0.00149321
0.000212645
-0.00156469
0.000207745
-0.00163421
0.000202056
-0.00170152
0.000195614
-0.00176636
0.00018846
-0.00182852
0.000180633
-0.00188776
0.00017217
-0.00194388
0.000163111
-0.00199669
0.000153494
-0.002046
0.00014336
-0.00209166
0.000132744
-0.00213351
0.000121687
-0.00217141
0.000110224
-0.00220522
9.83946e-05
-0.00223486
8.62364e-05
-0.0022602
7.37883e-05
-0.00228116
6.10891e-05
-0.00229769
4.81774e-05
-0.0023097
3.50924e-05
-0.00231717
2.18734e-05
-0.00232005
8.56002e-06
-0.00231834
-4.80711e-06
-0.00231202
-1.81868e-05
-0.00230112
-3.15375e-05
-0.00228565
-4.48173e-05
-0.00226565
-5.79835e-05
-0.00224119
-7.09926e-05
-0.00221233
-8.38003e-05
-0.00217916
-9.63615e-05
-0.00214178
-0.000108631
-0.0021003
-0.000120564
-0.00205487
-0.000132112
-0.00200562
-0.00014323
-0.00195272
-0.000153868
-0.00189635
-0.00016398
-0.00183671
-0.000173518
-0.00177402
-0.000182434
-0.00170849
-0.000190682
-0.00164037
-0.000198214
-0.00156993
-0.000204985
-0.00149744
-0.00021095
-0.00142319
-0.000216063
-0.00134748
-0.000220282
-0.00127063
-0.000223564
-0.00119298
-0.000225871
-0.00111487
-0.000227162
-0.00103665
-0.000227405
-0.00095869
-0.000226566
-0.000881364
-0.000224616
-0.000805054
-0.000221529
-0.000730147
-0.000217287
-0.000657035
-0.000211874
-0.000586111
-0.000205281
-0.000517767
-0.000197508
-0.000452389
-0.000188562
-0.000390354
-0.00017846
-0.000332029
-0.000167232
-0.000277758
-0.000154926
-0.000227862
-0.000141606
-0.00018263
-0.000127361
-0.000142306
-0.000112313
-0.000107081
-9.66182e-05
-7.70749e-05
-8.04871e-05
-5.23238e-05
-6.41937e-05
-3.27559e-05
-4.80971e-05
-1.81696e-05
-3.26666e-05
-8.20641e-06
-1.85139e-05
-2.32044e-06
-6.43451e-06
2.55701e-07
2.55229e-06
5.56147e-07
7.12747e-06
5.36318e-06
-4.80216e-07
-4.35954e-06
-3.22653e-06
-3.3775e-06
-9.35107e-06
4.79863e-06
-1.97709e-05
1.83759e-05
-3.51737e-05
3.57602e-05
-5.6039e-05
5.56512e-05
-8.26692e-05
7.70406e-05
-0.000115214
9.91463e-05
-0.000153699
0.000121369
-0.00019804
0.000143245
-0.00024807
0.000164422
-0.000303551
0.000184631
-0.000364189
0.000203671
-0.000429646
0.000221391
-0.000499553
0.000237684
-0.000573513
0.000252475
-0.000651111
0.000265713
-0.000731922
0.000277371
-0.000815512
0.000287435
-0.000901444
0.00029591
-0.000989282
0.000302806
-0.00107859
0.000308144
-0.00116895
0.000311953
-0.00125992
0.000314267
-0.00135112
0.000315124
-0.00144212
0.000314567
-0.00153255
0.000312642
-0.00162203
0.000309396
-0.0017102
0.000304881
-0.0017967
0.000299149
-0.00188121
0.000292252
-0.0019634
0.000284244
-0.00204296
0.00027518
-0.00211962
0.000265113
-0.00219308
0.000254097
-0.0022631
0.000242188
-0.00232943
0.000229439
-0.00239184
0.000215905
-0.00245012
0.000201641
-0.00250408
0.000186699
-0.00255352
0.000171135
-0.0025983
0.000155
-0.00263826
0.000138351
-0.00267326
0.00012124
-0.00270319
0.000103722
-0.00272795
8.5851e-05
-0.00274746
6.76827e-05
-0.00276164
4.92721e-05
-0.00277044
3.06748e-05
-0.00277383
1.19468e-05
-0.00277178
-6.85446e-06
-0.0027643
-2.56711e-05
-0.00275139
-4.44451e-05
-0.00273309
-6.31175e-05
-0.00270944
-8.16277e-05
-0.00268052
-9.99145e-05
-0.00264641
-0.000117916
-0.0026072
-0.00013557
-0.00256302
-0.000152812
-0.002514
-0.000169579
-0.00246031
-0.000185805
-0.00240211
-0.000201424
-0.00233961
-0.000216371
-0.00227301
-0.000230578
-0.00220255
-0.00024398
-0.00212848
-0.00025651
-0.00205106
-0.000268102
-0.00197058
-0.000278692
-0.00188735
-0.000288215
-0.00180169
-0.000296608
-0.00171394
-0.00030381
-0.00162446
-0.000309761
-0.00153363
-0.000314402
-0.00144182
-0.000317679
-0.00134944
-0.00031954
-0.00125691
-0.000319937
-0.00116465
-0.000318827
-0.00107309
-0.000316171
-0.000982685
-0.000311935
-0.000893878
-0.000306094
-0.000807122
-0.00029863
-0.000722869
-0.000289534
-0.000641569
-0.000278808
-0.000563664
-0.000266466
-0.000489587
-0.000252537
-0.00041975
-0.000237069
-0.000354547
-0.00022013
-0.000294337
-0.000201815
-0.000239444
-0.000182254
-0.000190141
-0.000161615
-0.000146642
-0.000140118
-0.000109084
-0.000118045
-7.75152e-05
-9.57625e-05
-5.18745e-05
-7.37379e-05
-3.19723e-05
-5.25689e-05
-1.74688e-05
-3.30174e-05
-7.8514e-06
-1.6052e-05
-2.40918e-06
-2.88984e-06
-2.03797e-07
4.92203e-06
5.15941e-06
-1.31472e-06
-3.04476e-06
-6.21986e-06
1.5276e-06
-1.55965e-05
1.41755e-05
-3.02105e-05
3.29899e-05
-5.0645e-05
5.61947e-05
-7.73096e-05
8.23158e-05
-0.000110457
0.000110188
-0.000150201
0.000138891
-0.000196537
0.000167705
-0.000249359
0.000196067
-0.000308472
0.000223535
-0.000373612
0.00024977
-0.000444454
0.000274513
-0.000520628
0.000297565
-0.000601727
0.000318783
-0.000687312
0.000338061
-0.000776929
0.00035533
-0.000870104
0.000370545
-0.000966356
0.000383687
-0.0010652
0.000394751
-0.00116614
0.000403749
-0.0012687
0.000410705
-0.0013724
0.000415652
-0.00147676
0.000418631
-0.00158133
0.000419691
-0.00168565
0.000418885
-0.00178928
0.000416271
-0.00189179
0.000411912
-0.00199279
0.000405872
-0.00209186
0.000398219
-0.00218862
0.000389021
-0.00228273
0.000378348
-0.00237382
0.000366271
-0.00246157
0.000352861
-0.00254566
0.00033819
-0.0026258
0.00032233
-0.00270172
0.000305353
-0.00277314
0.000287332
-0.00283984
0.000268337
-0.00290158
0.000248441
-0.00295816
0.000227716
-0.0030094
0.000206234
-0.00305511
0.000184066
-0.00309516
0.000161284
-0.0031294
0.000137962
-0.00315772
0.000114173
-0.00318002
8.99883e-05
-0.00319623
6.54825e-05
-0.00320629
4.07302e-05
-0.00321015
1.58065e-05
-0.00320779
-9.21271e-06
-0.00319921
-3.42506e-05
-0.00318443
-5.92296e-05
-0.00316347
-8.40707e-05
-0.00313641
-0.000108694
-0.0031033
-0.000133018
-0.00306426
-0.000156961
-0.00301939
-0.00018044
-0.00296883
-0.00020337
-0.00291275
-0.000225666
-0.00285131
-0.000247242
-0.00278472
-0.000268011
-0.00271321
-0.000287886
-0.00263701
-0.000306779
-0.00255638
-0.000324603
-0.00247162
-0.00034127
-0.00238303
-0.000356693
-0.00229094
-0.000370787
-0.00219568
-0.000383468
-0.00209764
-0.000394651
-0.00199719
-0.000404257
-0.00189475
-0.000412207
-0.00179072
-0.000418426
-0.00168556
-0.000422841
-0.00157971
-0.000425387
-0.00147365
-0.000426001
-0.00136785
-0.000424627
-0.0012628
-0.000421217
-0.00115901
-0.00041573
-0.00105697
-0.000408134
-0.000957191
-0.000398408
-0.000860181
-0.000386545
-0.000766438
-0.00037255
-0.000676457
-0.000356448
-0.000590714
-0.00033828
-0.000509669
-0.000318114
-0.000433752
-0.000296046
-0.000363364
-0.000272204
-0.000298858
-0.00024676
-0.000240538
-0.000219936
-0.000188641
-0.000192014
-0.000143329
-0.000163357
-0.000104672
-0.00013442
-7.26336e-05
-0.000105776
-4.7056e-05
-7.81465e-05
-2.76428e-05
-5.24306e-05
-1.39436e-05
-2.97511e-05
-5.33974e-06
-1.14937e-05
-1.02967e-06
6.11952e-07
4.12977e-06
-2.16371e-06
-8.80997e-07
-9.31006e-06
8.67393e-06
-2.20938e-05
2.69593e-05
-4.11051e-05
5.20011e-05
-6.67989e-05
8.18885e-05
-9.94932e-05
0.00011501
-0.00013937
0.000150065
-0.000186495
0.000186015
-0.00024082
0.00022203
-0.000302202
0.000257449
-0.000370418
0.00029175
-0.00044517
0.000324523
-0.000526103
0.000355446
-0.000612813
0.000384276
-0.000704858
0.000410828
-0.000801763
0.000434966
-0.000903031
0.000456598
-0.00100815
0.000475664
-0.00111659
0.00049213
-0.00122783
0.000505988
-0.00134133
0.000517247
-0.00145655
0.000525932
-0.00157298
0.000532081
-0.0016901
0.000535743
-0.00180738
0.000536976
-0.00192434
0.000535846
-0.00204049
0.000532422
-0.00215536
0.000526782
-0.0022685
0.000519007
-0.00237946
0.000509179
-0.00248782
0.000497384
-0.00259318
0.00048371
-0.00269516
0.000468247
-0.00279338
0.000451084
-0.0028875
0.000432312
-0.0029772
0.000412022
-0.00306215
0.000390307
-0.00314207
0.000367257
-0.0032167
0.000342964
-0.00328578
0.000317521
-0.00334908
0.000291019
-0.0034064
0.000263549
-0.00345754
0.000235204
-0.00350233
0.000206078
-0.00354063
0.000176261
-0.0035723
0.000145848
-0.00359725
0.000114932
-0.00361537
8.36077e-05
-0.00362661
5.197e-05
-0.00363092
2.0115e-05
-0.00362827
-1.18598e-05
-0.00361867
-4.38563e-05
-0.00360212
-7.57753e-05
-0.00357868
-0.000107516
-0.0035484
-0.000138977
-0.00351136
-0.000170053
-0.00346768
-0.000200641
-0.00341749
-0.000230634
-0.00336093
-0.000259926
-0.00329819
-0.000288407
-0.00322946
-0.000315968
-0.00315497
-0.000342499
-0.00307497
-0.00036789
-0.00298972
-0.000392028
-0.00289952
-0.000414803
-0.00280469
-0.000436105
-0.00270556
-0.000455823
-0.0026025
-0.000473848
-0.00249589
-0.000490075
-0.00238614
-0.000504398
-0.00227368
-0.000516715
-0.00215896
-0.000526928
-0.00204245
-0.000534942
-0.00192462
-0.000540668
-0.00180598
-0.000544023
-0.00168706
-0.00054493
-0.00156836
-0.00054332
-0.00145045
-0.000539134
-0.00133385
-0.000532322
-0.00121914
-0.000522849
-0.00110685
-0.000510692
-0.000997556
-0.000495844
-0.00089179
-0.000478317
-0.000790093
-0.000458144
-0.000692987
-0.000435386
-0.000600971
-0.000410131
-0.000514514
-0.000382503
-0.000434049
-0.000352669
-0.000359965
-0.000320844
-0.000292594
-0.000287306
-0.000232206
-0.000252403
-0.00017899
-0.000216572
-0.00013305
-0.00018036
-9.4387e-05
-0.000144439
-6.28907e-05
-0.000109643
-3.83269e-05
-7.69944e-05
-2.03293e-05
-4.77487e-05
-8.39412e-06
-2.3429e-05
-1.87827e-06
-5.90385e-06
2.25147e-06
-3.0049e-06
2.12392e-06
-1.24191e-05
1.80881e-05
-2.86789e-05
4.32191e-05
-5.21931e-05
7.55153e-05
-8.32776e-05
0.000112973
-0.000122141
0.000153873
-0.000168885
0.00019681
-0.000223508
0.000240638
-0.000285911
0.000284433
-0.000355908
0.000327446
-0.000433235
0.000369077
-0.000517559
0.000408847
-0.000608491
0.000446378
-0.000705592
0.000481377
-0.000808385
0.00051362
-0.00091636
0.000542941
-0.00102898
0.00056922
-0.0011457
0.000592381
-0.00126595
0.000612378
-0.00138915
0.000629194
-0.00151474
0.000642837
-0.00164214
0.000653332
-0.00177079
0.000660722
-0.00190011
0.000665063
-0.00202955
0.000666423
-0.00215858
0.000664878
-0.00228668
0.000660514
-0.00241331
0.000653421
-0.00253801
0.000643697
-0.00266027
0.000631443
-0.00277965
0.000616762
-0.0028957
0.000599762
-0.003008
0.000580551
-0.00311616
0.00055924
-0.00321979
0.000535939
-0.00331853
0.000510762
-0.00341204
0.000483821
-0.00350001
0.000455229
-0.00358215
0.000425099
-0.00365817
0.000393544
-0.00372783
0.00036068
-0.0037909
0.000326619
-0.00384717
0.000291475
-0.00389646
0.000255364
-0.0039386
0.0002184
-0.00397345
0.000180698
-0.00400089
0.000142375
-0.00402083
0.000103548
-0.0040332
6.43349e-05
-0.00403794
2.48548e-05
-0.00403502
-1.47719e-05
-0.00402446
-5.44236e-05
-0.00400625
-9.39773e-05
-0.00398046
-0.000133308
-0.00394715
-0.00017229
-0.00390641
-0.000210794
-0.00385836
-0.000248693
-0.00380314
-0.000285854
-0.00374092
-0.000322145
-0.00367189
-0.000357432
-0.00359628
-0.000391581
-0.00351432
-0.000424456
-0.00342629
-0.00045592
-0.00333248
-0.000485837
-0.00323322
-0.000514069
-0.00312884
-0.000540481
-0.00301972
-0.000564939
-0.00290627
-0.000587308
-0.00278888
-0.000607457
-0.00266802
-0.00062526
-0.00254415
-0.00064059
-0.00241775
-0.000653327
-0.00228933
-0.000663358
-0.00215943
-0.000670573
-0.00202858
-0.000674872
-0.00189735
-0.000676162
-0.0017663
-0.000674362
-0.00163604
-0.000669401
-0.00150714
-0.000661221
-0.0013802
-0.000649783
-0.00125584
-0.00063506
-0.00113463
-0.000617049
-0.00101718
-0.000595769
-0.000904057
-0.000571266
-0.000795827
-0.000543615
-0.000693027
-0.000512931
-0.000596162
-0.000479368
-0.000505701
-0.00044313
-0.000422066
-0.000404479
-0.000345624
-0.000363748
-0.000276678
-0.000321349
-0.000215456
-0.000277795
-0.000162101
-0.000233714
-0.000116665
-0.000189875
-7.90986e-05
-0.00014721
-4.92426e-05
-0.00010685
-2.68293e-05
-7.01621e-05
-1.14824e-05
-3.8776e-05
-2.72461e-06
-1.46616e-05
-4.73158e-07
-3.82846e-06
5.95238e-06
-1.5498e-05
2.97575e-05
-3.52447e-05
6.29659e-05
-6.32992e-05
0.00010357
-9.9831e-05
0.000149505
-0.000144935
0.000198977
-0.00019862
0.000250494
-0.000260809
0.000302827
-0.000331342
0.000354966
-0.00040998
0.000406085
-0.000496414
0.000455512
-0.000590272
0.000502705
-0.000691126
0.000547232
-0.0007985
0.000588752
-0.000911881
0.000627001
-0.00103072
0.000661783
-0.00115446
0.000692953
-0.00128249
0.000720416
-0.00141423
0.000744112
-0.00154905
0.000764018
-0.00168635
0.000780138
-0.00182552
0.000792497
-0.00196594
0.000801142
-0.00210701
0.000806137
-0.00224815
0.00080756
-0.00238877
0.000805498
-0.00252831
0.000800052
-0.00266621
0.000791329
-0.00280196
0.000779442
-0.00293503
0.00076451
-0.00306492
0.000746658
-0.00319117
0.000726012
-0.00331332
0.000702702
-0.00343094
0.00067686
-0.00354362
0.000648619
-0.00365097
0.000618114
-0.00375263
0.00058548
-0.00384826
0.000550854
-0.00393753
0.000514371
-0.00402016
0.00047617
-0.00409587
0.000436387
-0.0041644
0.000395159
-0.00422555
0.000352624
-0.00427911
0.000308921
-0.0043249
0.00026419
-0.00436277
0.000218568
-0.00439259
0.000172198
-0.00441427
0.00012522
-0.00442771
7.77774e-05
-0.00443287
3.00141e-05
-0.00442971
-1.79246e-05
-0.00441825
-6.58916e-05
-0.00439849
-0.000113738
-0.00437048
-0.000161314
-0.0043343
-0.000208466
-0.00429006
-0.000255041
-0.00423787
-0.000300882
-0.00417789
-0.000345831
-0.00411031
-0.000389729
-0.00403532
-0.000432415
-0.00395318
-0.000473727
-0.00386413
-0.0005135
-0.00376848
-0.000551572
-0.00366654
-0.000587778
-0.00355866
-0.000621954
-0.0034452
-0.000653936
-0.00332658
-0.000683563
-0.00320321
-0.000710675
-0.00307555
-0.000735116
-0.00294408
-0.000756732
-0.00280929
-0.000775374
-0.00267172
-0.000790899
-0.00253191
-0.000803171
-0.00239042
-0.000812061
-0.00224784
-0.00081745
-0.00210478
-0.000819229
-0.00196184
-0.000817303
-0.00181965
-0.00081159
-0.00167884
-0.000802024
-0.00154007
-0.000788559
-0.00140396
-0.000771169
-0.00127115
-0.000749854
-0.00114229
-0.000724638
-0.00101797
-0.000695582
-0.000898803
-0.00066278
-0.000785365
-0.00062637
-0.000678195
-0.000586537
-0.000577801
-0.000543525
-0.000484639
-0.000497641
-0.000399115
-0.000449272
-0.00032157
-0.000398893
-0.000252277
-0.000347088
-0.000191429
-0.000294562
-0.000139136
-0.000242168
-9.54174e-05
-0.000190928
-6.02013e-05
-0.000142066
-3.33266e-05
-9.70369e-05
-1.45487e-05
-5.75538e-05
-3.55533e-06
-2.5655e-05
-4.02844e-06
-4.62941e-06
1.05819e-05
-1.85198e-05
4.36478e-05
-4.17271e-05
8.61732e-05
-7.43096e-05
0.000136152
-0.000116295
0.00019149
-0.000167658
0.00025034
-0.000228309
0.000311145
-0.000298089
0.000372608
-0.00037677
0.000433647
-0.000464055
0.00049337
-0.000559584
0.00055104
-0.000662937
0.000606058
-0.000773646
0.00065794
-0.000891196
0.000706302
-0.00101504
0.000750842
-0.00114458
0.000791331
-0.00127923
0.000827603
-0.00141836
0.000859541
-0.00156132
0.000887076
-0.00170748
0.000910174
-0.00185618
0.000928835
-0.00200677
0.000943088
-0.00215861
0.000952982
-0.00231106
0.000958588
-0.00246349
0.000959993
-0.00261529
0.000957301
-0.00276587
0.000950623
-0.00291462
0.000940083
-0.00306099
0.000925814
-0.00320444
0.000907954
-0.00334443
0.000886647
-0.00348045
0.000862041
-0.00361204
0.000834288
-0.00373872
0.000803542
-0.00386007
0.000769962
-0.00397565
0.000733703
-0.0040851
0.000694927
-0.00418804
0.000653795
-0.00428414
0.000610466
-0.00437307
0.000565103
-0.00445455
0.000517867
-0.00452831
0.000468923
-0.00459412
0.000418433
-0.00465176
0.00036656
-0.00470104
0.00031347
-0.0047418
0.000259328
-0.0047739
0.0002043
-0.00479724
0.000148554
-0.00481172
9.226e-05
-0.00481729
3.55873e-05
-0.00481393
-2.12915e-05
-0.00480162
-7.82023e-05
-0.00478039
-0.000134969
-0.00475029
-0.000191413
-0.0047114
-0.000247355
-0.00466383
-0.000302611
-0.00460771
-0.000356999
-0.00454321
-0.00041033
-0.00447053
-0.000462416
-0.00438987
-0.000513067
-0.00430151
-0.000562093
-0.00420571
-0.000609299
-0.00410279
-0.000654493
-0.00399308
-0.000697481
-0.00387697
-0.00073807
-0.00375484
-0.000776068
-0.00362711
-0.000811284
-0.00349426
-0.000843531
-0.00335675
-0.000872625
-0.0032151
-0.000898385
-0.00306983
-0.000920638
-0.00292151
-0.000939216
-0.00277073
-0.000953959
-0.00261807
-0.000964718
-0.00246416
-0.000971355
-0.00230965
-0.000973744
-0.00215518
-0.000971773
-0.00200142
-0.000965351
-0.00184904
-0.000954403
-0.00169872
-0.000938878
-0.00155114
-0.000918747
-0.00140698
-0.000894015
-0.0012669
-0.000864714
-0.00113157
-0.000830916
-0.00100161
-0.000792736
-0.000877648
-0.000750336
-0.000760254
-0.000703931
-0.000649975
-0.000653804
-0.000547308
-0.000600308
-0.000452699
-0.00054388
-0.000366536
-0.000485057
-0.000289139
-0.000424485
-0.000220759
-0.000362942
-0.000161571
-0.000301356
-0.000111671
-0.000240828
-7.10804e-05
-0.000182657
-3.97476e-05
-0.00012837
-1.75602e-05
-7.97412e-05
-4.36362e-06
-3.88515e-05
-8.39202e-06
-5.4061e-06
1.5988e-05
-2.14716e-05
5.97133e-05
-4.80884e-05
0.00011279
-8.51566e-05
0.000173221
-0.000132564
0.000238898
-0.000190166
0.000307942
-0.000257774
0.000378752
-0.000335141
0.000449974
-0.000421964
0.000520471
-0.000517884
0.00058929
-0.000622484
0.000655639
-0.000735294
0.000718869
-0.000855801
0.000778447
-0.000983448
0.000833949
-0.00111764
0.000885038
-0.00125777
0.000931456
-0.00140318
0.000973014
-0.00155321
0.00100958
-0.0017072
0.00104106
-0.00186446
0.00106743
-0.0020243
0.00108868
-0.00218604
0.00110483
-0.00234901
0.00111595
-0.00251252
0.0011221
-0.00267593
0.0011234
-0.00283858
0.00111995
-0.00299983
0.00111188
-0.00315908
0.00109933
-0.00331572
0.00108246
-0.00346918
0.00106142
-0.00361891
0.00103637
-0.00376436
0.00100749
-0.00390503
0.000974959
-0.00404044
0.000938946
-0.00417011
0.000899636
-0.00429362
0.000857212
-0.00441055
0.000811858
-0.00452052
0.000763762
-0.00462316
0.00071311
-0.00471815
0.00066009
-0.00480517
0.000604892
-0.00488395
0.000547704
-0.00495424
0.000488716
-0.0050158
0.000428119
-0.00506843
0.000366106
-0.00511197
0.000302868
-0.00514627
0.0002386
-0.00517121
0.000173496
-0.00518671
0.000107755
-0.0051927
4.15746e-05
-0.00518914
-2.48449e-05
-0.00517604
-9.13003e-05
-0.00515343
-0.000157587
-0.00512134
-0.000223496
-0.00507988
-0.00028882
-0.00502914
-0.000353346
-0.00496929
-0.000416858
-0.00490047
-0.00047914
-0.00482292
-0.000539973
-0.00473685
-0.000599136
-0.00464253
-0.000656407
-0.00454027
-0.000711562
-0.00443039
-0.000764376
-0.00431324
-0.000814626
-0.00418923
-0.000862086
-0.00405876
-0.000906535
-0.00392229
-0.000947751
-0.00378031
-0.000985519
-0.00363331
-0.00101962
-0.00348183
-0.00104986
-0.00332645
-0.00107602
-0.00316774
-0.00109792
-0.00300633
-0.00111537
-0.00284284
-0.00112821
-0.00267794
-0.00113626
-0.00251229
-0.00113939
-0.00234659
-0.00113748
-0.00218153
-0.00113041
-0.00201783
-0.0011181
-0.00185621
-0.0011005
-0.00169737
-0.00107758
-0.00154204
-0.00104935
-0.00139092
-0.00101583
-0.00124471
-0.000977133
-0.00110407
-0.000933375
-0.000969657
-0.000884745
-0.000842097
-0.000831492
-0.00072197
-0.000773932
-0.000609816
-0.000712462
-0.000506127
-0.000647569
-0.00041134
-0.000579844
-0.00032583
-0.000509995
-0.000249909
-0.000438863