/*--------------------------------*- C++ -*----------------------------------*\
  =========                 |
  \\      /  F ield         | OpenFOAM: The Open Source CFD Toolbox
   \\    /   O peration     | Website:  https://openfoam.org
    \\  /    A nd           | Version:  11
     \\/     M anipulation  |
\*---------------------------------------------------------------------------*/
FoamFile
{
    format      ascii;
    class       volVectorField;
    location    "3.6";
    object      U;
}
// * * * * * * * * * * * * * * * * * * * * * * * * * * * * * * * * * * * * * //

dimensions      [0 1 -1 0 0 0 0];

internalField   nonuniform List<vector> 
10100
(
(3.06229e-06 -3.05121e-06 0)
(1.37621e-05 -7.14467e-06 0)
(3.02348e-05 -8.10584e-06 0)
(4.51081e-05 -6.89891e-06 0)
(5.43319e-05 -4.60759e-06 0)
(5.57995e-05 -1.78065e-06 0)
(4.8502e-05 1.29468e-06 0)
(3.2072e-05 4.38333e-06 0)
(6.49603e-06 7.4057e-06 0)
(-2.79901e-05 1.02827e-05 0)
(-7.10173e-05 1.30116e-05 0)
(-0.000122055 1.55108e-05 0)
(-0.000180572 1.77919e-05 0)
(-0.000245935 1.98543e-05 0)
(-0.000317556 2.16855e-05 0)
(-0.000394779 2.3307e-05 0)
(-0.000476976 2.47298e-05 0)
(-0.000563553 2.59401e-05 0)
(-0.000653885 2.69709e-05 0)
(-0.000747386 2.7821e-05 0)
(-0.000843518 2.85064e-05 0)
(-0.000941721 2.90432e-05 0)
(-0.00104145 2.94176e-05 0)
(-0.00114221 2.96207e-05 0)
(-0.00124348 2.96628e-05 0)
(-0.00134476 2.95646e-05 0)
(-0.00144561 2.93385e-05 0)
(-0.00154558 2.89948e-05 0)
(-0.00164423 2.85429e-05 0)
(-0.00174116 2.79781e-05 0)
(-0.00183601 2.73011e-05 0)
(-0.00192842 2.65277e-05 0)
(-0.00201806 2.56685e-05 0)
(-0.00210461 2.47226e-05 0)
(-0.00218778 2.36881e-05 0)
(-0.00226726 2.25741e-05 0)
(-0.0023428 2.1396e-05 0)
(-0.00241414 2.01597e-05 0)
(-0.00248107 1.88624e-05 0)
(-0.00254336 1.75046e-05 0)
(-0.00260082 1.60894e-05 0)
(-0.00265325 1.46183e-05 0)
(-0.00270049 1.30971e-05 0)
(-0.00274236 1.1535e-05 0)
(-0.00277872 9.93344e-06 0)
(-0.00280945 8.2911e-06 0)
(-0.00283443 6.61157e-06 0)
(-0.00285357 4.89979e-06 0)
(-0.0028668 3.16543e-06 0)
(-0.00287405 1.42047e-06 0)
(-0.00287529 -3.35003e-07 0)
(-0.00287048 -2.10337e-06 0)
(-0.00285962 -3.87575e-06 0)
(-0.00284273 -5.64533e-06 0)
(-0.00281983 -7.40983e-06 0)
(-0.00279098 -9.15751e-06 0)
(-0.00275627 -1.08757e-05 0)
(-0.00271578 -1.25618e-05 0)
(-0.00266962 -1.42127e-05 0)
(-0.00261795 -1.58205e-05 0)
(-0.00256091 -1.73816e-05 0)
(-0.00249869 -1.88917e-05 0)
(-0.00243148 -2.0336e-05 0)
(-0.00235953 -2.16997e-05 0)
(-0.0022831 -2.2978e-05 0)
(-0.00220245 -2.41694e-05 0)
(-0.0021179 -2.52691e-05 0)
(-0.00202977 -2.62714e-05 0)
(-0.00193838 -2.717e-05 0)
(-0.0018441 -2.79556e-05 0)
(-0.00174731 -2.86211e-05 0)
(-0.00164842 -2.91664e-05 0)
(-0.00154783 -2.95903e-05 0)
(-0.00144601 -2.98827e-05 0)
(-0.0013434 -3.003e-05 0)
(-0.0012405 -3.00276e-05 0)
(-0.00113779 -2.98767e-05 0)
(-0.00103579 -2.95732e-05 0)
(-0.000935046 -2.91082e-05 0)
(-0.00083609 -2.84778e-05 0)
(-0.00073948 -2.7685e-05 0)
(-0.000645776 -2.67287e-05 0)
(-0.00055555 -2.56e-05 0)
(-0.000469378 -2.42912e-05 0)
(-0.000387844 -2.28016e-05 0)
(-0.000311535 -2.1133e-05 0)
(-0.000241031 -1.92848e-05 0)
(-0.000176903 -1.72533e-05 0)
(-0.000119707 -1.5038e-05 0)
(-6.99692e-05 -1.26474e-05 0)
(-2.81699e-05 -1.00937e-05 0)
(5.2732e-06 -7.38962e-06 0)
(3.00377e-05 -4.56245e-06 0)
(4.59496e-05 -1.66266e-06 0)
(5.30581e-05 1.22148e-06 0)
(5.1772e-05 3.9257e-06 0)
(4.30505e-05 6.15738e-06 0)
(2.87988e-05 7.38274e-06 0)
(1.30512e-05 6.63613e-06 0)
(2.79003e-06 2.78118e-06 0)
(6.61653e-06 -1.36482e-05 0)
(2.62371e-05 -2.70605e-05 0)
(5.12909e-05 -2.79789e-05 0)
(6.9809e-05 -2.03438e-05 0)
(7.38152e-05 -7.42171e-06 0)
(5.88434e-05 8.29579e-06 0)
(2.22861e-05 2.55171e-05 0)
(-3.71763e-05 4.31519e-05 0)
(-0.000119944 6.06572e-05 0)
(-0.00022571 7.7612e-05 0)
(-0.000353695 9.37551e-05 0)
(-0.000502885 0.000108909 0)
(-0.000671954 0.00012295 0)
(-0.000859527 0.000135816 0)
(-0.00106403 0.000147468 0)
(-0.00128389 0.000157915 0)
(-0.00151752 0.000167129 0)
(-0.00176327 0.000175182 0)
(-0.00201955 0.000182047 0)
(-0.0022848 0.000187796 0)
(-0.00255742 0.000192435 0)
(-0.00283593 0.000196024 0)
(-0.00311885 0.000198578 0)
(-0.00340469 0.000200117 0)
(-0.00369207 0.000200673 0)
(-0.00397965 0.000200274 0)
(-0.0042661 0.000198968 0)
(-0.00455019 0.000196809 0)
(-0.0048307 0.000193844 0)
(-0.00510648 0.00019011 0)
(-0.00537646 0.000185645 0)
(-0.00563959 0.000180497 0)
(-0.0058949 0.000174701 0)
(-0.00614147 0.000168284 0)
(-0.0063784 0.000161276 0)
(-0.00660488 0.000153715 0)
(-0.00682011 0.00014564 0)
(-0.00702336 0.00013709 0)
(-0.00721396 0.0001281 0)
(-0.00739128 0.000118702 0)
(-0.00755473 0.000108915 0)
(-0.00770376 9.87587e-05 0)
(-0.0078379 8.82627e-05 0)
(-0.00795668 7.7466e-05 0)
(-0.00805971 6.64105e-05 0)
(-0.00814663 5.51256e-05 0)
(-0.00821713 4.36374e-05 0)
(-0.00827097 3.19799e-05 0)
(-0.00830794 2.01869e-05 0)
(-0.00832789 8.29294e-06 0)
(-0.00833072 -3.66238e-06 0)
(-0.00831638 -1.56414e-05 0)
(-0.00828485 -2.76091e-05 0)
(-0.00823618 -3.95286e-05 0)
(-0.0081705 -5.13629e-05 0)
(-0.00808797 -6.30717e-05 0)
(-0.00798881 -7.46096e-05 0)
(-0.0078733 -8.59311e-05 0)
(-0.00774179 -9.69952e-05 0)
(-0.00759466 -0.000107765 0)
(-0.00743236 -0.000118204 0)
(-0.00725543 -0.000128265 0)
(-0.00706446 -0.00013789 0)
(-0.00686008 -0.000147025 0)
(-0.006643 -0.000155629 0)
(-0.00641403 -0.000163661 0)
(-0.00617398 -0.000171083 0)
(-0.00592375 -0.000177857 0)
(-0.0056643 -0.000183943 0)
(-0.00539665 -0.000189294 0)
(-0.00512189 -0.000193865 0)
(-0.00484112 -0.00019762 0)
(-0.00455556 -0.000200524 0)
(-0.00426645 -0.000202535 0)
(-0.00397509 -0.00020361 0)
(-0.00368282 -0.000203713 0)
(-0.00339103 -0.000202816 0)
(-0.0031012 -0.000200887 0)
(-0.0028148 -0.000197892 0)
(-0.00253336 -0.000193809 0)
(-0.0022584 -0.000188622 0)
(-0.0019915 -0.000182321 0)
(-0.00173428 -0.000174885 0)
(-0.0014883 -0.000166302 0)
(-0.00125515 -0.000156567 0)
(-0.00103642 -0.00014569 0)
(-0.000833664 -0.000133688 0)
(-0.000648389 -0.000120592 0)
(-0.000482003 -0.000106453 0)
(-0.000335807 -9.13462e-05 0)
(-0.000210943 -7.53899e-05 0)
(-0.000108329 -5.87537e-05 0)
(-2.85525e-05 -4.16868e-05 0)
(2.82561e-05 -2.4568e-05 0)
(6.26043e-05 -7.97272e-06 0)
(7.59075e-05 7.21064e-06 0)
(7.0807e-05 1.95959e-05 0)
(5.16973e-05 2.70372e-05 0)
(2.63072e-05 2.62584e-05 0)
(6.65499e-06 1.30494e-05 0)
(6.72964e-06 -2.88169e-05 0)
(2.52315e-05 -5.13828e-05 0)
(4.43082e-05 -4.78096e-05 0)
(5.02629e-05 -2.58409e-05 0)
(3.37363e-05 8.01227e-06 0)
(-1.11561e-05 4.9194e-05 0)
(-8.79259e-05 9.42162e-05 0)
(-0.000198588 0.000140889 0)
(-0.000343807 0.000187516 0)
(-0.000523425 0.00023307 0)
(-0.000736511 0.000276751 0)
(-0.000981651 0.000318037 0)
(-0.00125713 0.000356563 0)
(-0.00156088 0.000392099 0)
(-0.00189074 0.000424496 0)
(-0.00224438 0.000453664 0)
(-0.00261938 0.00047959 0)
(-0.00301335 0.000502286 0)
(-0.00342383 0.000521773 0)
(-0.00384834 0.000538115 0)
(-0.00428454 0.000551385 0)
(-0.00473001 0.000561633 0)
(-0.00518243 0.000568965 0)
(-0.00563954 0.000573452 0)
(-0.00609913 0.000575171 0)
(-0.00655906 0.000574218 0)
(-0.00701726 0.000570692 0)
(-0.00747175 0.000564704 0)
(-0.00792062 0.000556376 0)
(-0.00836203 0.000545821 0)
(-0.00879423 0.00053315 0)
(-0.00921554 0.000518473 0)
(-0.00962438 0.000501896 0)
(-0.0100193 0.000483512 0)
(-0.0103987 0.000463414 0)
(-0.0107614 0.000441704 0)
(-0.0111061 0.000418486 0)
(-0.0114316 0.000393863 0)
(-0.0117368 0.000367935 0)
(-0.0120207 0.000340804 0)
(-0.0122823 0.000312551 0)
(-0.0125207 0.000283253 0)
(-0.0127352 0.000253 0)
(-0.0129251 0.000221892 0)
(-0.0130896 0.00019003 0)
(-0.0132283 0.000157521 0)
(-0.0133407 0.00012446 0)
(-0.0134264 9.09345e-05 0)
(-0.013485 5.70443e-05 0)
(-0.0135164 2.28905e-05 0)
(-0.0135204 -1.14294e-05 0)
(-0.0134968 -4.58036e-05 0)
(-0.0134458 -8.01165e-05 0)
(-0.0133674 -0.000114267 0)
(-0.0132618 -0.00014815 0)
(-0.0131294 -0.000181648 0)
(-0.0129703 -0.000214646 0)
(-0.0127852 -0.000247025 0)
(-0.0125745 -0.000278665 0)
(-0.0123389 -0.000309447 0)
(-0.0120791 -0.000339258 0)
(-0.0117961 -0.000367972 0)
(-0.0114906 -0.000395448 0)
(-0.0111638 -0.000421552 0)
(-0.0108167 -0.00044616 0)
(-0.0104506 -0.000469152 0)
(-0.0100669 -0.000490407 0)
(-0.00966692 -0.000509809 0)
(-0.0092522 -0.00052724 0)
(-0.00882437 -0.000542577 0)
(-0.00838516 -0.000555698 0)
(-0.00793635 -0.000566491 0)
(-0.00747983 -0.000574846 0)
(-0.00701759 -0.000580653 0)
(-0.00655169 -0.000583805 0)
(-0.00608427 -0.000584205 0)
(-0.00561753 -0.000581762 0)
(-0.00515376 -0.000576386 0)
(-0.00469531 -0.000567997 0)
(-0.00424455 -0.000556534 0)
(-0.00380392 -0.000541948 0)
(-0.00337588 -0.000524204 0)
(-0.00296293 -0.000503273 0)
(-0.00256753 -0.000479145 0)
(-0.00219214 -0.000451832 0)
(-0.00183919 -0.000421379 0)
(-0.00151102 -0.000387864 0)
(-0.00120989 -0.000351415 0)
(-0.000937879 -0.000312218 0)
(-0.000696879 -0.000270546 0)
(-0.000488485 -0.000226784 0)
(-0.00031391 -0.000181473 0)
(-0.000173839 -0.00013537 0)
(-6.82576e-05 -8.95579e-05 0)
(3.77701e-06 -4.55719e-05 0)
(4.44472e-05 -5.6196e-06 0)
(5.74889e-05 2.71437e-05 0)
(4.86574e-05 4.82948e-05 0)
(2.72512e-05 5.171e-05 0)
(7.43558e-06 2.88355e-05 0)
(5.18696e-06 -4.16707e-05 0)
(1.65796e-05 -6.78614e-05 0)
(2.07796e-05 -5.32913e-05 0)
(4.12818e-06 -9.46587e-06 0)
(-4.2964e-05 5.40712e-05 0)
(-0.000126819 0.000129974 0)
(-0.000251522 0.000212959 0)
(-0.000419339 0.000299055 0)
(-0.000631287 0.000385512 0)
(-0.000887118 0.000470278 0)
(-0.00118585 0.000551936 0)
(-0.00152587 0.000629421 0)
(-0.00190501 0.000702037 0)
(-0.00232086 0.000769254 0)
(-0.00277065 0.00083076 0)
(-0.00325144 0.000886327 0)
(-0.00376023 0.000935875 0)
(-0.00429386 0.000979325 0)
(-0.0048492 0.00101678 0)
(-0.00542307 0.00104823 0)
(-0.0060123 0.0010738 0)
(-0.00661376 0.0010936 0)
(-0.0072244 0.00110777 0)
(-0.00784121 0.00111646 0)
(-0.00846126 0.00111984 0)
(-0.00908171 0.00111808 0)
(-0.00969982 0.00111135 0)
(-0.0103129 0.00109986 0)
(-0.0109184 0.00108381 0)
(-0.0115139 0.0010634 0)
(-0.0120969 0.00103884 0)
(-0.0126653 0.00101035 0)
(-0.0132169 0.00097811 0)
(-0.0137497 0.000942319 0)
(-0.0142616 0.000903177 0)
(-0.014751 0.000860877 0)
(-0.0152161 0.000815609 0)
(-0.0156552 0.000767571 0)
(-0.016067 0.000716958 0)
(-0.0164499 0.000663964 0)
(-0.0168027 0.000608771 0)
(-0.0171242 0.000551555 0)
(-0.0174135 0.000492492 0)
(-0.0176694 0.000431778 0)
(-0.0178911 0.000369605 0)
(-0.018078 0.000306168 0)
(-0.0182293 0.000241663 0)
(-0.0183446 0.000176282 0)
(-0.0184233 0.000110213 0)
(-0.0184653 4.36493e-05 0)
(-0.0184702 -2.32042e-05 0)
(-0.0184381 -9.01422e-05 0)
(-0.0183689 -0.000156953 0)
(-0.0182628 -0.000223423 0)
(-0.01812 -0.000289342 0)
(-0.017941 -0.000354499 0)
(-0.0177262 -0.000418665 0)
(-0.0174763 -0.000481606 0)
(-0.0171919 -0.000543103 0)
(-0.0168741 -0.000602927 0)
(-0.0165237 -0.00066084 0)
(-0.0161419 -0.000716598 0)
(-0.01573 -0.000769958 0)
(-0.0152893 -0.000820674 0)
(-0.0148215 -0.000868501 0)
(-0.014328 -0.000913199 0)
(-0.0138108 -0.000954534 0)
(-0.0132716 -0.000992272 0)
(-0.0127127 -0.00102618 0)
(-0.0121361 -0.00105602 0)
(-0.0115441 -0.00108158 0)
(-0.0109392 -0.00110263 0)
(-0.0103238 -0.00111895 0)
(-0.00970066 -0.00113034 0)
(-0.00907252 -0.00113659 0)
(-0.0084422 -0.00113753 0)
(-0.00781266 -0.00113298 0)
(-0.00718693 -0.00112277 0)
(-0.00656812 -0.00110677 0)
(-0.00595938 -0.00108486 0)
(-0.00536392 -0.00105696 0)
(-0.004785 -0.00102299 0)
(-0.00422588 -0.000982941 0)
(-0.0036898 -0.00093681 0)
(-0.00317994 -0.000884654 0)
(-0.00269943 -0.000826585 0)
(-0.00225129 -0.000762794 0)
(-0.00183838 -0.000693573 0)
(-0.00146332 -0.000619336 0)
(-0.00112843 -0.000540655 0)
(-0.000835655 -0.000458319 0)
(-0.000586406 -0.000373403 0)
(-0.000381432 -0.000287373 0)
(-0.000220607 -0.000202237 0)
(-0.00010271 -0.000120735 0)
(-2.51392e-05 -4.66193e-05 0)
(1.63933e-05 1.49951e-05 0)
(2.82549e-05 5.72884e-05 0)
(2.01466e-05 7.11432e-05 0)
(6.30039e-06 4.3282e-05 0)
(2.83791e-06 -4.85022e-05 0)
(3.80017e-06 -6.95293e-05 0)
(-1.31173e-05 -3.58237e-05 0)
(-5.93871e-05 3.7787e-05 0)
(-0.000144181 0.000138932 0)
(-0.000273805 0.000257825 0)
(-0.000452333 0.000387035 0)
(-0.000682225 0.000521132 0)
(-0.00096434 0.000655947 0)
(-0.00129856 0.000788507 0)
(-0.00168374 0.000916536 0)
(-0.00211799 0.0010384 0)
(-0.00259896 0.00115289 0)
(-0.00312375 0.00125917 0)
(-0.00368921 0.00135665 0)
(-0.00429192 0.00144493 0)
(-0.00492827 0.00152378 0)
(-0.00559456 0.0015931 0)
(-0.00628701 0.00165287 0)
(-0.00700182 0.00170317 0)
(-0.00773518 0.0017441 0)
(-0.00848331 0.00177582 0)
(-0.00924248 0.00179852 0)
(-0.010009 0.00181242 0)
(-0.0107794 0.00181777 0)
(-0.0115501 0.00181485 0)
(-0.0123177 0.00180395 0)
(-0.013079 0.00178536 0)
(-0.0138308 0.00175938 0)
(-0.0145701 0.00172635 0)
(-0.015294 0.00168657 0)
(-0.0159997 0.00164038 0)
(-0.0166845 0.00158808 0)
(-0.0173458 0.00153 0)
(-0.0179814 0.00146646 0)
(-0.0185889 0.00139776 0)
(-0.0191662 0.00132424 0)
(-0.0197113 0.00124619 0)
(-0.0202224 0.00116394 0)
(-0.0206976 0.0010778 0)
(-0.0211355 0.000988068 0)
(-0.0215346 0.000895049 0)
(-0.0218935 0.000799053 0)
(-0.022211 0.000700386 0)
(-0.0224861 0.00059936 0)
(-0.0227178 0.000496288 0)
(-0.0229054 0.000391486 0)
(-0.0230482 0.000285274 0)
(-0.0231457 0.000177968 0)
(-0.0231975 6.98861e-05 0)
(-0.0232034 -3.86416e-05 0)
(-0.0231632 -0.000147277 0)
(-0.0230771 -0.000255689 0)
(-0.0229451 -0.000363538 0)
(-0.0227677 -0.000470472 0)
(-0.0225453 -0.000576135 0)
(-0.0222785 -0.00068017 0)
(-0.0219681 -0.000782213 0)
(-0.021615 -0.000881894 0)
(-0.0212205 -0.000978841 0)
(-0.0207855 -0.00107268 0)
(-0.0203117 -0.00116302 0)
(-0.0198005 -0.00124946 0)
(-0.0192538 -0.00133163 0)
(-0.0186732 -0.00140913 0)
(-0.018061 -0.00148157 0)
(-0.0174193 -0.00154857 0)
(-0.0167504 -0.00160976 0)
(-0.016057 -0.00166474 0)
(-0.0153416 -0.00171317 0)
(-0.0146072 -0.00175466 0)
(-0.0138566 -0.00178887 0)
(-0.013093 -0.00181545 0)
(-0.0123197 -0.00183407 0)
(-0.01154 -0.00184443 0)
(-0.0107574 -0.00184621 0)
(-0.00997561 -0.00183917 0)
(-0.00919823 -0.00182305 0)
(-0.0084291 -0.00179764 0)
(-0.00767204 -0.00176276 0)
(-0.00693096 -0.00171829 0)
(-0.0062098 -0.00166416 0)
(-0.00551251 -0.00160033 0)
(-0.00484295 -0.00152686 0)
(-0.00420497 -0.00144386 0)
(-0.00360227 -0.00135156 0)
(-0.00303846 -0.00125033 0)
(-0.00251687 -0.00114066 0)
(-0.00204057 -0.00102329 0)
(-0.00161225 -0.000899169 0)
(-0.00123411 -0.000769602 0)
(-0.000907753 -0.000636314 0)
(-0.000634008 -0.000501596 0)
(-0.000412742 -0.000368499 0)
(-0.00024265 -0.000241062 0)
(-0.000121011 -0.000124629 0)
(-4.34085e-05 -2.62435e-05 0)
(-3.38753e-06 4.49628e-05 0)
(8.26469e-06 7.70319e-05 0)
(4.18452e-06 5.24184e-05 0)
(1.69258e-07 -4.78281e-05 0)
(-1.13498e-05 -5.25298e-05 0)
(-5.31403e-05 9.66526e-06 0)
(-0.000134021 0.000121668 0)
(-0.000261645 0.000268497 0)
(-0.000442037 0.000438165 0)
(-0.000678978 0.000621384 0)
(-0.000974621 0.000811096 0)
(-0.00132989 0.00100189 0)
(-0.00174432 0.0011897 0)
(-0.00221668 0.00137142 0)
(-0.00274492 0.00154471 0)
(-0.00332629 0.00170785 0)
(-0.00395764 0.00185958 0)
(-0.00463542 0.00199897 0)
(-0.00535576 0.00212544 0)
(-0.0061146 0.00223856 0)
(-0.00690772 0.00233814 0)
(-0.00773081 0.00242407 0)
(-0.0085795 0.00249642 0)
(-0.00944944 0.00255531 0)
(-0.0103362 0.00260093 0)
(-0.0112356 0.00263354 0)
(-0.0121433 0.00265343 0)
(-0.0130552 0.00266093 0)
(-0.0139671 0.00265643 0)
(-0.0148753 0.00264032 0)
(-0.0157758 0.00261302 0)
(-0.0166649 0.00257497 0)
(-0.0175391 0.00252661 0)
(-0.018395 0.00246841 0)
(-0.0192292 0.00240081 0)
(-0.0200387 0.00232428 0)
(-0.0208205 0.00223927 0)
(-0.0215718 0.00214626 0)
(-0.0222898 0.00204569 0)
(-0.0229721 0.00193803 0)
(-0.0236164 0.00182375 0)
(-0.0242203 0.0017033 0)
(-0.024782 0.00157714 0)
(-0.0252994 0.00144571 0)
(-0.025771 0.00130947 0)
(-0.026195 0.00116887 0)
(-0.0265701 0.00102438 0)
(-0.026895 0.000876439 0)
(-0.0271687 0.000725523 0)
(-0.0273903 0.000572085 0)
(-0.0275588 0.000416588 0)
(-0.0276739 0.000259506 0)
(-0.0277349 0.000101316 0)
(-0.0277416 -5.75021e-05 0)
(-0.0276939 -0.000216461 0)
(-0.0275919 -0.000375067 0)
(-0.0274358 -0.000532821 0)
(-0.0272259 -0.00068922 0)
(-0.0269629 -0.000843742 0)
(-0.0266475 -0.000995861 0)
(-0.0262806 -0.00114505 0)
(-0.0258633 -0.00129076 0)
(-0.025397 -0.00143246 0)
(-0.024883 -0.0015696 0)
(-0.0243231 -0.00170162 0)
(-0.0237191 -0.00182794 0)
(-0.0230731 -0.00194802 0)
(-0.0223872 -0.00206128 0)
(-0.0216638 -0.00216717 0)
(-0.0209057 -0.00226512 0)
(-0.0201154 -0.00235459 0)
(-0.0192961 -0.00243502 0)
(-0.0184508 -0.00250589 0)
(-0.0175829 -0.00256666 0)
(-0.0166959 -0.00261683 0)
(-0.0157934 -0.0026559 0)
(-0.0148791 -0.0026834 0)
(-0.0139572 -0.00269889 0)
(-0.0130316 -0.00270195 0)
(-0.0121066 -0.00269221 0)
(-0.0111864 -0.00266932 0)
(-0.0102755 -0.00263301 0)
(-0.00937828 -0.00258302 0)
(-0.00849933 -0.00251922 0)
(-0.00764316 -0.0024415 0)
(-0.00681429 -0.00234987 0)
(-0.0060172 -0.00224442 0)
(-0.00525623 -0.00212538 0)
(-0.00453565 -0.00199314 0)
(-0.0038595 -0.00184825 0)
(-0.00323158 -0.00169151 0)
(-0.00265533 -0.001524 0)
(-0.00213374 -0.00134715 0)
(-0.00166929 -0.00116285 0)
(-0.00126376 -0.000973534 0)
(-0.000918139 -0.000782403 0)
(-0.000632398 -0.000593595 0)
(-0.00040533 -0.000412455 0)
(-0.000234357 -0.000245874 0)
(-0.000115273 -0.000102713 0)
(-4.19508e-05 5.77318e-06 0)
(-6.30744e-06 6.51279e-05 0)
(1.60699e-06 5.44115e-05 0)
(-2.5474e-06 -3.89566e-05 0)
(-2.75205e-05 -1.45943e-05 0)
(-9.66766e-05 8.66635e-05 0)
(-0.000215198 0.000246155 0)
(-0.00038921 0.000446983 0)
(-0.000623882 0.000675084 0)
(-0.00092248 0.000919637 0)
(-0.00128685 0.00117199 0)
(-0.00171738 0.0014256 0)
(-0.00221355 0.00167528 0)
(-0.00277381 0.00191706 0)
(-0.0033958 0.00214794 0)
(-0.00407658 0.00236557 0)
(-0.00481265 0.00256823 0)
(-0.00560005 0.00275468 0)
(-0.00643458 0.00292401 0)
(-0.00731176 0.00307564 0)
(-0.00822691 0.00320921 0)
(-0.00917525 0.00332458 0)
(-0.0101519 0.0034217 0)
(-0.0111521 0.00350072 0)
(-0.0121708 0.00356187 0)
(-0.0132033 0.00360545 0)
(-0.0142447 0.00363185 0)
(-0.0152905 0.00364148 0)
(-0.0163361 0.00363484 0)
(-0.0173769 0.00361244 0)
(-0.0184087 0.00357483 0)
(-0.0194272 0.00352258 0)
(-0.0204285 0.0034563 0)
(-0.0214086 0.00337657 0)
(-0.0223638 0.00328402 0)
(-0.0232907 0.00317926 0)
(-0.0241857 0.00306293 0)
(-0.0250456 0.00293564 0)
(-0.0258675 0.00279802 0)
(-0.0266485 0.0026507 0)
(-0.0273858 0.00249431 0)
(-0.028077 0.00232947 0)
(-0.0287197 0.00215681 0)
(-0.0293118 0.00197695 0)
(-0.0298514 0.00179051 0)
(-0.0303365 0.00159811 0)
(-0.0307657 0.00140039 0)
(-0.0311374 0.00119797 0)
(-0.0314505 0.000991484 0)
(-0.0317038 0.000781564 0)
(-0.0318966 0.00056885 0)
(-0.032028 0.000353983 0)
(-0.0320977 0.000137615 0)
(-0.0321052 -7.95884e-05 0)
(-0.0320505 -0.00029696 0)
(-0.0319336 -0.000513828 0)
(-0.0317548 -0.000729511 0)
(-0.0315146 -0.000943313 0)
(-0.0312135 -0.00115453 0)
(-0.0308525 -0.00136244 0)
(-0.0304326 -0.00156632 0)
(-0.0299551 -0.00176545 0)
(-0.0294215 -0.00195908 0)
(-0.0288334 -0.00214645 0)
(-0.0281927 -0.00232682 0)
(-0.0275016 -0.00249942 0)
(-0.0267624 -0.00266349 0)
(-0.0259776 -0.00281825 0)
(-0.02515 -0.00296297 0)
(-0.0242824 -0.00309686 0)
(-0.0233781 -0.00321919 0)
(-0.0224405 -0.00332921 0)
(-0.0214731 -0.00342622 0)
(-0.0204797 -0.00350948 0)
(-0.0194642 -0.00357832 0)
(-0.0184307 -0.00363207 0)
(-0.0173837 -0.00367011 0)
(-0.0163275 -0.00369185 0)
(-0.0152668 -0.00369673 0)
(-0.0142063 -0.00368427 0)
(-0.0131508 -0.00365402 0)
(-0.0121053 -0.00360562 0)
(-0.0110749 -0.00353878 0)
(-0.0100645 -0.00345331 0)
(-0.00907934 -0.00334912 0)
(-0.00812435 -0.00322625 0)
(-0.00720453 -0.00308487 0)
(-0.00632474 -0.00292534 0)
(-0.00548967 -0.00274822 0)
(-0.00470382 -0.00255434 0)
(-0.00397136 -0.0023448 0)
(-0.00329607 -0.00212111 0)
(-0.00268126 -0.0018852 0)
(-0.00212967 -0.00163957 0)
(-0.00164333 -0.00138746 0)
(-0.00122344 -0.00113297 0)
(-0.0008702 -0.000881329 0)
(-0.000582679 -0.000639132 0)
(-0.000358657 -0.000414725 0)
(-0.000194411 -0.000218616 0)
(-8.4449e-05 -6.3907e-05 0)
(-2.22474e-05 3.29018e-05 0)
(-1.14553e-06 4.83578e-05 0)
(-5.22558e-06 -2.15933e-05 0)
(-4.40818e-05 4.55154e-05 0)
(-0.000141753 0.000197175 0)
(-0.000299864 0.000413932 0)
(-0.000522412 0.000677155 0)
(-0.000813723 0.00097145 0)
(-0.00117628 0.00128429 0)
(-0.00161128 0.00160597 0)
(-0.00211878 0.00192863 0)
(-0.00269778 0.00224613 0)
(-0.00334642 0.00255369 0)
(-0.00406208 0.00284751 0)
(-0.00484146 0.00312471 0)
(-0.00568074 0.00338308 0)
(-0.00657565 0.00362097 0)
(-0.00752161 0.00383717 0)
(-0.00851373 0.00403092 0)
(-0.00954696 0.00420164 0)
(-0.0106161 0.00434912 0)
(-0.0117158 0.00447328 0)
(-0.0128408 0.00457421 0)
(-0.0139858 0.00465217 0)
(-0.0151453 0.00470752 0)
(-0.0163143 0.00474071 0)
(-0.0174876 0.00475227 0)
(-0.01866 0.00474279 0)
(-0.0198268 0.00471293 0)
(-0.020983 0.00466335 0)
(-0.0221242 0.00459481 0)
(-0.0232457 0.00450803 0)
(-0.0243434 0.0044038 0)
(-0.025413 0.00428289 0)
(-0.0264506 0.0041461 0)
(-0.0274525 0.00399425 0)
(-0.0284151 0.00382812 0)
(-0.0293349 0.00364854 0)
(-0.0302089 0.00345633 0)
(-0.031034 0.00325229 0)
(-0.0318074 0.00303723 0)
(-0.0325265 0.00281198 0)
(-0.033189 0.00257734 0)
(-0.0337926 0.00233414 0)
(-0.0343353 0.00208317 0)
(-0.0348154 0.00182528 0)
(-0.0352312 0.00156126 0)
(-0.0355813 0.00129195 0)
(-0.0358647 0.00101819 0)
(-0.0360802 0.000740797 0)
(-0.0362272 0.000460619 0)
(-0.036305 0.000178509 0)
(-0.0363133 -0.00010467 0)
(-0.0362521 -0.00038805 0)
(-0.0361212 -0.000670755 0)
(-0.0359211 -0.000951893 0)
(-0.0356523 -0.00123055 0)
(-0.0353155 -0.00150582 0)
(-0.0349116 -0.00177676 0)
(-0.0344419 -0.00204244 0)
(-0.0339077 -0.00230191 0)
(-0.0333108 -0.00255421 0)
(-0.0326529 -0.00279835 0)
(-0.0319363 -0.00303336 0)
(-0.0311632 -0.00325825 0)
(-0.0303362 -0.00347205 0)
(-0.0294582 -0.00367375 0)
(-0.0285322 -0.00386238 0)
(-0.0275615 -0.00403695 0)
(-0.0265496 -0.0041965 0)
(-0.0255003 -0.00434008 0)
(-0.0244175 -0.00446676 0)
(-0.0233054 -0.00457562 0)
(-0.0221683 -0.00466578 0)
(-0.0210109 -0.00473639 0)
(-0.019838 -0.00478666 0)
(-0.0186544 -0.00481583 0)
(-0.0174653 -0.00482323 0)
(-0.0162759 -0.00480822 0)
(-0.0150914 -0.00477026 0)
(-0.0139175 -0.00470892 0)
(-0.0127596 -0.00462383 0)
(-0.0116232 -0.0045148 0)
(-0.0105139 -0.00438175 0)
(-0.00943727 -0.00422475 0)
(-0.00839864 -0.00404408 0)
(-0.00740335 -0.00384026 0)
(-0.00645651 -0.00361407 0)
(-0.00556301 -0.00336659 0)
(-0.00472738 -0.00309931 0)
(-0.00395374 -0.00281415 0)
(-0.00324571 -0.00251359 0)
(-0.00260633 -0.00220081 0)
(-0.00203794 -0.0018798 0)
(-0.00154203 -0.00155557 0)
(-0.00111915 -0.00123438 0)
(-0.000768773 -0.000924016 0)
(-0.000489231 -0.000634138 0)
(-0.000277484 -0.000376691 0)
(-0.000128883 -0.000166299 0)
(-3.87285e-05 -2.10518e-05 0)
(-3.90695e-06 3.38652e-05 0)
(-7.80251e-06 4.25352e-06 0)
(-6.05805e-05 0.000128283 0)
(-0.000187281 0.000342298 0)
(-0.000385835 0.000626351 0)
(-0.000658184 0.000960839 0)
(-0.00100751 0.00132894 0)
(-0.00143542 0.00171716 0)
(-0.0019424 0.00211447 0)
(-0.0025279 0.00251208 0)
(-0.00319047 0.00290294 0)
(-0.00392784 0.00328139 0)
(-0.00473699 0.00364299 0)
(-0.00561431 0.00398424 0)
(-0.00655562 0.00430247 0)
(-0.00755634 0.0045956 0)
(-0.00861147 0.00486215 0)
(-0.0097158 0.00510105 0)
(-0.0108639 0.00531162 0)
(-0.0120501 0.00549346 0)
(-0.0132688 0.00564646 0)
(-0.0145143 0.0057707 0)
(-0.0157806 0.00586644 0)
(-0.0170623 0.00593407 0)
(-0.0183535 0.00597412 0)
(-0.0196487 0.00598722 0)
(-0.0209424 0.00597408 0)
(-0.0222293 0.00593548 0)
(-0.0235042 0.00587226 0)
(-0.0247621 0.0057853 0)
(-0.025998 0.00567551 0)
(-0.0272074 0.00554385 0)
(-0.0283856 0.00539129 0)
(-0.0295284 0.00521881 0)
(-0.0306317 0.0050274 0)
(-0.0316915 0.00481809 0)
(-0.0327042 0.00459187 0)
(-0.0336663 0.00434978 0)
(-0.0345745 0.00409283 0)
(-0.0354257 0.00382203 0)
(-0.0362172 0.00353842 0)
(-0.0369462 0.00324301 0)
(-0.0376104 0.00293683 0)
(-0.0382076 0.00262091 0)
(-0.0387358 0.00229627 0)
(-0.0391933 0.00196396 0)
(-0.0395786 0.001625 0)
(-0.0398903 0.00128045 0)
(-0.0401274 0.000931351 0)
(-0.0402891 0.000578774 0)
(-0.0403747 0.00022379 0)
(-0.0403839 -0.000132521 0)
(-0.0403165 -0.000489068 0)
(-0.0401726 -0.000844744 0)
(-0.0399524 -0.00119842 0)
(-0.0396567 -0.00154897 0)
(-0.0392862 -0.00189523 0)
(-0.0388419 -0.00223604 0)
(-0.0383251 -0.00257022 0)
(-0.0377375 -0.00289658 0)
(-0.0370808 -0.00321391 0)
(-0.036357 -0.00352099 0)
(-0.0355685 -0.00381659 0)
(-0.0347179 -0.0040995 0)
(-0.0338079 -0.00436847 0)
(-0.0328417 -0.00462227 0)
(-0.0318226 -0.00485967 0)
(-0.0307542 -0.00507946 0)
(-0.0296403 -0.00528042 0)
(-0.028485 -0.00546137 0)
(-0.0272926 -0.00562116 0)
(-0.0260678 -0.00575865 0)
(-0.0248152 -0.00587274 0)
(-0.0235398 -0.00596241 0)
(-0.0222468 -0.00602665 0)
(-0.0209417 -0.00606457 0)
(-0.0196299 -0.00607531 0)
(-0.0183171 -0.00605812 0)
(-0.017009 -0.00601235 0)
(-0.0157117 -0.00593748 0)
(-0.0144311 -0.00583311 0)
(-0.0131731 -0.00569901 0)
(-0.0119437 -0.00553512 0)
(-0.010749 -0.00534158 0)
(-0.00959469 -0.0051188 0)
(-0.00848655 -0.00486746 0)
(-0.00743009 -0.00458856 0)
(-0.00643054 -0.00428349 0)
(-0.0054928 -0.00395411 0)
(-0.00462134 -0.0036028 0)
(-0.00382011 -0.0032326 0)
(-0.0030925 -0.00284734 0)
(-0.00244118 -0.00245177 0)
(-0.00186806 -0.00205177 0)
(-0.00137411 -0.00165457 0)
(-0.00095935 -0.00126903 0)
(-0.000622791 -0.000905969 0)
(-0.000362217 -0.000578538 0)
(-0.000173953 -0.000302577 0)
(-5.52543e-05 -9.73614e-05 0)
(-6.59783e-06 1.08577e-05 0)
(-1.02913e-05 3.84558e-05 0)
(-7.67871e-05 0.000233743 0)
(-0.000232497 0.000522332 0)
(-0.00047175 0.00088417 0)
(-0.000794368 0.00129882 0)
(-0.00120239 0.00174868 0)
(-0.00169641 0.00221918 0)
(-0.00227609 0.00269841 0)
(-0.0029402 0.00317668 0)
(-0.00368675 0.00364607 0)
(-0.00451297 0.00410022 0)
(-0.00541544 0.004534 0)
(-0.00639012 0.00494335 0)
(-0.0074325 0.00532511 0)
(-0.0085376 0.00567682 0)
(-0.00970011 0.00599669 0)
(-0.0109144 0.00628336 0)
(-0.0121748 0.00653601 0)
(-0.0134751 0.00675409 0)
(-0.0148095 0.00693741 0)
(-0.0161716 0.00708602 0)
(-0.0175555 0.00720019 0)
(-0.0189549 0.00728036 0)
(-0.0203639 0.00732713 0)
(-0.0217764 0.00734121 0)
(-0.0231866 0.00732346 0)
(-0.0245888 0.00727477 0)
(-0.0259773 0.00719614 0)
(-0.0273469 0.00708863 0)
(-0.0286922 0.00695333 0)
(-0.0300083 0.00679137 0)
(-0.0312901 0.00660393 0)
(-0.0325333 0.00639219 0)
(-0.0337332 0.00615737 0)
(-0.0348857 0.00590067 0)
(-0.0359868 0.00562334 0)
(-0.0370327 0.00532661 0)
(-0.0380199 0.00501173 0)
(-0.0389452 0.00467993 0)
(-0.0398054 0.00433246 0)
(-0.0405977 0.00397058 0)
(-0.0413195 0.00359554 0)
(-0.0419685 0.00320859 0)
(-0.0425425 0.002811 0)
(-0.0430396 0.00240404 0)
(-0.0434583 0.00198896 0)
(-0.043797 0.00156705 0)
(-0.0440547 0.00113961 0)
(-0.0442305 0.000707922 0)
(-0.0443236 0.00027331 0)
(-0.0443337 -0.000162907 0)
(-0.0442605 -0.00059939 0)
(-0.0441043 -0.00103479 0)
(-0.0438653 -0.00146772 0)
(-0.0435442 -0.00189681 0)
(-0.0431418 -0.00232064 0)
(-0.0426593 -0.00273779 0)
(-0.042098 -0.00314683 0)
(-0.0414597 -0.00354629 0)
(-0.0407463 -0.00393471 0)
(-0.0399601 -0.0043106 0)
(-0.0391034 -0.00467248 0)
(-0.0381792 -0.00501886 0)
(-0.0371904 -0.00534821 0)
(-0.0361404 -0.00565906 0)
(-0.0350327 -0.0059499 0)
(-0.0338713 -0.00621926 0)
(-0.0326602 -0.00646568 0)
(-0.0314039 -0.00668773 0)
(-0.0301071 -0.00688399 0)
(-0.0287745 -0.0070531 0)
(-0.0274114 -0.00719375 0)
(-0.026023 -0.00730469 0)
(-0.0246151 -0.00738474 0)
(-0.0231933 -0.0074328 0)
(-0.0217636 -0.00744787 0)
(-0.020332 -0.00742905 0)
(-0.0189048 -0.0073756 0)
(-0.0174882 -0.0072869 0)
(-0.0160887 -0.0071625 0)
(-0.0147127 -0.00700216 0)
(-0.0133665 -0.00680584 0)
(-0.0120566 -0.00657378 0)
(-0.0107892 -0.00630649 0)
(-0.00957029 -0.00600484 0)
(-0.00840586 -0.00567007 0)
(-0.00730151 -0.00530389 0)
(-0.0062625 -0.00490853 0)
(-0.00529364 -0.00448684 0)
(-0.00439926 -0.00404241 0)
(-0.00358314 -0.00357971 0)
(-0.00284837 -0.00310422 0)
(-0.00219729 -0.00262263 0)
(-0.00163142 -0.00214306 0)
(-0.00115142 -0.00167533 0)
(-0.000757081 -0.00123123 0)
(-0.000447089 -0.000824928 0)
(-0.000218833 -0.000473197 0)
(-7.15391e-05 -0.00019615 0)
(-9.19319e-06 -2.0568e-05 0)
(-1.26524e-05 8.0789e-05 0)
(-9.26162e-05 0.000361641 0)
(-0.000276969 0.000737196 0)
(-0.000556728 0.00118743 0)
(-0.000929607 0.00169144 0)
(-0.00139642 0.00223103 0)
(-0.00195681 0.00279084 0)
(-0.00260945 0.00335825 0)
(-0.00335242 0.00392274 0)
(-0.00418308 0.0044757 0)
(-0.00509813 0.00501008 0)
(-0.00609365 0.00552016 0)
(-0.00716519 0.00600133 0)
(-0.00830782 0.00644996 0)
(-0.00951619 0.00686323 0)
(-0.0107846 0.007239 0)
(-0.0121071 0.00757572 0)
(-0.0134776 0.00787232 0)
(-0.0148897 0.00812816 0)
(-0.0163369 0.00834296 0)
(-0.0178128 0.00851673 0)
(-0.0193108 0.00864974 0)
(-0.0208246 0.00874247 0)
(-0.0223476 0.00879561 0)
(-0.0238736 0.00880997 0)
(-0.0253963 0.0087865 0)
(-0.0269096 0.00872627 0)
(-0.0284077 0.00863042 0)
(-0.0298847 0.00850019 0)
(-0.0313351 0.00833686 0)
(-0.0327536 0.00814177 0)
(-0.0341349 0.00791629 0)
(-0.0354741 0.00766183 0)
(-0.0367666 0.00737981 0)
(-0.0380078 0.00707169 0)
(-0.0391935 0.00673892 0)
(-0.0403196 0.00638298 0)
(-0.0413824 0.00600534 0)
(-0.0423784 0.0056075 0)
(-0.0433043 0.00519093 0)
(-0.044157 0.00475714 0)
(-0.0449339 0.00430763 0)
(-0.0456323 0.00384388 0)
(-0.0462501 0.00336742 0)
(-0.0467851 0.00287975 0)
(-0.0472357 0.00238241 0)
(-0.0476003 0.00187691 0)
(-0.0478777 0.00136479 0)
(-0.048067 0.000847631 0)
(-0.0481674 0.000326982 0)
(-0.0481784 -0.00019557 0)
(-0.0481 -0.000718426 0)
(-0.0479322 -0.00123996 0)
(-0.0476754 -0.00175853 0)
(-0.0473302 -0.00227249 0)
(-0.0468976 -0.00278015 0)
(-0.0463788 -0.00327981 0)
(-0.0457753 -0.00376976 0)
(-0.0450889 -0.00424826 0)
(-0.0443216 -0.00471356 0)
(-0.0434758 -0.00516389 0)
(-0.0425542 -0.00559748 0)
(-0.0415598 -0.00601255 0)
(-0.0404958 -0.0064073 0)
(-0.0393658 -0.00677996 0)
(-0.0381735 -0.00712876 0)
(-0.0369231 -0.00745194 0)
(-0.0356191 -0.00774777 0)
(-0.034266 -0.00801455 0)
(-0.0328689 -0.0082506 0)