/*--------------------------------*- C++ -*----------------------------------*\
  =========                 |
  \\      /  F ield         | OpenFOAM: The Open Source CFD Toolbox
   \\    /   O peration     | Website:  https://openfoam.org
    \\  /    A nd           | Version:  11
     \\/     M anipulation  |
\*---------------------------------------------------------------------------*/
FoamFile
{
    format      ascii;
    class       volScalarField;
    location    "5";
    object      p;
}
// * * * * * * * * * * * * * * * * * * * * * * * * * * * * * * * * * * * * * //

dimensions      [0 2 -2 0 0 0 0];

internalField   nonuniform List<scalar> 
10100
(
9.68923e-08
8.5549e-05
-0.000119756
-0.000660204
-0.0014896
-0.00255304
-0.0037964
-0.00516717
-0.00661881
-0.00811062
-0.00960736
-0.0110782
-0.0124966
-0.0138401
-0.0150893
-0.0162283
-0.0172425
-0.01812
-0.0188506
-0.0194258
-0.0198392
-0.0200863
-0.0201634
-0.0200682
-0.0197994
-0.0193561
-0.0187387
-0.0179487
-0.0169888
-0.0158616
-0.0145706
-0.0131198
-0.0115141
-0.00975855
-0.00785938
-0.005823
-0.00365588
-0.0013645
0.00104413
0.00356242
0.0061823
0.00889523
0.0116924
0.0145646
0.0175032
0.0204996
0.0235448
0.0266292
0.0297427
0.0328748
0.0360154
0.0391544
0.042282
0.0453882
0.0484633
0.0514971
0.0544793
0.0573996
0.0602481
0.063015
0.0656909
0.0682666
0.0707327
0.0730805
0.0753017
0.0773883
0.0793325
0.0811268
0.0827647
0.0842405
0.0855489
0.0866855
0.0876465
0.0884288
0.0890304
0.0894505
0.0896898
0.0897493
0.0896307
0.089337
0.0888729
0.088245
0.0874617
0.0865328
0.0854703
0.0842877
0.0830007
0.0816273
0.0801882
0.0787071
0.0772108
0.0757292
0.0742972
0.072954
0.0717442
0.0707162
0.0699196
0.069403
0.0692091
0.0692984
-7.70731e-05
-7.31676e-06
-0.000216415
-0.000705073
-0.0014265
-0.00234277
-0.00341372
-0.00459865
-0.00585905
-0.00716051
-0.0084718
-0.00976532
-0.0110167
-0.012205
-0.0133121
-0.0143218
-0.0152203
-0.0159956
-0.0166373
-0.0171371
-0.0174886
-0.0176863
-0.0177266
-0.0176071
-0.0173261
-0.0168824
-0.016276
-0.0155078
-0.0145796
-0.0134941
-0.0122545
-0.0108646
-0.0093287
-0.00765149
-0.00583849
-0.00389555
-0.00182864
0.00035601
0.0026517
0.00505127
0.00754727
0.0101318
0.0127963
0.0155321
0.0183309
0.0211845
0.0240844
0.0270216
0.0299865
0.0329689
0.0359594
0.0389481
0.0419254
0.0448824
0.0478098
0.0506979
0.0535366
0.0563162
0.0590274
0.0616609
0.0642081
0.0666601
0.0690082
0.0712441
0.0733601
0.075349
0.0772031
0.0789157
0.080481
0.0818938
0.0831493
0.0842433
0.0851725
0.0859343
0.0865269
0.08695
0.0872046
0.0872921
0.0872144
0.0869745
0.0865777
0.0860307
0.0853418
0.0845206
0.0835786
0.0825291
0.0813873
0.0801706
0.0788985
0.0775928
0.0762784
0.0749823
0.0737353
0.0725711
0.0715268
0.0706408
0.0699495
0.069487
0.0692984
0.0693884
0.000136362
0.000184262
-3.45679e-05
-0.000500189
-0.00116237
-0.00198964
-0.00295033
-0.00401121
-0.00513994
-0.00630654
-0.00748388
-0.00864693
-0.00977375
-0.0108449
-0.0118432
-0.0127535
-0.0135623
-0.0142574
-0.0148294
-0.0152696
-0.0155718
-0.0157306
-0.0157417
-0.0156025
-0.0153114
-0.0148673
-0.0142698
-0.0135194
-0.0126173
-0.0115657
-0.0103677
-0.00902696
-0.00754755
-0.00593397
-0.00419127
-0.00232467
-0.000339544
0.0017581
0.00396175
0.00626463
0.00865958
0.011139
0.0136949
0.016319
0.0190036
0.0217408
0.0245222
0.027339
0.0301823
0.0330425
0.0359102
0.0387761
0.0416312
0.0444666
0.0472737
0.0500431
0.0527651
0.0554303
0.0580301
0.0605556
0.0629984
0.0653503
0.067603
0.0697485
0.0717797
0.0736895
0.0754711
0.0771179
0.0786246
0.0799867
0.0811996
0.0822594
0.0831631
0.0839082
0.0844935
0.0849189
0.0851856
0.0852949
0.0852488
0.0850508
0.0847064
0.0842224
0.0836068
0.0828687
0.0820192
0.0810711
0.0800392
0.0789399
0.0777913
0.076614
0.0754304
0.0742653
0.0731457
0.072101
0.0711628
0.0703634
0.0697321
0.0692977
0.0691096
0.0691961
0.000664809
0.000645189
0.0003888
-8.17757e-05
-0.000722148
-0.00150337
-0.00239879
-0.00338007
-0.00441992
-0.00549255
-0.00657364
-0.00764107
-0.00867473
-0.00965662
-0.010571
-0.0114034
-0.0121412
-0.0127728
-0.0132886
-0.0136809
-0.0139431
-0.0140702
-0.0140578
-0.0139029
-0.0136037
-0.0131593
-0.0125692
-0.0118338
-0.0109539
-0.00993123
-0.00876864
-0.00746953
-0.00603788
-0.00447812
-0.00279496
-0.000993135
0.000922418
0.00294608
0.00507163
0.00729257
0.00960188
0.0119919
0.0144552
0.0169842
0.0195716
0.0222098
0.0248907
0.0276056
0.0303456
0.0331018
0.0358651
0.0386268
0.0413782
0.0441109
0.0468163
0.0494851
0.0521083
0.0546771
0.0571829
0.0596174
0.0619725
0.0642401
0.0664125
0.0684821
0.0704421
0.0722859
0.0740065
0.0755981
0.077056
0.0783758
0.0795532
0.0805843
0.0814664
0.0821975
0.0827764
0.0832033
0.0834792
0.0836056
0.0835845
0.0834198
0.0831168
0.0826827
0.0821247
0.0814517
0.0806738
0.0798038
0.0788557
0.0778448
0.0767881
0.0757043
0.0746139
0.0735393
0.0725044
0.0715353
0.0706595
0.0699048
0.0692969
0.0688621
0.0686466
0.0686813
0.00146035
0.00132851
0.00100532
0.000505893
-0.000136802
-0.000897854
-0.00175376
-0.00268108
-0.00365655
-0.00465785
-0.00566398
-0.00665513
-0.00761304
-0.00852133
-0.00936518
-0.0101316
-0.0108085
-0.0113856
-0.0118528
-0.0122032
-0.0124304
-0.0125295
-0.0124964
-0.0123281
-0.0120224
-0.0115782
-0.0109952
-0.0102735
-0.00941392
-0.00841811
-0.00728846
-0.00602811
-0.00464089
-0.00313107
-0.0015029
0.000239153
0.00209027
0.00404525
0.00609836
0.00824329
0.0104731
0.0127803
0.0151577
0.0175984
0.0200956
0.022642
0.0252295
0.0278497
0.0304941
0.0331538
0.0358203
0.0384854
0.0411409
0.0437785
0.0463897
0.0489656
0.0514975
0.0539771
0.0563965
0.0587471
0.0610212
0.0632112
0.0653097
0.0673095
0.0692042
0.070987
0.0726516
0.0741927
0.0756059
0.076887
0.0780317
0.0790364
0.0798986
0.0806165
0.0811891
0.0816167
0.0819
0.0820408
0.0820413
0.0819054
0.0816385
0.0812472
0.0807385
0.0801206
0.0794033
0.0785989
0.0777205
0.0767823
0.0758
0.0747904
0.0737722
0.0727654
0.0717913
0.0708728
0.0700337
0.069298
0.0686882
0.068228
0.067953
0.0678857
0.00247631
0.00220054
0.00178708
0.00123851
0.000571761
-0.000191024
-0.00103058
-0.00192657
-0.00285973
-0.00381088
-0.00476142
-0.00569419
-0.00659283
-0.00744227
-0.00822906
-0.00894107
-0.00956729
-0.0100982
-0.010525
-0.0108398
-0.0110372
-0.0111124
-0.0110616
-0.0108818
-0.0105712
-0.0101281
-0.00955214
-0.00884337
-0.00800258
-0.00703129
-0.00593179
-0.00470715
-0.00336099
-0.00189711
-0.000319427
0.00136782
0.00315997
0.00505206
0.00703869
0.00911368
0.0112701
0.013501
0.0157997
0.0181596
0.020574
0.0230359
0.0255374
0.0280705
0.0306269
0.033198
0.0357758
0.0383523
0.0409198
0.0434701
0.0459949
0.0484857
0.050934
0.0533322
0.0556722
0.0579461
0.0601461
0.0622652
0.0642963
0.0662325
0.0680674
0.0697948
0.0714085
0.0729036
0.0742761
0.0755219
0.0766367
0.0776172
0.078461
0.0791665
0.079733
0.0801603
0.0804495
0.0806022
0.0806208
0.0805092
0.0802728
0.0799174
0.0794497
0.0788773
0.0782099
0.077459
0.076637
0.0757567
0.0748322
0.0738789
0.0729134
0.0719538
0.0710189
0.0701287
0.0693037
0.0685641
0.06793
0.0674221
0.0670609
0.0668557
0.00366679
0.00322776
0.00270619
0.00209078
0.00138154
0.000596811
-0.000246161
-0.00113134
-0.00204236
-0.0029624
-0.00387574
-0.00476693
-0.00562146
-0.00642623
-0.00716899
-0.00783798
-0.00842378
-0.00891719
-0.00931053
-0.00959645
-0.00976942
-0.00982503
-0.00975975
-0.00957085
-0.00925642
-0.00881511
-0.00824619
-0.00754966
-0.00672625
-0.0057774
-0.00470533
-0.00351312
-0.00220419
-0.000781953
0.00074993
0.0023874
0.00412617
0.0059615
0.00788799
0.00989948
0.0119893
0.0141509
0.0163782
0.0186649
0.0210042
0.0233895
0.025813
0.028267
0.0307435
0.0332343
0.0357317
0.0382282
0.0407159
0.0431871
0.0456336
0.0480473
0.0504202
0.0527447
0.0550131
0.0572175
0.0593506
0.0614057
0.063376
0.0652549
0.0670359
0.0687132
0.0702812
0.0717351
0.0730711
0.074285
0.0753728
0.0763311
0.077158
0.0778521
0.0784124
0.0788389
0.0791324
0.0792946
0.0793279
0.0792362
0.0790244
0.078698
0.078263
0.0777268
0.077099
0.0763901
0.0756116
0.0747748
0.0738923
0.0729781
0.0720473
0.0711158
0.0702005
0.0693184
0.068487
0.0677235
0.0670456
0.0664713
0.0660038
0.0656375
0.00498982
0.00437583
0.00373367
0.00303773
0.00227013
0.00144705
0.000583194
-0.000308492
-0.00121427
-0.00212009
-0.00301192
-0.00387622
-0.00470048
-0.00547307
-0.00618299
-0.00681978
-0.00737436
-0.00783858
-0.00820507
-0.00846778
-0.00862131
-0.00866142
-0.00858488
-0.00838917
-0.00807244
-0.00763339
-0.00707132
-0.0063863
-0.00557897
-0.00465069
-0.00360371
-0.00244093
-0.00116553
0.000219225
0.00170985
0.00330248
0.00499313
0.00677732
0.00864958
0.0106038
0.0126335
0.0147328
0.0168957
0.0191163
0.021388
0.0237041
0.0260573
0.02844
0.0308444
0.0332628
0.0356878
0.0381122
0.0405281
0.042928
0.045304
0.0476483
0.0499534
0.0522118
0.0544156
0.0565574
0.0586304
0.0606281
0.062544
0.0643713
0.0661041
0.0677366
0.0692637
0.0706809
0.0719841
0.0731694
0.0742327
0.075171
0.0759825
0.076666
0.0772204
0.0776453
0.0779418
0.0781114
0.0781564
0.0780804
0.0778878
0.0775838
0.0771742
0.0766661
0.0760684
0.075391
0.0746441
0.0738378
0.0729831
0.0720929
0.0711807
0.0702611
0.0693483
0.0684571
0.0676021
0.0667979
0.0660603
0.0654047
0.0648166
0.0642753
0.00640816
0.00561314
0.00484171
0.00405478
0.0032164
0.00234108
0.00144177
0.00052905
-0.000386192
-0.00129186
-0.00217573
-0.00302632
-0.00383248
-0.00458387
-0.00527103
-0.0058849
-0.00641645
-0.00685886
-0.00720517
-0.0074499
-0.00758837
-0.0076167
-0.00753179
-0.00733141
-0.00701382
-0.00657768
-0.00602242
-0.00534819
-0.00455565
-0.00364617
-0.00262199
-0.00148583
-0.000240578
0.00111062
0.0025643
0.0041169
0.00576461
0.00750292
0.00932642
0.0112292
0.0132052
0.0152488
0.0173542
0.0195155
0.0217266
0.0239808
0.026271
0.0285898
0.0309297
0.0332832
0.0356435
0.0380034
0.0403551
0.042691
0.0450041
0.0472866
0.0495311
0.0517302
0.0538764
0.0559624
0.0579818
0.0599285
0.0617958
0.0635773
0.0652672
0.0668601
0.068351
0.0697356
0.0710097
0.0721694
0.0732108
0.0741312
0.074929
0.0756027
0.0761512
0.0765741
0.0768722
0.0770472
0.0771011
0.0770369
0.0768588
0.0765715
0.0761807
0.0756932
0.0751172
0.0744617
0.0737356
0.0729479
0.0721086
0.0712292
0.0703221
0.0693999
0.0684751
0.0675601
0.0666672
0.0658085
0.0649983
0.06425
0.0635318
0.0628084
0.00788984
0.00691109
0.00600493
0.00511884
0.0042001
0.00326123
0.00231469
0.00136837
0.000431375
-0.00048605
-0.00137396
-0.00222224
-0.00302094
-0.00376123
-0.00443486
-0.00503362
-0.00554978
-0.00597666
-0.00630868
-0.00654059
-0.00666817
-0.00668803
-0.00659744
-0.00639435
-0.00607707
-0.00564445
-0.00509605
-0.00443202
-0.00365309
-0.00276071
-0.00175702
-0.000644596
0.000573759
0.001895
0.00331588
0.00483306
0.00644272
0.00814021
0.00992024
0.0117773
0.0137057
0.0156999
0.0177543
0.0198631
0.0220204
0.0242196
0.0264538
0.0287158
0.0309985
0.0332948
0.0355978
0.0379003
0.040195
0.0424745
0.0447319
0.0469599
0.0491508
0.0512976
0.0533928
0.0554297
0.057402
0.0593038
0.0611284
0.0628696
0.0645217
0.06608
0.0675393
0.0688952
0.0701437
0.0712809
0.0723031
0.0732077
0.0739932
0.0746581
0.0752009
0.0756212
0.0759199
0.0760983
0.0761583
0.0761024
0.0759344
0.0756589
0.0752811
0.0748075
0.0742454
0.0736029
0.0728878
0.0721083
0.0712734
0.0703934
0.0694794
0.0685424
0.0675929
0.0666415
0.0656987
0.0647744
0.0638816
0.0630324
0.0621782
0.0612697
0.00940736
0.00824458
0.0072002
0.00620939
0.00520247
0.00419132
0.00318752
0.00219742
0.00122837
0.000288588
-0.000613432
-0.00146909
-0.00226982
-0.00300794
-0.00367621
-0.00426713
-0.0047745
-0.00519193
-0.00551469
-0.00573829
-0.00585888
-0.00587343
-0.00577964
-0.00557558
-0.00525971
-0.00483109
-0.00428948
-0.00363512
-0.00286872
-0.0019917
-0.00100622
8.51981e-05
0.00127982
0.00257472
0.00396684
0.00545284
0.00702892
0.00869046
0.0104323
0.0122492
0.0141358
0.0160866
0.0180962
0.020159
0.022269
0.02442
0.026605
0.0288173
0.03105
0.0332962
0.0355489
0.0378012
0.0400459
0.0422761
0.0444851
0.0466655
0.0488098
0.0509109
0.0529619
0.0549563
0.056888
0.0587508
0.0605385
0.0622447
0.0638645
0.0653929
0.066825
0.0681562
0.0693825
0.0705002
0.0715058
0.0723969
0.0731716
0.0738283
0.0743655
0.0747828
0.0750809
0.075261
0.0753246
0.075274
0.0751124
0.0748441
0.074474
0.0740079
0.0734526
0.072815
0.0721024
0.0713218
0.0704816
0.0695911
0.0686601
0.0676976
0.0667126
0.0657144
0.0647117
0.0637128
0.06273
0.0617741
0.0607803
0.0596869
0.0109365
0.00959107
0.00840698
0.00730712
0.00620648
0.00511597
0.00404692
0.00300471
0.00199467
0.00102361
9.88228e-05
-0.000772642
-0.00158362
-0.00232724
-0.00299716
-0.0035872
-0.00409146
-0.004505
-0.0048233
-0.00504253
-0.0051595
-0.00517167
-0.00507689
-0.00487334
-0.00455983
-0.00413574
-0.00360084
-0.00295537
-0.00220025
-0.00133699
-0.000367569
0.000705547
0.00187956
0.00315163
0.00451879
0.00597771
0.00752449
0.00915468
0.0108634
0.0126456
0.014496
0.0164092
0.01838
0.0204029
0.022472
0.0245811
0.0267236
0.028893
0.0310826
0.0332856
0.0354949
0.037704
0.0399058
0.0420938
0.0442613
0.0464009
0.0485052
0.0505674
0.052581
0.0545394
0.0564366
0.0582665
0.0600228
0.0616997
0.0632923
0.0647955
0.0662046
0.0675149
0.0687225
0.0698239
0.0708158
0.0716954
0.0724607
0.0731099
0.0736417
0.0740555
0.0743522
0.0745325
0.0745977
0.0745494
0.0743908
0.0741256
0.0737583
0.0732941
0.072739
0.0720993
0.0713814
0.0705919
0.0697381
0.0688284
0.0678711
0.0668739
0.0658445
0.0647908
0.0637204
0.06264
0.0615616
0.060495
0.05936
0.0580833
0.0124564
0.0109306
0.00960608
0.00839441
0.0071959
0.00602075
0.00488039
0.0037788
0.00272039
0.00171074
0.000755517
-0.000139246
-0.00096745
-0.00172325
-0.00240101
-0.002996
-0.00350269
-0.00391702
-0.00423505
-0.00445365
-0.00457019
-0.00458238
-0.00448835
-0.0042867
-0.0039765
-0.0035572
-0.00302868
-0.00239136
-0.00164628
-0.000794942
0.000160641
0.00121799
0.00237439
0.00362703
0.0049729
0.00640857
0.00793025
0.0095337
0.0112142
0.0129669
0.0147864
0.0166677
0.0186055
0.0205944
0.0226286
0.0247022
0.0268087
0.0289419
0.0310951
0.0332614
0.0354341
0.0376067
0.0397726
0.0419253
0.0440581
0.0461636
0.0482347
0.0502648
0.0522475
0.0541763
0.0560452
0.057848
0.0595788
0.0612319
0.0628023
0.0642851
0.0656754
0.0669686
0.0681612
0.0692495
0.0702303
0.0711005
0.0718579
0.0725007
0.0730273
0.0734376
0.073732
0.0739113
0.0739761
0.0739278
0.0737691
0.0735033
0.0731344
0.0726669
0.0721063
0.0714582
0.0707284
0.0699229
0.0690483
0.0681117
0.0671203
0.0660806
0.0649992
0.063883
0.0627385
0.0615714
0.0603931
0.0592129
0.0579366
0.0564794
0.0139491
0.0122455
0.0107805
0.00945535
0.00815583
0.00689218
0.00567556
0.00450893
0.0033961
0.00234147
0.00134941
0.00042495
-0.000426598
-0.00120035
-0.00189183
-0.0024966
-0.00301055
-0.00342979
-0.00375129
-0.00397256
-0.00409135
-0.00410568
-0.004014
-0.00381537
-0.00350913
-0.00309475
-0.00257217
-0.0019421
-0.00120573
-0.000364542
0.000579442
0.00162368
0.0027654
0.0040018
0.00532981
0.00674604
0.00824684
0.00982812
0.0114853
0.0132133
0.0150073
0.016862
0.0187724
0.0207331
0.0227384
0.0247826
0.0268596
0.028963
0.0310862
0.0332223
0.0353649
0.0375078
0.0396447
0.0417688
0.0438736
0.0459516
0.0479962
0.0500008
0.0519592
0.0538648
0.0557114
0.0574931
0.0592041
0.0608388
0.0623922
0.0638593
0.0652351
0.0665154
0.0676966
0.0687753
0.0697476
0.0706105
0.0713616
0.071999
0.0725213
0.0729282
0.0732201
0.0733972
0.07346
0.0734094
0.0732477
0.0729779
0.0726035
0.0721283
0.0715571
0.0708951
0.0701477
0.0693201
0.068418
0.0674478
0.0664155
0.0653268
0.0641872
0.0630027
0.061779
0.0605209
0.0592396
0.0579441
0.0565267
0.0548923
0.0153989
0.0135202
0.0119157
0.0104755
0.00907288
0.00771754
0.00642083
0.00518492
0.00401253
0.00290735
0.00187316
0.000913827
3.35678e-05
-0.000763346
-0.00147341
-0.00209257
-0.00261776
-0.00304561
-0.00337389
-0.00360066
-0.00372391
-0.00374208
-0.00365424
-0.00345969
-0.00315776
-0.00274803
-0.00223086
-0.00160716
-0.000878072
-4.51342e-05
0.000889513
0.00192321
0.0030531
0.00427635
0.00558996
0.00699061
0.00847473
0.0100383
0.0116767
0.0133852
0.0151587
0.0169921
0.0188806
0.0208186
0.0228009
0.0248219
0.0268755
0.0289553
0.0310547
0.0331671
0.0352863
0.0374062
0.0395206
0.0416227
0.043706
0.0457633
0.047788
0.0497737
0.0517142
0.0536026
0.055433
0.0571997
0.0588968
0.0605187
0.0620602
0.0635163
0.0648822
0.0661536
0.0673273
0.0683995
0.0693662
0.0702241
0.0709706
0.071604
0.0721229
0.072527
0.072816
0.0729902
0.0730494
0.0729944
0.0728273
0.0725507
0.0721673
0.0716805
0.0710944
0.0704138
0.0696435
0.0687882
0.067853
0.0668432
0.0657641
0.0646207
0.0634176
0.0621602
0.0608533
0.0595007
0.058114
0.0567021
0.0551446
0.0533364
0.0167915
0.0147407
0.0129975
0.0114421
0.00993453
0.00848504
0.00710537
0.00579648
0.00456037
0.00340031
0.00231935
0.00132054
0.000407134
-0.000417507
-0.00115007
-0.0017877
-0.00232757
-0.0027674
-0.00310536
-0.00333982
-0.0034694
-0.00349312
-0.00341035
-0.00322045
-0.00292285
-0.00251753
-0.00200516
-0.0013867
-0.000663282
0.000163388
0.00109092
0.00211655
0.00323744
0.00445076
0.00575354
0.00714252
0.00861415
0.0101644
0.0117888
0.0134825
0.0152406
0.0170581
0.0189298
0.0208509
0.0228161
0.0248197
0.0268559
0.0289181
0.0309999
0.0330949
0.0351972
0.0373008
0.0393991
0.0414856
0.0435538
0.045597
0.0476084
0.0495817
0.0515103
0.0533878
0.0552081
0.0569658
0.0586548
0.0602694
0.0618042
0.0632541
0.0646145
0.0658815
0.0670515
0.0681205
0.0690844
0.0699396
0.0706837
0.0713148
0.0718317
0.0722334
0.0725196
0.07269
0.0727444
0.0726835
0.072509
0.0722229
0.0718276
0.0713258
0.070721
0.0700175
0.0692196
0.0683317
0.0673582
0.0663038
0.065173
0.0639701
0.0626991
0.0613649
0.0599714
0.0585218
0.0570278
0.0554991
0.0538026
0.0518238
0.0181146
0.0158941
0.0140135
0.0123429
0.0107293
0.0091837
0.00771832
0.00633358
0.00503055
0.00381205
0.00268043
0.00163809
0.000687686
-0.0001683
-0.00092695
-0.00158634
-0.00214407
-0.00259864
-0.00294856
-0.0031927
-0.00333035
-0.00336101
-0.00328412
-0.00309907
-0.00280571
-0.00240445
-0.00189606
-0.00128143
-0.000561913
0.000260455
0.00118309
0.00220322
0.00331805
0.00452476
0.00582036
0.00720161
0.00866496
0.0102064
0.0118214
0.0135053
0.0152529
0.0170595
0.01892
0.0208297
0.0227834
0.0247756
0.0268001
0.0288507
0.030921
0.0330051
0.0350969
0.0371903
0.0392789
0.0413563
0.043416
0.0454514
0.0474559
0.0494228
0.0513458
0.0532183
0.0550347
0.0567893
0.058476
0.0600886
0.0616217
0.0630705
0.0644303
0.065697
0.0668671
0.0679362
0.0689001
0.0697554
0.0704995
0.0711305
0.0716467
0.0720469
0.0723303
0.0724965
0.0725454
0.0724774
0.0722939
0.0719964
0.0715866
0.0710667
0.0704399
0.0697098
0.0688804
0.0679556
0.0669394
0.0658361
0.0646493
0.0633828
0.0620403
0.060626
0.0591432
0.0575944
0.055992
0.0543461
0.0525117
0.0503652
0.0193572
0.0169691
0.0149523
0.0131664
0.0114464
0.00980311
0.00824975
0.00678679
0.00541426
0.00413416
0.00294868
0.00185959
0.000868847
-2.1452e-05
-0.000809462
-0.00149331
-0.00207165
-0.00254319
-0.00290696
-0.00316256
-0.00330982
-0.00334835
-0.00327763
-0.00309749
-0.00280822
-0.00241042
-0.00190481
-0.00129244
-0.000575061
0.000244945
0.00116498
0.00218235
0.00329424
0.00449775
0.00578987
0.00716737
0.00862671
0.0101638
0.0117741
0.0134529
0.0151951
0.0169959
0.0188506
0.0207546
0.0227025
0.0246888
0.0267074
0.0287524
0.0308176
0.0328969
0.0349844
0.0370739
0.0391591
0.0412336
0.0432912
0.0453252
0.0473288
0.0492955
0.0512188
0.0530925
0.0549109
0.0566682
0.058358
0.059974
0.0615107
0.0629634
0.0643273
0.0655982
0.0667721
0.0678447
0.0688119
0.0696702
0.0704171
0.0710502
0.0715673
0.0719669
0.0722481
0.0724103
0.0724533
0.0723775
0.0721838
0.0718733
0.0714469
0.0709065
0.0702547
0.0694949
0.0686307
0.0676656
0.0666031
0.065447
0.0642007
0.0628672
0.06145
0.0599528
0.0583784
0.0567288
0.0550169
0.0532535
0.0512824
0.0489706
0.020509
0.0179559
0.0158034
0.0139021
0.0120753
0.0103334
0.00869057
0.00714704
0.00570271
0.00435868
0.00311659
0.00197797
0.0009442
1.69256e-05
-0.000802964
-0.00151382
-0.00211483
-0.00260513
-0.00298453
-0.00325319
-0.00341105
-0.0034578
-0.00339336
-0.00321812
-0.00293257
-0.00253722
-0.00203292
-0.00142124
-0.00070434
0.000115343
0.0010353
0.00205282
0.00316497
0.00436875
0.00566115
0.00703895
0.00849857
0.0100358
0.011646
0.0133244
0.0150662
0.0168667
0.0187212
0.0206249
0.0225726
0.0245586
0.0265773
0.0286228
0.030689
0.0327698
0.034859
0.0369508
0.0390387
0.0411167
0.0431785
0.0452172
0.0472259
0.0491983
0.0511279
0.0530088
0.0548352
0.0566007
0.058299
0.0599237
0.0614694
0.062931
0.0643037
0.065583
0.0667648
0.0678447
0.0688187
0.0696833
0.0704357
0.0710731
0.071593
0.0719933
0.0722732
0.072432
0.0724694
0.0723856
0.072181
0.071856
0.0714114
0.0708483
0.0701693
0.0693775
0.068476
0.0674677
0.0663559
0.0651437
0.0638345
0.0624311
0.0609364
0.0593539
0.0576859
0.055934
0.0541117
0.0522307
0.0501236
0.0476483
0.0215611
0.0188446
0.0165572
0.0145405
0.012606
0.0107649
0.00903142
0.00740562
0.00588739
0.00447737
0.00317656
0.00198613
0.000907148
-5.96468e-05
-0.000913308
-0.00165313
-0.00227843
-0.00278915
-0.00318573
-0.00346842
-0.00363726
-0.0036924
-0.00363436
-0.00346377
-0.00318106
-0.00278684
-0.00228245
-0.00167
-0.000951787
-0.0001301
0.000792519
0.00181317
0.00292878
0.00413636
0.00543292
0.00681513
0.00827924
0.00982097
0.0114357
0.0131187
0.0148654
0.0166709
0.0185306
0.0204395
0.0223925
0.0243842
0.026409
0.0284611
0.0305344
0.0326226
0.0347198
0.03682
0.038917
0.0410048
0.0430769
0.0451263
0.0471462
0.0491303
0.0510724
0.0529664
0.0548061
0.0565855
0.0582977
0.0599365
0.0614963
0.0629719
0.064358
0.0656502
0.066844
0.0679352
0.0689196
0.0697938
0.0705546
0.0711988
0.0717233
0.0721262
0.0724062
0.0725627
0.0725953
0.0725035
0.0722875
0.0719471
0.0714829
0.0708958
0.070188
0.0693623
0.0684212
0.0673674
0.0662035
0.0649326
0.0635578
0.0620819
0.0605074
0.0588374
0.0570738
0.055218
0.0532845
0.0512856
0.049043
0.0464056
0.0225043
0.0196259
0.0172044
0.0150719
0.0130292
0.0110882
0.00926296
0.00755366
0.00595986
0.00448207
0.00312084
0.00187675
0.000750594
-0.000257441
-0.00114654
-0.00191673
-0.00256785
-0.00310042
-0.00351504
-0.00381211
-0.00399211
-0.00405582
-0.00400402
-0.00383729
-0.00355617
-0.00316179
-0.00265608
-0.0020413
-0.00131961
-0.000493333
0.000434749
0.00146152
0.00258389
0.00379894
0.00510356
0.0064942
0.00796697
0.00951763
0.0111416
0.0128344
0.0145912
0.0164071
0.0182773
0.0201969
0.0221611
0.0241644
0.0262014
0.0282662
0.0303526
0.0324544
0.0345657
0.0366807
0.0387931
0.0408969
0.0429854
0.0450516
0.0470888
0.0490908
0.0510514
0.0529641
0.0548229
0.0566214
0.0583529
0.0600112
0.0615903
0.0630848
0.0644892
0.0657986
0.0670087
0.0681153
0.0691141
0.0700014
0.0707735
0.071427
0.0719586
0.072366
0.0726481
0.0728039
0.0728325
0.0727331
0.0725053
0.0721491
0.0716645
0.0710525
0.0703149
0.0694539
0.0684716
0.0673701
0.0661519
0.06482
0.0633775
0.0618268
0.0601703
0.0584106
0.0565497
0.0545887
0.052543
0.0504258
0.0480477
0.0452489
0.0233301
0.0202909
0.0177359
0.0154876
0.0133361
0.0112941
0.00937636
0.00758245
0.00591182
0.0043648
0.00294164
0.00164248
0.000467562
-0.000582749
-0.00150869
-0.00231052
-0.0029887
-0.00354392
-0.00397687
-0.00428845
-0.00447979
-0.00455195
-0.00450567
-0.00434162
-0.00406088
-0.00366522
-0.00315678
-0.00253768
-0.00181007
-0.00097656
-4.02155e-05
0.000995789
0.00212841
0.00335462
0.00467109
0.00607407
0.0075597
0.00912386
0.0107621
0.0124697
0.0142417
0.0160732
0.0179593
0.0198954
0.0218765
0.0238975
0.0259528
0.0280363
0.0301419
0.0322635
0.0343953
0.0365313
0.0386655
0.0407914
0.0429025
0.0449918
0.0470527
0.0490788
0.0510637
0.053001
0.0548843
0.0567074
0.0584637
0.0601467
0.0617503
0.0632687
0.0646961
0.0660275
0.0672584
0.0683846
0.0694016
0.0703055
0.0710921
0.0717578
0.0722992
0.0727139
0.0730002
0.073157
0.0731828
0.0730764
0.0728373
0.0724651
0.07196
0.0713228
0.0705547
0.0696573
0.0686323
0.0674816
0.0662075
0.0648129
0.0633007
0.0616733
0.0599328
0.0580816
0.0561216
0.0540541
0.0518952
0.0496589
0.0471451
0.0441847
0.0240311
0.0208312
0.0181427
0.0157787
0.013518
0.0113741
0.00936309
0.00748368
0.0057352
0.0041178
0.00263145
0.00127613
5.15631e-05
-0.00104217
-0.00200603
-0.00284049
-0.00354637
-0.00412444
-0.00457585
-0.00490212
-0.00510466
-0.00518453
-0.00514261
-0.00498009
-0.0046987
-0.00430048
-0.00378744
-0.00316166
-0.00242561
-0.00158225
-0.000634739
0.000413799
0.00156021
0.00280119
0.00413318
0.00555246
0.00705528
0.00863763
0.0102949
0.0120223
0.0138146
0.0156668
0.0175744
0.0195326
0.0215367
0.0235813
0.0256607
0.027769
0.0299
0.0320478
0.0342063
0.0363698
0.038532
0.0406863
0.0428264
0.0449452
0.0470361
0.0490925
0.0511077
0.0530754
0.0549891
0.0568425
0.058629
0.060342
0.0619752
0.0635224
0.0649778
0.066336
0.0675925
0.0687427
0.069782
0.070706
0.0715106
0.0721919
0.0727462
0.0731709
0.073464
0.0736236
0.073648
0.0735358
0.0732861
0.0728986
0.0723735
0.071711
0.0709121
0.0699776
0.068909
0.0677079
0.0663767
0.0649182
0.0633349
0.061629
0.0598026
0.0578583
0.0557976
0.0536222
0.0513489
0.0489924
0.046342
0.0432194
0.0245999
0.0212389
0.0184166
0.0159367
0.0135664
0.0113201
0.00921486
0.00724923
0.00542206
0.00373341
0.00218306
0.000770664
-0.000504204
-0.00164248
-0.00264495
-0.00351255
-0.00424624
-0.00484723
-0.00531722
-0.00565797
-0.00587093
-0.00595734
-0.00591865
-0.00575666
-0.00547341
-0.00507086
-0.00455093
-0.00391602
-0.00316903
-0.00231309
-0.00135127
-0.000286791
0.000876871
0.00213611
0.00348736
0.00492707
0.0064516
0.00805681
0.00973791
0.0114898
0.0133073
0.0151857
0.0171202
0.0191063
0.0211391
0.0232131
0.0253227
0.0274618
0.0296246
0.0318047
0.0339965
0.0361937
0.0383901
0.0405793
0.0427548
0.0449096
0.0470369
0.0491297
0.0511815
0.0531855
0.0551354
0.057025
0.0588473
0.0605958
0.0622638
0.0638451
0.0653335
0.0667236
0.0680105
0.0691892
0.070255
0.0712032
0.0720295
0.0727299
0.0733005
0.0737382
0.0740406
0.0742053
0.0742302
0.0741137
0.0738549
0.0734533
0.0729089
0.0722215
0.0713914
0.0704195
0.0693067
0.0680547
0.0666657
0.0651422
0.0634865
0.0617007
0.0597869
0.0577477
0.0555849
0.0533
0.0509107
0.0484328
0.0456444
0.0423583
0.0250288
0.0215066
0.0185496
0.0159531
0.013473
0.0111238
0.00892349
0.00687089
0.00496443
0.0032039
0.00158898
0.000118837
-0.0012072
-0.00239051
-0.00343189
-0.0043327
-0.0050942
-0.00571812
-0.00620638
-0.00656078
-0.00678297
-0.00687479
-0.00683832
-0.00667566
-0.0063888
-0.00597966
-0.00545048
-0.00480406
-0.0040435
-0.00317191
-0.00219245
-0.00110865
7.56442e-05
0.00135674
0.00273125
0.00419578
0.00574659
0.00737922
0.00908868
0.0108699
0.0127178
0.0146276
0.0165947
0.0186143
0.0206815
0.0227907
0.0249363
0.0271125
0.0293131
0.031532
0.0337631
0.0360002
0.0382373
0.0404678
0.0426852
0.0448825
0.0470525
0.0491882
0.0512827
0.0533294
0.0553218
0.0572535
0.0591175
0.0609071
0.0626154
0.0642361
0.0657628
0.06719
0.0685122
0.0697242
0.070821
0.0717977
0.0726499
0.0733732
0.0739635
0.0744174
0.0747319
0.0749042
0.0749319
0.0748133
0.0745473
0.0741331
0.0735703
0.0728583
0.0719974
0.0709879
0.0698309
0.0685277
0.0670803
0.065491
0.0637618
0.0618947
0.0598921
0.0577567
0.0554901
0.053094
0.0505872
0.0479861
0.0450581
0.0416067
0.0253104
0.0216264
0.018534
0.0158202
0.0132294
0.0107768
0.00848094
0.00634072
0.00435442
0.00252152
0.000841359
-0.000686965
-0.00206474
-0.00329307
-0.00437341
-0.00530736
-0.00609657
-0.00674297
-0.00724857
-0.00761542
-0.00784576
-0.00794198
-0.00790649
-0.00774141
-0.00744872
-0.00703065
-0.00648987
-0.0058294
-0.00505231
-0.00416178
-0.00316133
-0.00205489
-0.000846441
0.000460465
0.00186259
0.00335644
0.00493797
0.00660248
0.00834492
0.0101604
0.0120439
0.0139906
0.0159957
0.0180543
0.0201614
0.0223116
0.0244993
0.0267186
0.0289633
0.031227
0.0335036
0.035787
0.0380711
0.0403494
0.0426152
0.0448613
0.0470805
0.0492656
0.0514094
0.0535053
0.0555466
0.0575267
0.0594384
0.0612749
0.0630294
0.0646952
0.0662658
0.0677354
0.0690981
0.0703485
0.071481
0.0724909
0.0733732
0.0741235
0.0747374
0.0752108
0.0755405
0.0757234
0.0757568
0.0756386
0.0753676
0.0749425
0.0743624
0.0736268
0.0727355
0.0716889
0.0704878
0.0691333
0.0676271
0.0659711
0.0641674
0.0622181
0.0601254
0.0578922
0.0555203
0.0530112
0.0503849
0.0476589
0.0445891
0.04097
0.0254372
0.0215908
0.0183624
0.01553
0.0128278
0.0102712
0.00787932
0.00565092
0.00358416
0.00167835
-6.74607e-05
-0.00165431
-0.00308378
-0.00435712
-0.00547634
-0.00644317
-0.00725954
-0.00792746
-0.00844922
-0.00882745
-0.00906492
-0.00916428
-0.00912801
-0.00895833
-0.00865751
-0.00822821
-0.00767334
-0.00699591
-0.00619903
-0.00528624
-0.00426153
-0.003129
-0.0018925
-0.000555448
0.000878789
0.00240638
0.00402299
0.00572389
0.00750417
0.00935901
0.0112835
0.0132724
0.0153209
0.0174239
0.0195766
0.0217737
0.0240094
0.0262779
0.0285727
0.0308874
0.0332157
0.0355518
0.0378893
0.0402218
0.0425424
0.0448438
0.0471187
0.0493597
0.0515596
0.0537115
0.0558084
0.0578434
0.0598092
0.0616988
0.0635055
0.0652224
0.0668428
0.0683605
0.0697692
0.0710631
0.0722367
0.0732846
0.0742019
0.0749835
0.0756248
0.0761215
0.07647
0.0766669
0.0767091
0.0765943
0.0763205
0.0758864
0.0752908
0.0745327
0.073612
0.0725291
0.0712843
0.0698785
0.0683129
0.0665897
0.0647109
0.0626783
0.0604943
0.0581619
0.0556828
0.0530589
0.050311
0.0474578
0.044244
0.0404544
0.0254019
0.0213921
0.0180269
0.0150751
0.0122605
0.00959911
0.00711054
0.0047934
0.00264564
0.000666483
-0.00114512
-0.00279067
-0.00427162
-0.00558993
-0.00674764
-0.00774673
-0.0085893
-0.00927763
-0.00981453
-0.0102031
-0.0104464
-0.0105471
-0.010508
-0.0103314
-0.0100202
-0.00957717
-0.00900534
-0.00830772
-0.00748778
-0.00654953
-0.00549717
-0.00433472
-0.00306587
-0.00169419
-0.00022344
0.0013422
0.00299834
0.0047404
0.00656364
0.00846316
0.0104338
0.0124702
0.0145674
0.0167205
0.0189246
0.0211745
0.0234643
0.0257879
0.0281388
0.0305105
0.032897
0.0352921
0.0376895
0.0400827
0.0424646
0.0448278
0.0471649
0.0494686
0.0517315
0.0539463
0.0561056
0.0582022
0.0602287
0.062178
0.0640433
0.0658176
0.067494
0.0690657
0.0705263
0.0718696
0.0730896
0.0741809
0.075138
0.0759556
0.0766287
0.0771528
0.0775241
0.0777386
0.0777932
0.0776847
0.0774109
0.0769701
0.0763608
0.075582
0.0746334
0.073515
0.072227
0.0707699
0.0691449
0.0673542
0.0653994
0.0632826
0.061006
0.0585727
0.0559848
0.053244
0.0503725
0.0473897
0.0440293
0.0400658