/*--------------------------------*- C++ -*----------------------------------*\
  =========                 |
  \\      /  F ield         | OpenFOAM: The Open Source CFD Toolbox
   \\    /   O peration     | Website:  https://openfoam.org
    \\  /    A nd           | Version:  11
     \\/     M anipulation  |
\*---------------------------------------------------------------------------*/
FoamFile
{
    format      ascii;
    class       surfaceScalarField;
    location    "5";
    object      phi;
}
// * * * * * * * * * * * * * * * * * * * * * * * * * * * * * * * * * * * * * //

dimensions      [0 3 -1 0 0 0 0];

internalField   nonuniform List<scalar> 
19980
(
6.75099e-07
-6.7554e-07
2.29497e-06
-1.61984e-06
4.08168e-06
-1.78656e-06
5.48583e-06
-1.40424e-06
6.19059e-06
-7.04784e-07
6.02624e-06
1.64159e-07
4.90821e-06
1.11811e-06
2.81061e-06
2.09761e-06
-2.59202e-07
3.06988e-06
-4.27158e-06
4.01236e-06
-9.18279e-06
4.9114e-06
-1.494e-05
5.75715e-06
-2.14842e-05
6.54434e-06
-2.8754e-05
7.26982e-06
-3.66855e-05
7.93166e-06
-4.52147e-05
8.52922e-06
-5.42763e-05
9.06161e-06
-6.38067e-05
9.53045e-06
-7.37415e-05
9.93473e-06
-8.40186e-05
1.02771e-05
-9.45762e-05
1.05576e-05
-0.000105355
1.07786e-05
-0.000116297
1.09419e-05
-0.000127347
1.10496e-05
-0.00013845
1.11033e-05
-0.000149554
1.11046e-05
-0.000160609
1.10552e-05
-0.000171566
1.09563e-05
-0.000182376
1.08105e-05
-0.000192996
1.06195e-05
-0.000203381
1.03852e-05
-0.000213491
1.011e-05
-0.000223287
9.79615e-06
-0.000232732
9.44553e-06
-0.000241792
9.05993e-06
-0.000250434
8.64154e-06
-0.000258626
8.19239e-06
-0.00026634
7.71391e-06
-0.000273548
7.2079e-06
-0.000280224
6.67667e-06
-0.000286347
6.12253e-06
-0.000291895
5.5476e-06
-0.000296849
4.95395e-06
-0.000301192
4.3437e-06
-0.000304911
3.71875e-06
-0.000307992
3.08067e-06
-0.000310423
2.4311e-06
-0.000312195
1.77203e-06
-0.000313301
1.10589e-06
-0.000313736
4.35067e-07
-0.000313497
-2.3862e-07
-0.000312584
-9.13146e-07
-0.000310998
-1.58609e-06
-0.000308742
-2.25551e-06
-0.000305823
-2.91946e-06
-0.000302248
-3.5754e-06
-0.000298026
-4.2212e-06
-0.000293171
-4.85493e-06
-0.000287698
-5.47386e-06
-0.000281622
-6.07511e-06
-0.000274966
-6.65662e-06
-0.00026775
-7.21605e-06
-0.00026
-7.75035e-06
-0.000251743
-8.25678e-06
-0.000243009
-8.73327e-06
-0.000233832
-9.17737e-06
-0.000224246
-9.58607e-06
-0.000214289
-9.9567e-06
-0.000204002
-1.02871e-05
-0.000193427
-1.05749e-05
-0.00018261
-1.08175e-05
-0.000171597
-1.1013e-05
-0.000160437
-1.11596e-05
-0.000149182
-1.12552e-05
-0.000137885
-1.12974e-05
-0.0001266
-1.12845e-05
-0.000115385
-1.12153e-05
-0.000104296
-1.10885e-05
-9.33944e-05
-1.09021e-05
-8.27402e-05
-1.06541e-05
-7.23965e-05
-1.03436e-05
-6.24268e-05
-9.96968e-06
-5.28949e-05
-9.53198e-06
-4.38646e-05
-9.0303e-06
-3.53996e-05
-8.46499e-06
-2.75627e-05
-7.83683e-06
-2.04156e-05
-7.14715e-06
-1.40175e-05
-6.39814e-06
-8.42419e-06
-5.59333e-06
-3.68635e-06
-4.73788e-06
1.5246e-07
-3.83885e-06
3.0585e-06
-2.90604e-06
5.01227e-06
-1.95379e-06
6.01621e-06
-1.00398e-06
6.10636e-06
-9.01756e-08
5.37087e-06
7.35471e-07
3.97924e-06
1.39166e-06
2.23181e-06
1.74745e-06
6.49351e-07
1.58243e-06
6.49331e-07
1.5486e-06
-2.2243e-06
4.25936e-06
-4.33057e-06
6.85744e-06
-4.38474e-06
8.38737e-06
-2.93416e-06
8.1921e-06
-5.09326e-07
5.85567e-06
2.50066e-06
1.14378e-06
5.82985e-06
-6.05449e-06
9.29594e-06
-1.57587e-05
1.27739e-05
-2.79263e-05
1.618e-05
-4.24715e-05
1.94564e-05
-5.9278e-05
2.25637e-05
-7.82088e-05
2.54751e-05
-9.91126e-05
2.81734e-05
-0.000121827
3.06465e-05
-0.000146187
3.28887e-05
-0.00017202
3.48948e-05
-0.000199155
3.66651e-05
-0.000227419
3.81997e-05
-0.000256644
3.95015e-05
-0.000286659
4.05733e-05
-0.000317301
4.14208e-05
-0.000348409
4.20494e-05
-0.000379824
4.24648e-05
-0.000411395
4.26741e-05
-0.000442973
4.26832e-05
-0.000474416
4.24976e-05
-0.000505584
4.21242e-05
-0.000536343
4.15704e-05
-0.000566567
4.08431e-05
-0.000596132
3.995e-05
-0.000624921
3.88991e-05
-0.000652823
3.76983e-05
-0.000679732
3.63548e-05
-0.000705548
3.48761e-05
-0.000730177
3.32699e-05
-0.000753528
3.15434e-05
-0.000775518
2.9704e-05
-0.000796069
2.7759e-05
-0.000815109
2.57166e-05
-0.000832572
2.35848e-05
-0.000848395
2.13714e-05
-0.000862526
1.90845e-05
-0.000874914
1.67319e-05
-0.000885516
1.43209e-05
-0.000894295
1.18589e-05
-0.000901217
9.3533e-06
-0.000906257
6.81211e-06
-0.000909395
4.24347e-06
-0.000910616
1.65584e-06
-0.000909912
-9.42547e-07
-0.000907281
-3.54381e-06
-0.000902728
-6.13944e-06
-0.000896262
-8.72065e-06
-0.000887903
-1.12791e-05
-0.000877672
-1.38064e-05
-0.0008656
-1.62934e-05
-0.000851724
-1.8731e-05
-0.000836088
-2.11102e-05
-0.000818741
-2.34215e-05
-0.000799742
-2.56552e-05
-0.000779157
-2.78016e-05
-0.000757056
-2.98511e-05
-0.000733519
-3.17938e-05
-0.000708633
-3.362e-05
-0.00068249
-3.53201e-05
-0.000655191
-3.68847e-05
-0.000626844
-3.83041e-05
-0.000597562
-3.95689e-05
-0.000567467
-4.067e-05
-0.000536686
-4.15989e-05
-0.000505351
-4.23477e-05
-0.000473602
-4.29083e-05
-0.000441584
-4.32731e-05
-0.000409447
-4.34346e-05
-0.000377345
-4.33863e-05
-0.000345438
-4.31223e-05
-0.00031389
-4.26369e-05
-0.000282867
-4.19247e-05
-0.00025254
-4.0981e-05
-0.000223082
-3.98022e-05
-0.000194665
-3.83858e-05
-0.000167466
-3.67312e-05
-0.000141657
-3.48392e-05
-0.00011741
-3.27124e-05
-9.48912e-05
-3.03556e-05
-7.42621e-05
-2.77762e-05
-5.56746e-05
-2.49857e-05
-3.92677e-05
-2.20003e-05
-2.51629e-05
-1.88427e-05
-1.34579e-05
-1.55439e-05
-4.21765e-06
-1.21463e-05
2.53771e-06
-8.7092e-06
6.85061e-06
-5.31687e-06
8.85038e-06
-2.08994e-06
8.78771e-06
7.98102e-07
7.08141e-06
3.09797e-06
4.37428e-06
4.4546e-06
1.5853e-06
4.3714e-06
2.23467e-06
1.62148e-06
-3.84568e-06
4.08457e-06
-6.79372e-06
5.86113e-06
-6.16112e-06
5.81614e-06
-2.88928e-06
3.13373e-06
2.17301e-06
-2.73547e-06
8.36973e-06
-1.21263e-05
1.52207e-05
-2.52128e-05
2.23826e-05
-4.20475e-05
2.96086e-05
-6.25923e-05
3.67249e-05
-8.6741e-05
4.36054e-05
-0.000114339
5.01612e-05
-0.000145193
5.63298e-05
-0.000179086
6.20667e-05
-0.000215783
6.7343e-05
-0.000255032
7.2138e-05
-0.000296578
7.64409e-05
-0.000340158
8.02449e-05
-0.000385509
8.35505e-05
-0.000432366
8.63588e-05
-0.00048047
8.86769e-05
-0.000529561
9.05121e-05
-0.000579387
9.18751e-05
-0.000629699
9.27773e-05
-0.000680256
9.32311e-05
-0.000730822
9.32495e-05
-0.00078117
9.28459e-05
-0.00083108
9.20343e-05
-0.00088034
9.08298e-05
-0.000928744
8.92477e-05
-0.000976098
8.73039e-05
-0.00102221
8.50151e-05
-0.00106691
8.23973e-05
-0.00111003
7.94669e-05
-0.00115139
7.62401e-05
-0.00119085
7.27334e-05
-0.00122827
6.89628e-05
-0.00126351
6.49448e-05
-0.00129645
6.06958e-05
-0.00132697
5.62328e-05
-0.00135495
5.15731e-05
-0.00138032
4.67337e-05
-0.00140296
4.17316e-05
-0.00142282
3.65839e-05
-0.0014398
3.13073e-05
-0.00145386
2.59186e-05
-0.00146494
2.04347e-05
-0.001473
1.48731e-05
-0.00147801
9.25182e-06
-0.00147995
3.58875e-06
-0.00147879
-2.09808e-06
-0.00147454
-7.79025e-06
-0.00146721
-1.34692e-05
-0.00145682
-1.91164e-05
-0.00144338
-2.47125e-05
-0.00142695
-3.02383e-05
-0.00140757
-3.56745e-05
-0.0013853
-4.10013e-05
-0.00136021
-4.6198e-05
-0.00133239
-5.12442e-05
-0.00130193
-5.61193e-05
-0.00126893
-6.08026e-05
-0.0012335
-6.52728e-05
-0.00119579
-6.95087e-05
-0.00115592
-7.34899e-05
-0.00111404
-7.71956e-05
-0.00107032
-8.06049e-05
-0.00102493
-8.36974e-05
-0.000978045
-8.64535e-05
-0.000929861
-8.88537e-05
-0.000880581
-9.08793e-05
-0.000830416
-9.25125e-05
-0.000779588
-9.37363e-05
-0.000728327
-9.45342e-05
-0.000676871
-9.48908e-05
-0.000625465
-9.47918e-05
-0.000574363
-9.42246e-05
-0.000523822
-9.31776e-05
-0.000474106
-9.16405e-05
-0.000425483
-8.96047e-05
-0.000378221
-8.7064e-05
-0.000332591
-8.40153e-05
-0.000288864
-8.04584e-05
-0.000247306
-7.63969e-05
-0.00020818
-7.18389e-05
-0.000171738
-6.67974e-05
-0.000138223
-6.1292e-05
-0.000107857
-5.5351e-05
-8.08442e-05
-4.90133e-05
-5.73552e-05
-4.23317e-05
-3.75221e-05
-3.53772e-05
-2.14235e-05
-2.82449e-05
-9.06847e-06
-2.10641e-05
-3.74357e-07
-1.4011e-05
4.86226e-06
-7.32663e-06
7.00181e-06
-1.34144e-06
6.60659e-06
3.49325e-06
4.48849e-06
6.57268e-06
1.7601e-06
7.09981e-06
3.99477e-06
1.2103e-06
-5.05597e-06
2.5612e-06
-8.14464e-06
2.46481e-06
-6.06495e-06
-2.74899e-07
-1.49533e-07
-6.53301e-06
8.4313e-06
-1.69147e-05
1.87513e-05
-3.18057e-05
3.01118e-05
-5.14174e-05
4.19943e-05
-7.5823e-05
5.40142e-05
-0.000104986
6.58879e-05
-0.000138788
7.74073e-05
-0.000177045
8.84178e-05
-0.000219523
9.88083e-05
-0.000265954
0.000108498
-0.000316041
0.00011743
-0.000369467
0.000125564
-0.000425903
0.000132877
-0.00048501
0.000139353
-0.000546448
0.000144988
-0.00060987
0.000149781
-0.000674934
0.000153741
-0.000741301
0.000156879
-0.000808634
0.000159208
-0.000876605
0.000160748
-0.000944891
0.000161518
-0.00101318
0.000161538
-0.00108117
0.000160832
-0.00114855
0.000159423
-0.00121506
0.000157337
-0.00128041
0.000154598
-0.00134434
0.000151235
-0.0014066
0.000147275
-0.00146695
0.000142745
-0.00152516
0.000137672
-0.001581
0.000132085
-0.00163428
0.000126013
-0.0016848
0.000119482
-0.00173238
0.000112523
-0.00177684
0.000105162
-0.00181804
9.74307e-05
-0.00185583
8.93566e-05
-0.00189006
8.09697e-05
-0.00192063
7.22994e-05
-0.00194742
6.33754e-05
-0.00197034
5.42271e-05
-0.00198931
4.48839e-05
-0.00200425
3.53761e-05
-0.00201511
2.57338e-05
-0.00202184
1.59881e-05
-0.00202443
6.17039e-06
-0.00202284
-3.68781e-06
-0.00201707
-1.35546e-05
-0.00200714
-2.33975e-05
-0.00199308
-3.31837e-05
-0.00197491
-4.28802e-05
-0.00195269
-5.24532e-05
-0.0019265
-6.18687e-05
-0.00189641
-7.1092e-05
-0.00186252
-8.00884e-05
-0.00182494
-8.88223e-05
-0.0017838
-9.7258e-05
-0.00173924
-0.00010536
-0.00169143
-0.000113091
-0.00164052
-0.000120417
-0.00158671
-0.000127301
-0.00153019
-0.000133707
-0.0014712
-0.000139602
-0.00140995
-0.000144949
-0.00134669
-0.000149714
-0.00128167
-0.000153866
-0.00121518
-0.000157372
-0.00114749
-0.000160201
-0.00107891
-0.000162324
-0.00100973
-0.000163714
-0.000940271
-0.000164345
-0.000870871
-0.000164192
-0.000801861
-0.000163235
-0.000733584
-0.000161455
-0.000666389
-0.000158835
-0.000600629
-0.000155364
-0.00053666
-0.000151033
-0.000474837
-0.000145839
-0.000415512
-0.000139783
-0.000359033
-0.000132876
-0.000305739
-0.000125133
-0.000255954
-0.000116582
-0.000209987
-0.000107259
-0.00016812
-9.72183e-05
-0.000130603
-8.653e-05
-9.76462e-05
-7.52886e-05
-6.94052e-05
-6.36181e-05
-4.59675e-05
-5.16826e-05
-2.73336e-05
-3.96981e-05
-1.33937e-05
-2.7951e-05
-3.90026e-06
-1.68201e-05
1.5659e-06
-6.8075e-06
3.63427e-06
1.42488e-06
3.18812e-06
7.01879e-06
1.42085e-06
8.86707e-06
5.41557e-06
5.39319e-07
-5.59536e-06
1.9296e-07
-7.79808e-06
-2.52629e-06
-3.34579e-06
-8.77619e-06
6.10048e-06
-1.942e-05
1.90751e-05
-3.50656e-05
3.43969e-05
-5.6109e-05
5.11551e-05
-8.2771e-05
6.86564e-05
-0.000115128
8.63711e-05
-0.000153141
0.000103901
-0.000196675
0.000120941
-0.000245523
0.000137265
-0.000299417
0.000152703
-0.000358046
0.000167127
-0.000421062
0.000180446
-0.000488095
0.000192597
-0.000558751
0.000203534
-0.000632631
0.000213233
-0.000709322
0.000221678
-0.000788409
0.000228869
-0.000869479
0.000234811
-0.000952118
0.000239518
-0.00103592
0.000243009
-0.00112048
0.000245308
-0.0012054
0.000246444
-0.00129031
0.000246445
-0.00137483
0.000245347
-0.00145859
0.000243182
-0.00154124
0.000239989
-0.00162245
0.000235806
-0.00170188
0.000230673
-0.00177924
0.000224631
-0.00185421
0.00021772
-0.00192653
0.000209982
-0.0019959
0.000201461
-0.00206209
0.000192198
-0.00212484
0.000182237
-0.00218394
0.000171621
-0.00223917
0.000160393
-0.00229034
0.000148598
-0.00233726
0.00013628
-0.00237978
0.000123484
-0.00241773
0.000110255
-0.00245099
9.66375e-05
-0.00247944
8.26772e-05
-0.00250298
6.84197e-05
-0.00252152
5.3911e-05
-0.00253498
3.9198e-05
-0.00254332
2.43278e-05
-0.0025465
9.34822e-06
-0.00254449
-5.69215e-06
-0.0025373
-2.07443e-05
-0.00252494
-3.57586e-05
-0.00250744
-5.06851e-05
-0.00248485
-6.54728e-05
-0.00245723
-8.00701e-05
-0.00242467
-9.44251e-05
-0.00238728
-0.000108485
-0.00234517
-0.000122196
-0.00229849
-0.000135506
-0.00224739
-0.000148359
-0.00219205
-0.000160702
-0.00213266
-0.000172479
-0.00206944
-0.000183637
-0.00200262
-0.000194122
-0.00193245
-0.00020388
-0.00185919
-0.000212858
-0.00178314
-0.000221003
-0.00170458
-0.000228265
-0.00162386
-0.000234595
-0.00154128
-0.000239943
-0.00145722
-0.000244266
-0.00137203
-0.000247517
-0.00128608
-0.000249658
-0.00119978
-0.000250648
-0.00111352
-0.000250454
-0.00102771
-0.000249044
-0.000942771
-0.000246392
-0.000859131
-0.000242475
-0.000777218
-0.000237277
-0.000697462
-0.000230789
-0.000620294
-0.000223007
-0.000546137
-0.00021394
-0.000475409
-0.000203604
-0.000408514
-0.000192028
-0.000345839
-0.000179257
-0.000287745
-0.000165353
-0.000234564
-0.000150399
-0.000186586
-0.000134507
-0.000144053
-0.000117821
-0.000107141
-0.00010053
-7.59483e-05
-8.28757e-05
-5.0474e-05
-6.51725e-05
-3.05992e-05
-4.78258e-05
-1.60603e-05
-3.13589e-05
-6.42085e-06
-1.6447e-05
-1.03823e-06
-3.95782e-06
9.72984e-07
5.0076e-06
7.90079e-07
9.04993e-06
6.20562e-06
-2.74823e-07
-5.32062e-06
-2.69126e-06
-5.38154e-06
-8.549e-06
2.51177e-06
-1.88953e-05
1.64466e-05
-3.45247e-05
3.47046e-05
-5.60053e-05
5.58773e-05
-8.37101e-05
7.88601e-05
-0.000117844
0.00010279
-0.000158473
0.000127
-0.000205541
0.000150969
-0.000258895
0.000174296
-0.000318303
0.000196673
-0.000383466
0.000217865
-0.000454035
0.000237696
-0.00052962
0.000256031
-0.000609801
0.000272777
-0.000694134
0.000287867
-0.00078216
0.000301259
-0.000873408
0.000312927
-0.000967404
0.000322864
-0.00106367
0.000331075
-0.00116172
0.000337574
-0.0012611
0.000342384
-0.00136133
0.000345536
-0.00146195
0.000347065
-0.00156252
0.000347012
-0.00166259
0.000345421
-0.00176175
0.00034234
-0.00185958
0.00033782
-0.00195568
0.000331912
-0.00204968
0.000324672
-0.00214121
0.000316155
-0.00222991
0.000306419
-0.00231545
0.000295522
-0.00239751
0.000283523
-0.00247579
0.000270481
-0.00255001
0.000256457
-0.0026199
0.000241512
-0.00268522
0.000225706
-0.00274572
0.000209102
-0.0028012
0.000191761
-0.00285147
0.000173748
-0.00289633
0.000155124
-0.00293565
0.000135953
-0.00296927
0.0001163
-0.00299708
9.62291e-05
-0.00301898
7.58051e-05
-0.00303487
5.50942e-05
-0.00304471
3.41631e-05
-0.00304844
1.30793e-05
-0.00304604
-8.08881e-06
-0.00303751
-2.92721e-05
-0.00302287
-5.04004e-05
-0.00300215
-7.14033e-05
-0.00297542
-9.22089e-05
-0.00294274
-0.000112745
-0.00290423
-0.000132937
-0.00286
-0.000152712
-0.0028102
-0.000171996
-0.002755
-0.000190712
-0.00269457
-0.000208785
-0.00262914
-0.000226138
-0.00255892
-0.000242697
-0.00248417
-0.000258385
-0.00240517
-0.000273126
-0.0023222
-0.000286846
-0.00223559
-0.000299472
-0.00214566
-0.00031093
-0.00205277
-0.00032115
-0.00195731
-0.000330062
-0.00185965
-0.000337602
-0.00176021
-0.000343705
-0.00165942
-0.000348311
-0.00155771
-0.000351363
-0.00145555
-0.00035281
-0.0013534
-0.000352604
-0.00125174
-0.000350703
-0.00115106
-0.000347072
-0.00105185
-0.000341684
-0.000954611
-0.000334517
-0.000859839
-0.000325562
-0.000768027
-0.000314819
-0.000679666
-0.000302301
-0.000595232
-0.000288038
-0.000515187
-0.000272073
-0.00043997
-0.000254474
-0.000369991
-0.000235332
-0.000305624
-0.000214767
-0.000247195
-0.000192936
-0.000194973
-0.000170043
-0.000149157
-0.000146346
-0.000109861
-0.000122172
-7.70956e-05
-9.79384e-05
-5.07488e-05
-7.41727e-05
-3.05664e-05
-5.15412e-05
-1.61276e-05
-3.08859e-05
-6.81887e-06
-1.32666e-05
-1.80629e-06
-4.93424e-09
-1.8633e-09
7.24546e-06
6.20379e-06
-1.15859e-06
-4.162e-06
-5.87039e-06
-6.69774e-07
-1.5202e-05
1.18436e-05
-3.0045e-05
3.12895e-05
-5.1086e-05
5.57456e-05
-7.88203e-05
8.36118e-05
-0.000113571
0.000113611
-0.000155507
0.000144726
-0.000204663
0.000176156
-0.000260959
0.000207265
-0.000324216
0.000237553
-0.000394173
0.00026663
-0.000470501
0.000294193
-0.000552814
0.000320009
-0.000640684
0.000343901
-0.000733646
0.00036574
-0.000831212
0.000385433
-0.000932871
0.000402917
-0.0010381
0.000418157
-0.00114637
0.000431135
-0.00125715
0.000441851
-0.0013699
0.000450322
-0.00148408
0.000456573
-0.00159919
0.00046064
-0.00171469
0.000462568
-0.00183009
0.000462408
-0.00194488
0.000460216
-0.00205859
0.000456052
-0.00217076
0.000449983
-0.00228092
0.000442076
-0.00238865
0.000432402
-0.00249353
0.000421034
-0.00259516
0.000408047
-0.00269315
0.000393519
-0.00278716
0.000377526
-0.00287682
0.000360147
-0.00296183
0.000341462
-0.00304187
0.000321552
-0.00311666
0.000300497
-0.00318593
0.00027838
-0.00324946
0.000255283
-0.003307
0.000231291
-0.00335836
0.000206486
-0.00340336
0.000180954
-0.00344184
0.00015478
-0.00347366
0.000128051
-0.00349871
0.000100852
-0.00351689
7.32733e-05
-0.00352813
4.54023e-05
-0.00353238
1.73296e-05
-0.00352962
-1.08537e-05
-0.00351983
-3.90555e-05
-0.00350305
-6.71825e-05
-0.00347931
-9.51404e-05
-0.00344869
-0.000122834
-0.00341127
-0.000150166
-0.00336717
-0.000177039
-0.00331652
-0.000203356
-0.0032595
-0.000229016
-0.00319629
-0.000253919
-0.00312711
-0.000277967
-0.00305219
-0.000301057
-0.0029718
-0.000323089
-0.00288622
-0.000343964
-0.00279577
-0.000363581
-0.00270077
-0.000381842
-0.00260159
-0.000398651
-0.00249861
-0.00041391
-0.00239224
-0.000427528
-0.00228288
-0.000439415
-0.002171
-0.000449483
-0.00205706
-0.000457649
-0.00194153
-0.000463835
-0.00182493
-0.000467967
-0.00170776
-0.000469978
-0.00159056
-0.000469808
-0.00147386
-0.000467403
-0.00135821
-0.00046272
-0.00124417
-0.000455724
-0.00113229
-0.000446392
-0.00102314
-0.000434714
-0.000917265
-0.000420695
-0.000815209
-0.000404357
-0.000717505
-0.000385741
-0.000624666
-0.000364913
-0.000537178
-0.000341963
-0.000455493
-0.000317016
-0.000380025
-0.000290235
-0.000311133
-0.000261828
-0.000249118
-0.000232059
-0.000194202
-0.000201261
-0.000146524
-0.00016985
-0.000106116
-0.000138347
-7.28898e-05
-0.000107398
-4.66234e-05
-7.78077e-05
-2.69377e-05
-5.05716e-05
-1.32812e-05
-2.6923e-05
-4.91109e-06
-8.37502e-06
-8.76233e-07
3.2106e-06
5.32757e-06
-2.07204e-06
-2.08998e-06
-9.19816e-06
6.45638e-06
-2.22058e-05
2.48514e-05
-4.18033e-05
5.08868e-05
-6.85433e-05
8.24855e-05
-0.000102825
0.000117894
-0.000144899
0.000155685
-0.000194881
0.000194707
-0.000252761
0.000234036
-0.000318422
0.000272926
-0.000391652
0.000310783
-0.000472156
0.000347135
-0.000559572
0.000381609
-0.000653479
0.000413916
-0.000753411
0.000443833
-0.000858863
0.000471192
-0.000969302
0.000495872
-0.00108417
0.000517789
-0.00120291
0.000536891
-0.00132493
0.000553152
-0.00144964
0.000566566
-0.00157647
0.000577149
-0.00170482
0.000584929
-0.00183413
0.000589947
-0.00196382
0.000592257
-0.00209333
0.00059192
-0.00222212
0.000589004
-0.00234965
0.000583585
-0.00247541
0.000575744
-0.0025989
0.000565566
-0.00271964
0.000553138
-0.00283716
0.000538554
-0.00295102
0.000521907
-0.00306079
0.000503294
-0.00316608
0.000482814
-0.0032665
0.000460566
-0.00336169
0.000436651
-0.00345131
0.000411172
-0.00353505
0.000384233
-0.0036126
0.000355937
-0.00368371
0.000326391
-0.00374812
0.0002957
-0.00380561
0.000263973
-0.00385597
0.000231317
-0.00389903
0.000197841
-0.00393464
0.000163657
-0.00396266
0.000128874
-0.00398299
9.36069e-05
-0.00399556
5.79682e-05
-0.0040003
2.20734e-05
-0.00399719
-1.39609e-05
-0.00398623
-5.00169e-05
-0.00396744
-8.59755e-05
-0.00394086
-0.000121716
-0.00390658
-0.000157116
-0.00386469
-0.000192053
-0.00381533
-0.000226402
-0.00375865
-0.000260038
-0.00369483
-0.000292834
-0.00362408
-0.000324664
-0.00354665
-0.000355399
-0.0034628
-0.000384911
-0.00337281
-0.000413074
-0.00327702
-0.000439759
-0.00317576
-0.000464841
-0.00306941
-0.000488195
-0.00295836
-0.000509698
-0.00284304
-0.000529229
-0.0027239
-0.000546671
-0.0026014
-0.000561909
-0.00247605
-0.000574836
-0.00234835
-0.000585346
-0.00221885
-0.00059334
-0.00208809
-0.000598728
-0.00195664
-0.000601427
-0.00182509
-0.00060136
-0.00169403
-0.000598463
-0.00156406
-0.000592684
-0.0014358
-0.000583982
-0.00130987
-0.00057233
-0.00118686
-0.000557722
-0.00106739
-0.000540166
-0.000952049
-0.000519695
-0.000841424
-0.000496367
-0.000736069
-0.000470267
-0.000636516
-0.000441516
-0.000543259
-0.000410274
-0.000456746
-0.000376748
-0.000377374
-0.0003412
-0.000305474
-0.000303959
-0.000241302
-0.000265433
-0.000185025
-0.000226127
-0.000136709
-0.000186663
-9.63075e-05
-0.0001478
-6.36449e-05
-0.00011047
-3.84068e-05
-7.58096e-05
-2.01278e-05
-4.52021e-05
-8.18277e-06
-2.03201e-05
-1.78463e-06
-3.18749e-06
3.54291e-06
-2.9898e-06
8.9982e-07
-1.25828e-05
1.60493e-05
-2.93718e-05
4.16403e-05
-5.38727e-05
7.53878e-05
-8.6492e-05
0.000115105
-0.000127513
0.000158915
-0.000177101
0.000205272
-0.000235299
0.000252906
-0.000302045
0.000300781
-0.000377172
0.000348053
-0.000460428
0.000394039
-0.000551479
0.000438186
-0.000649925
0.000480055
-0.000755309
0.0005193
-0.000867126
0.00055565
-0.000984833
0.000588899
-0.00110786
0.000618894
-0.0012356
0.000645531
-0.00136744
0.000668738
-0.00150277
0.000688479
-0.00164095
0.000704743
-0.00178134
0.000717542
-0.00192332
0.000726907
-0.00206626
0.000732885
-0.00220954
0.000735538
-0.00235256
0.000734937
-0.00249472
0.000731164
-0.00263544
0.000724309
-0.00277417
0.00071447
-0.00291035
0.000701749
-0.00304346
0.000686253
-0.00317301
0.000668095
-0.00329849
0.00064739
-0.00341945
0.000624257
-0.00353545
0.000598815
-0.00364607
0.000571187
-0.00375092
0.000541499
-0.00384963
0.000509876
-0.00394184
0.000476446
-0.00402724
0.000441339
-0.00410554
0.000404684
-0.00417645
0.000366613
-0.00423974
0.00032726
-0.00429518
0.000286757
-0.00434258
0.000245241
-0.00438177
0.000202848
-0.00441261
0.000159717
-0.00443499
0.000115986
-0.00444882
7.1797e-05
-0.00445404
2.72927e-05
-0.00445062
-1.73824e-05
-0.00443855
-6.20825e-05
-0.00441787
-0.00010666
-0.00438862
-0.000150965
-0.00435089
-0.000194848
-0.00430479
-0.000238154
-0.00425046
-0.000280732
-0.00418807
-0.000322425
-0.00411783
-0.000363077
-0.00403996
-0.000402532
-0.00395472
-0.000440632
-0.00386242
-0.00047722
-0.00376335
-0.000512138
-0.00365788
-0.00054523
-0.00354638
-0.00057634
-0.00342926
-0.000605316
-0.00330695
-0.000632006
-0.00317992
-0.000656263
-0.00304865
-0.000677942
-0.00291365
-0.000696904
-0.00277547
-0.000713016
-0.00263467
-0.000726151
-0.00249182
-0.000736188
-0.00234753
-0.000743018
-0.00220242
-0.00074654
-0.00205711
-0.000746663
-0.00191227
-0.00074331
-0.00176853
-0.00073642
-0.00162656
-0.000725946
-0.00148703
-0.00071186
-0.0013506
-0.000694156
-0.00121792
-0.00067285
-0.00108962
-0.000647987
-0.000966352
-0.000619639
-0.0008487
-0.000587919
-0.000737241
-0.000552975
-0.000632508
-0.000515007
-0.00053499
-0.000474266
-0.000445118
-0.000431071
-0.000363261
-0.000385816
-0.00028971
-0.000338984
-0.000224673
-0.000291165
-0.00016826
-0.000243076
-0.000120475
-0.000195585
-8.12071e-05
-0.000149738
-5.02216e-05
-0.000106795
-2.71558e-05
-6.8268e-05
-1.15185e-05
-3.59574e-05
-2.69822e-06
-1.20077e-05
8.44675e-07
-3.8983e-06
4.79807e-06
-1.59653e-05
2.81163e-05
-3.65739e-05
6.22489e-05
-6.60496e-05
0.000104864
-0.000104643
0.000153698
-0.000152518
0.00020679
-0.000209736
0.00026249
-0.000276263
0.000319433
-0.000351969
0.000376487
-0.000436631
0.000432716
-0.000529948
0.000487355
-0.000631542
0.000539779
-0.000740971
0.000589484
-0.000857738
0.000636068
-0.000981301
0.000679212
-0.00111107
0.000718673
-0.00124645
0.000754267
-0.00138678
0.000785865
-0.00153142
0.000813377
-0.0016797
0.000836757
-0.00183094
0.000855986
-0.00198447
0.000871073
-0.00213962
0.000882052
-0.00229571
0.000888975
-0.00245208
0.000891911
-0.00260808
0.000890943
-0.00276309
0.000886166
-0.00291646
0.000877686
-0.00306761
0.000865617
-0.00321594
0.000850081
-0.00336089
0.000831205
-0.00350192
0.000809123
-0.0036385
0.000783972
-0.00377014
0.000755893
-0.00389636
0.000725031
-0.0040167
0.000691533
-0.00413075
0.000655549
-0.00423811
0.000617231
-0.00433839
0.000576732
-0.00443126
0.000534208
-0.00451639
0.000489817
-0.0045935
0.000443716
-0.0046623
0.000396067
-0.00472258
0.000347032
-0.00477411
0.000296773
-0.00481672
0.000245456
-0.00485025
0.000193249
-0.00487458
0.000140319
-0.00488962
8.68374e-05
-0.00489531
3.29768e-05
-0.0048916
-2.10886e-05
-0.0048785
-7.51822e-05
-0.00485604
-0.000129126
-0.00482426
-0.000182739
-0.00478327
-0.000235839
-0.00473318
-0.000288242
-0.00467415
-0.000339763
-0.00460636
-0.000390216
-0.00453003
-0.00043941
-0.0044454
-0.000487159
-0.00435276
-0.000533271
-0.00425242
-0.000577558
-0.00414473
-0.000619832
-0.00403006
-0.000659902
-0.00390881
-0.000697584
-0.00378144
-0.000732693
-0.0036484
-0.000765049
-0.00351018
-0.000794473
-0.00336733
-0.000820795
-0.00322039
-0.000843848
-0.00306993
-0.000863471
-0.00291657
-0.000879515
-0.00276092
-0.000891836
-0.00260363
-0.000900304
-0.00244537
-0.0009048
-0.00228682
-0.000905218
-0.00212866
-0.000901469
-0.0019716
-0.00089348
-0.00181634
-0.0008812
-0.00166361
-0.000864599
-0.00151409
-0.000843673
-0.0013685
-0.000818444
-0.00122751
-0.000788971
-0.00109181
-0.000755345
-0.000962023
-0.000717701
-0.000838777
-0.000676222
-0.00072264
-0.000631143
-0.000614142
-0.000582765
-0.000513753
-0.00053146
-0.000421882
-0.000477687
-0.000338864
-0.000422001
-0.000264954
-0.000365075
-0.000200314
-0.000307715
-0.000145012
-0.000250887
-9.90099e-05
-0.00019574
-6.21658e-05
-0.000143639
-3.42302e-05
-9.62036e-05
-1.48532e-05
-5.53342e-05
-3.60049e-06
-2.32605e-05
-2.75577e-06
-4.78952e-06
9.58771e-06
-1.93102e-05
4.26368e-05
-4.37317e-05
8.66705e-05
-7.81962e-05
0.000139328
-0.000122801
0.000198304
-0.00017758
0.000261568
-0.000242491
0.0003274
-0.000317409
0.000394352
-0.000402129
0.000461207
-0.000496367
0.000526954
-0.000599763
0.000590751
-0.000711891
0.000651907
-0.000832263
0.000709857
-0.000960339
0.000764144
-0.00109554
0.000814408
-0.00123723
0.000860365
-0.00138476
0.000901803
-0.00153746
0.000938565
-0.00169464
0.00097055
-0.00185557
0.000997692
-0.00201956
0.00101997
-0.00218587
0.00103739
-0.00235381
0.00104999
-0.00252265
0.00105781
-0.00269169
0.00106095
-0.00286025
0.0010595
-0.00302764
0.00105356
-0.00319321
0.00104326
-0.00335632
0.00102872
-0.00351634
0.0010101
-0.00367266
0.000987531
-0.00382472
0.000961178
-0.00397194
0.000931199
-0.00411381
0.000897761
-0.00424982
0.000861034
-0.00437947
0.00082119
-0.00450233
0.000778406
-0.00461796
0.000732861
-0.00472597
0.000684738
-0.00482598
0.000634218
-0.00491765
0.000581489
-0.00500067
0.000526737
-0.00507475
0.000470154
-0.00513965
0.00041193
-0.00519514
0.000352258
-0.00524102
0.000291336
-0.00527713
0.00022936
-0.00530334
0.000166531
-0.00531955
0.00010305
-0.0053257
3.91214e-05
-0.00532174
-2.50477e-05
-0.00530767
-8.92486e-05
-0.00528353
-0.00015327
-0.00524937
-0.000216899
-0.00520529
-0.000279919
-0.00515142
-0.000342113
-0.00508792
-0.000403262
-0.00501499
-0.000463144
-0.00493286
-0.000521538
-0.0048418
-0.00057822
-0.00474211
-0.000632966
-0.00463411
-0.000685554
-0.00451818
-0.00073576
-0.00439472
-0.000783363
-0.00426416
-0.000828142
-0.00412698
-0.000869882
-0.00398365
-0.00090837
-0.00383473
-0.000943397
-0.00368076
-0.000974762
-0.00352234
-0.00100227
-0.00336008
-0.00102573
-0.00319462
-0.00104497
-0.00302663
-0.00105983
-0.00285679
-0.00107014
-0.00268582
-0.00107578
-0.00251442
-0.00107662
-0.00234334
-0.00107255
-0.00217332
-0.0010635
-0.00200511
-0.00104941
-0.00183947
-0.00103024
-0.00167715
-0.001006
-0.00151888
-0.00097671
-0.00136541
-0.000942447
-0.00121743
-0.00090332
-0.00107564
-0.000859489
-0.000940697
-0.000811168
-0.000813208
-0.000758632
-0.000693746
-0.000702227
-0.000582825
-0.000642381
-0.0004809
-0.000579612
-0.000388354
-0.000514547
-0.000305496
-0.000447934
-0.000232549
-0.000380662
-0.000169651
-0.000313785
-0.000116848
-0.000248543
-7.40955e-05
-0.000186391
-4.12645e-05
-0.000129035
-1.81478e-05
-7.84509e-05
-4.48267e-06
-3.69256e-05
-7.23841e-06
-5.65929e-06
1.52471e-05
-2.25963e-05
5.95738e-05
-5.07949e-05
0.000114869
-9.02253e-05
0.000178758
-0.000140834
0.000248912
-0.000202525
0.00032326
-0.000275147
0.000400022
-0.00035848
0.000477685
-0.000452239
0.000554966
-0.000556069
0.000630784
-0.000669549
0.000704231
-0.000792197
0.000774555
-0.000923476
0.000841136
-0.0010628
0.000903468
-0.00120954
0.000961148
-0.00136303
0.00101386
-0.00152258
0.00106135
-0.00168747
0.00110346
-0.00185697
0.00114005
-0.00203032
0.00117105
-0.00220679
0.00119643
-0.0023856
0.0012162
-0.00256601
0.0012304
-0.00274727
0.00123907
-0.00292864
0.00124232
-0.00310938
0.00124025
-0.0032888
0.00123298
-0.00346618
0.00122064
-0.00364085
0.0012034
-0.00381216
0.00118141
-0.00397947
0.00115484
-0.00414216
0.00112387
-0.00429965
0.00108869
-0.00445137
0.00104948
-0.00459679
0.00100646
-0.0047354
0.000959804
-0.00486673
0.000909732
-0.00499032
0.000856447
-0.00510574
0.000800162
-0.00521261
0.000741088
-0.00531056
0.000679443
-0.00539927
0.000615444
-0.00547843
0.000549313
-0.00554777
0.000481272
-0.00560706
0.000411548
-0.00565609
0.000340367
-0.00569469
0.000267961
-0.00572272
0.000194562
-0.00574008
0.000120405
-0.00574669
4.57289e-05
-0.00574251
-2.92262e-05
-0.00572754
-0.000104217
-0.00570181
-0.000178998
-0.00566539
-0.00025332
-0.00561838
-0.000326933
-0.00556091
-0.000399583
-0.00549315
-0.000471015
-0.00541533
-0.000540973
-0.00532767
-0.000609198
-0.00523045
-0.00067543
-0.00512401
-0.000739411
-0.00500868
-0.00080088
-0.00488486
-0.00085958
-0.00475297
-0.000915252
-0.00461347
-0.000967642
-0.00446686
-0.0010165
-0.00431365
-0.00106158
-0.00415441
-0.00110264
-0.00398972
-0.00113944
-0.00382022
-0.00117177
-0.00364655
-0.0011994
-0.00346939
-0.00122214
-0.00328943
-0.00123978
-0.00310741
-0.00125216
-0.00292407
-0.00125912
-0.00274016
-0.00126052
-0.00255648
-0.00125624
-0.00237379
-0.00124618
-0.0021929
-0.0012303
-0.0020146
-0.00120854
-0.00183968
-0.00118092
-0.00166893
-0.00114746
-0.00150311
-0.00110826
-0.00134299
-0.00106344
-0.00118929
-0.00101319
-0.0010427
-0.000957753
-0.000903894
-0.00089744
-0.000773476
-0.000832645
-0.000652012
-0.000763845
-0.000540005
-0.00069162
-0.000437891
-0.00061666
-0.00034604
-0.000539785
-0.000264743
-0.00046196
-0.000194212
-0.000384315
-0.000134585
-0.00030817