/*--------------------------------*- C++ -*----------------------------------*\
  =========                 |
  \\      /  F ield         | OpenFOAM: The Open Source CFD Toolbox
   \\    /   O peration     | Website:  https://openfoam.org
    \\  /    A nd           | Version:  11
     \\/     M anipulation  |
\*---------------------------------------------------------------------------*/
FoamFile
{
    format      ascii;
    class       volVectorField;
    location    "5";
    object      U;
}
// * * * * * * * * * * * * * * * * * * * * * * * * * * * * * * * * * * * * * //

dimensions      [0 1 -1 0 0 0 0];

internalField   nonuniform List<vector> 
10100
(
(2.90149e-06 -3.02371e-06 0)
(1.41987e-05 -7.57038e-06 0)
(3.21395e-05 -8.78536e-06 0)
(4.90315e-05 -7.65741e-06 0)
(6.01371e-05 -5.27947e-06 0)
(6.31351e-05 -2.28842e-06 0)
(5.68662e-05 9.68194e-07 0)
(4.08341e-05 4.26152e-06 0)
(1.4972e-05 7.48641e-06 0)
(-2.0508e-05 1.05619e-05 0)
(-6.52311e-05 1.34724e-05 0)
(-0.00011869 1.61651e-05 0)
(-0.000180335 1.86438e-05 0)
(-0.00024954 2.09063e-05 0)
(-0.000325701 2.29431e-05 0)
(-0.000408155 2.47685e-05 0)
(-0.000496257 2.63901e-05 0)
(-0.000589372 2.77945e-05 0)
(-0.000686847 2.90092e-05 0)
(-0.000788048 3.00252e-05 0)
(-0.000892367 3.08515e-05 0)
(-0.000999194 3.15035e-05 0)
(-0.00110793 3.1981e-05 0)
(-0.00121802 3.22896e-05 0)
(-0.00132892 3.24377e-05 0)
(-0.00144008 3.24327e-05 0)
(-0.00155099 3.22784e-05 0)
(-0.00166117 3.19808e-05 0)
(-0.00177012 3.15498e-05 0)
(-0.00187737 3.09867e-05 0)
(-0.0019825 3.02913e-05 0)
(-0.00208507 2.94727e-05 0)
(-0.00218469 2.85435e-05 0)
(-0.00228098 2.751e-05 0)
(-0.0023736 2.63771e-05 0)
(-0.00246218 2.51527e-05 0)
(-0.00254643 2.38418e-05 0)
(-0.00262603 2.24454e-05 0)
(-0.0027007 2.09656e-05 0)
(-0.00277018 1.94104e-05 0)
(-0.00283423 1.77935e-05 0)
(-0.00289262 1.61219e-05 0)
(-0.00294518 1.43982e-05 0)
(-0.00299171 1.26292e-05 0)
(-0.00303205 1.08178e-05 0)
(-0.00306608 8.96554e-06 0)
(-0.00309366 7.0805e-06 0)
(-0.00311469 5.16921e-06 0)
(-0.0031291 3.23827e-06 0)
(-0.00313681 1.29799e-06 0)
(-0.0031378 -6.4901e-07 0)
(-0.00313204 -2.60324e-06 0)
(-0.00311954 -4.55531e-06 0)
(-0.00310032 -6.49514e-06 0)
(-0.00307443 -8.41892e-06 0)
(-0.00304193 -1.03209e-05 0)
(-0.00300292 -1.21949e-05 0)
(-0.00295751 -1.40377e-05 0)
(-0.00290582 -1.58423e-05 0)
(-0.00284803 -1.75966e-05 0)
(-0.00278432 -1.92927e-05 0)
(-0.0027149 -2.09264e-05 0)
(-0.00264001 -2.24898e-05 0)
(-0.0025599 -2.39733e-05 0)
(-0.00247487 -2.53699e-05 0)
(-0.00238524 -2.66726e-05 0)
(-0.00229133 -2.78724e-05 0)
(-0.00219352 -2.89608e-05 0)
(-0.0020922 -2.99311e-05 0)
(-0.00198779 -3.0775e-05 0)
(-0.00188071 -3.14846e-05 0)
(-0.00177144 -3.20553e-05 0)
(-0.00166046 -3.24845e-05 0)
(-0.00154826 -3.27661e-05 0)
(-0.00143537 -3.28908e-05 0)
(-0.00132233 -3.28524e-05 0)
(-0.00120969 -3.26488e-05 0)
(-0.00109803 -3.22764e-05 0)
(-0.000987931 -3.1727e-05 0)
(-0.000880004 -3.09925e-05 0)
(-0.000774866 -3.00686e-05 0)
(-0.000673148 -2.8953e-05 0)
(-0.000575488 -2.76428e-05 0)
(-0.000482527 -2.61358e-05 0)
(-0.000394901 -2.44311e-05 0)
(-0.000313247 -2.2528e-05 0)
(-0.000238188 -2.0426e-05 0)
(-0.000170331 -1.81271e-05 0)
(-0.000110255 -1.56376e-05 0)
(-5.8496e-05 -1.29696e-05 0)
(-1.55331e-05 -1.01386e-05 0)
(1.82376e-05 -7.1661e-06 0)
(4.25377e-05 -4.08764e-06 0)
(5.72634e-05 -9.66273e-07 0)
(6.25769e-05 2.08875e-06 0)
(5.90535e-05 4.88942e-06 0)
(4.78791e-05 7.11204e-06 0)
(3.12776e-05 8.18044e-06 0)
(1.37549e-05 7.09469e-06 0)
(2.78629e-06 2.78367e-06 0)
(6.86576e-06 -1.40161e-05 0)
(2.82784e-05 -2.92822e-05 0)
(5.69118e-05 -3.13579e-05 0)
(7.96511e-05 -2.3959e-05 0)
(8.76235e-05 -1.06601e-05 0)
(7.57175e-05 5.91976e-06 0)
(4.08889e-05 2.42354e-05 0)
(-1.8493e-05 4.31534e-05 0)
(-0.000103026 6.20216e-05 0)
(-0.000212537 8.03838e-05 0)
(-0.000346334 9.79441e-05 0)
(-0.0005034 0.000114518 0)
(-0.000682423 0.000129977 0)
(-0.00088198 0.000144246 0)
(-0.00110047 0.00015728 0)
(-0.00133625 0.000169067 0)
(-0.00158764 0.000179573 0)
(-0.00185289 0.000188837 0)
(-0.0021303 0.000196836 0)
(-0.00241817 0.000203617 0)
(-0.00271477 0.000209175 0)
(-0.00301846 0.000213567 0)
(-0.0033276 0.000216818 0)
(-0.0036406 0.000218962 0)
(-0.0039559 0.000220038 0)
(-0.004272 0.000220075 0)
(-0.00458745 0.000219102 0)
(-0.00490084 0.000217158 0)
(-0.0052108 0.000214283 0)
(-0.00551603 0.000210512 0)
(-0.00581527 0.000205886 0)
(-0.00610732 0.000200447 0)
(-0.00639104 0.000194237 0)
(-0.00666535 0.000187294 0)
(-0.00692922 0.000179657 0)
(-0.00718167 0.000171368 0)
(-0.00742178 0.000162466 0)
(-0.00764869 0.000152981 0)
(-0.00786158 0.000142953 0)
(-0.00805971 0.000132424 0)
(-0.00824238 0.000121436 0)
(-0.00840895 0.000110036 0)
(-0.00855885 9.82634e-05 0)
(-0.00869156 8.6156e-05 0)
(-0.00880662 7.37546e-05 0)
(-0.00890361 6.10918e-05 0)
(-0.00898218 4.82004e-05 0)
(-0.00904204 3.5125e-05 0)
(-0.00908298 2.19108e-05 0)
(-0.0091048 8.59901e-06 0)
(-0.00910739 -4.76788e-06 0)
(-0.00909072 -1.8149e-05 0)
(-0.00905478 -3.1504e-05 0)
(-0.00899965 -4.47889e-05 0)
(-0.00892547 -5.79585e-05 0)
(-0.00883246 -7.09693e-05 0)
(-0.00872086 -8.37789e-05 0)
(-0.00859102 -9.63422e-05 0)
(-0.00844334 -0.000108609 0)
(-0.0082783 -0.000120529 0)
(-0.00809641 -0.000132054 0)
(-0.00789832 -0.000143135 0)
(-0.00768471 -0.000153718 0)
(-0.00745632 -0.000163751 0)
(-0.00721397 -0.000173187 0)
(-0.00695859 -0.000181976 0)
(-0.00669113 -0.000190065 0)
(-0.00641263 -0.000197404 0)
(-0.00612419 -0.000203943 0)
(-0.005827 -0.000209637 0)
(-0.00552229 -0.000214439 0)
(-0.00521138 -0.000218307 0)
(-0.00489561 -0.000221204 0)
(-0.00457641 -0.000223089 0)
(-0.00425527 -0.00022392 0)
(-0.00393368 -0.000223663 0)
(-0.00361324 -0.000222288 0)
(-0.00329555 -0.000219766 0)
(-0.00298228 -0.000216065 0)
(-0.00267512 -0.000211155 0)
(-0.00237577 -0.00020501 0)
(-0.00208596 -0.000197616 0)
(-0.00180746 -0.000188965 0)
(-0.001542 -0.000179059 0)
(-0.00129131 -0.000167905 0)
(-0.00105708 -0.000155521 0)
(-0.00084096 -0.000141936 0)
(-0.000644526 -0.0001272 0)
(-0.000469241 -0.000111388 0)
(-0.000316421 -9.46082e-05 0)
(-0.00018718 -7.70068e-05 0)
(-8.23591e-05 -5.87907e-05 0)
(-2.41782e-06 -4.02588e-05 0)
(5.27104e-05 -2.18549e-05 0)
(8.38216e-05 -4.24253e-06 0)
(9.27305e-05 1.15777e-05 0)
(8.25971e-05 2.40932e-05 0)
(5.84695e-05 3.10072e-05 0)
(2.89549e-05 2.89008e-05 0)
(7.1162e-06 1.37543e-05 0)
(7.4716e-06 -3.07186e-05 0)
(2.87712e-05 -5.71462e-05 0)
(5.26646e-05 -5.58809e-05 0)
(6.39298e-05 -3.42772e-05 0)
(5.20005e-05 7.80162e-07 0)
(1.02789e-05 4.42112e-05 0)
(-6.54032e-05 9.22654e-05 0)
(-0.000177525 0.000142454 0)
(-0.000327105 0.000192937 0)
(-0.000514185 0.000242515 0)
(-0.000737974 0.00029031 0)
(-0.000997121 0.000335731 0)
(-0.00128989 0.000378362 0)
(-0.00161419 0.000417932 0)
(-0.00196773 0.000454252 0)
(-0.0023481 0.000487208 0)
(-0.0027527 0.000516732 0)
(-0.00317898 0.000542809 0)
(-0.00362429 0.00056543 0)
(-0.00408597 0.000584633 0)
(-0.00456142 0.000600472 0)
(-0.00504803 0.000612988 0)
(-0.00554323 0.000622286 0)
(-0.00604453 0.000628445 0)
(-0.00654947 0.000631549 0)
(-0.00705566 0.000631693 0)
(-0.00756078 0.000628963 0)
(-0.00806261 0.000623455 0)
(-0.00855897 0.000615277 0)
(-0.00904778 0.000604538 0)
(-0.00952705 0.000591347 0)
(-0.00999486 0.000575821 0)
(-0.0104494 0.00055807 0)
(-0.0108888 0.000538203 0)
(-0.0113116 0.000516331 0)
(-0.0117161 0.000492564 0)
(-0.0121009 0.000467016 0)
(-0.0124645 0.000439795 0)
(-0.0128057 0.000411011 0)
(-0.0131232 0.000380782 0)
(-0.013416 0.000349226 0)
(-0.013683 0.000316455 0)
(-0.0139232 0.00028259 0)
(-0.0141359 0.000247747 0)
(-0.0143203 0.000212034 0)
(-0.0144756 0.000175567 0)
(-0.0146015 0.000138457 0)
(-0.0146973 0.000100815 0)
(-0.0147627 6.27679e-05 0)
(-0.0147974 2.44411e-05 0)
(-0.0148013 -1.40492e-05 0)
(-0.0147743 -5.25802e-05 0)
(-0.0147164 -9.10218e-05 0)
(-0.0146277 -0.00012925 0)
(-0.0145085 -0.000167141 0)
(-0.0143591 -0.000204562 0)
(-0.0141799 -0.000241381 0)
(-0.0139714 -0.000277467 0)
(-0.0137345 -0.000312682 0)
(-0.0134697 -0.000346882 0)
(-0.013178 -0.000379929 0)
(-0.0128604 -0.000411683 0)
(-0.012518 -0.000441998 0)
(-0.012152 -0.000470729 0)
(-0.0117637 -0.000497734 0)
(-0.0113546 -0.000522874 0)
(-0.0109262 -0.000546006 0)
(-0.0104802 -0.000566989 0)
(-0.0100183 -0.000585688 0)
(-0.0095425 -0.000601969 0)
(-0.00905467 -0.000615705 0)
(-0.00855691 -0.000626775 0)
(-0.00805138 -0.000635064 0)
(-0.00754036 -0.000640459 0)
(-0.00702618 -0.000642849 0)
(-0.00651125 -0.000642138 0)
(-0.00599807 -0.000638239 0)
(-0.00548921 -0.000631072 0)
(-0.00498728 -0.000620561 0)
(-0.00449492 -0.000606638 0)
(-0.00401482 -0.000589255 0)
(-0.00354969 -0.000568381 0)
(-0.00310225 -0.000544008 0)
(-0.00267517 -0.000516155 0)
(-0.00227112 -0.000484865 0)
(-0.00189267 -0.000450218 0)
(-0.0015423 -0.000412332 0)
(-0.00122238 -0.000371387 0)
(-0.000935025 -0.000327632 0)
(-0.000682141 -0.000281416 0)
(-0.000465272 -0.000233207 0)
(-0.000285507 -0.000183648 0)
(-0.000143331 -0.000133626 0)
(-3.84331e-05 -8.43794e-05 0)
(3.05447e-05 -3.76468e-05 0)
(6.63318e-05 4.12426e-06 0)
(7.33464e-05 3.75001e-05 0)
(5.81671e-05 5.7748e-05 0)
(3.1249e-05 5.84812e-05 0)
(8.23337e-06 3.13417e-05 0)
(6.14718e-06 -4.57164e-05 0)
(2.08294e-05 -7.81423e-05 0)
(3.01065e-05 -6.67373e-05 0)
(1.8635e-05 -2.29552e-05 0)
(-2.44939e-05 4.30669e-05 0)
(-0.000106499 0.000123357 0)
(-0.00023215 0.000212083 0)
(-0.000404305 0.000304896 0)
(-0.000624365 0.000398706 0)
(-0.0008924 0.000491225 0)
(-0.0012076 0.000580835 0)
(-0.00156841 0.000666335 0)
(-0.0019727 0.000746901 0)
(-0.00241796 0.000821918 0)
(-0.00290131 0.000890981 0)
(-0.00341967 0.000953802 0)
(-0.00396981 0.00101023 0)
(-0.00454837 0.00106014 0)
(-0.00515194 0.00110355 0)
(-0.00577709 0.00114045 0)
(-0.00642037 0.00117092 0)
(-0.00707837 0.00119506 0)
(-0.00774768 0.00121298 0)
(-0.00842501 0.00122485 0)
(-0.00910709 0.00123081 0)
(-0.00979073 0.00123105 0)
(-0.0104729 0.00122572 0)
(-0.0111504 0.00121501 0)
(-0.0118206 0.00119913 0)
(-0.0124806 0.00117826 0)
(-0.0131276 0.00115262 0)
(-0.0137592 0.00112243 0)
(-0.0143728 0.00108789 0)
(-0.0149661 0.00104922 0)
(-0.0155369 0.00100664 0)
(-0.016083 0.000960353 0)
(-0.0166025 0.000910578 0)
(-0.0170934 0.000857534 0)
(-0.017554 0.000801442 0)
(-0.0179827 0.000742522 0)
(-0.018378 0.000680999 0)
(-0.0187384 0.000617096 0)
(-0.0190627 0.000551035 0)
(-0.0193498 0.000483046 0)
(-0.0195985 0.000413354 0)
(-0.0198082 0.000342177 0)
(-0.0199779 0.000269746 0)
(-0.020107 0.000196292 0)
(-0.0201951 0.000122045 0)
(-0.0202417 4.72454e-05 0)
(-0.0202467 -2.78635e-05 0)
(-0.0202099 -0.000103042 0)
(-0.0201314 -0.000178044 0)
(-0.0200114 -0.000252617 0)
(-0.0198501 -0.000326512 0)
(-0.019648 -0.000399477 0)
(-0.0194058 -0.000471251 0)
(-0.0191241 -0.000541567 0)
(-0.018804 -0.000610159 0)
(-0.0184463 -0.00067676 0)
(-0.0180524 -0.000741096 0)
(-0.0176235 -0.00080289 0)
(-0.0171613 -0.000861868 0)
(-0.0166672 -0.000917754 0)
(-0.0161431 -0.000970273 0)
(-0.015591 -0.00101915 0)
(-0.0150129 -0.00106412 0)
(-0.014411 -0.00110492 0)
(-0.0137878 -0.00114127 0)
(-0.0131458 -0.00117293 0)
(-0.0124876 -0.00119965 0)
(-0.011816 -0.00122121 0)
(-0.0111339 -0.00123736 0)
(-0.0104442 -0.00124791 0)
(-0.00975027 -0.00125264 0)
(-0.00905517 -0.00125137 0)
(-0.00836227 -0.00124394 0)
(-0.00767497 -0.00123019 0)
(-0.00699675 -0.00121 0)
(-0.0063311 -0.00118326 0)
(-0.00568157 -0.00114989 0)
(-0.00505173 -0.00110987 0)
(-0.00444512 -0.0010632 0)
(-0.00386525 -0.00100992 0)
(-0.00331556 -0.000950173 0)
(-0.00279938 -0.000884125 0)
(-0.00231989 -0.000812053 0)
(-0.00188006 -0.000734343 0)
(-0.00148257 -0.000651524 0)
(-0.00112975 -0.000564304 0)
(-0.000823454 -0.000473631 0)
(-0.00056495 -0.000380766 0)
(-0.000354725 -0.000287404 0)
(-0.000192291 -0.000195824 0)
(-7.59311e-05 -0.000109096 0)
(-2.39543e-06 -3.13632e-05 0)
(3.33856e-05 3.1812e-05 0)
(3.87208e-05 7.3108e-05 0)
(2.46574e-05 8.29705e-05 0)
(7.21796e-06 4.81364e-05 0)
(3.87053e-06 -5.49355e-05 0)
(8.00148e-06 -8.43284e-05 0)
(-4.3358e-06 -5.42118e-05 0)
(-4.66021e-05 2.02687e-05 0)
(-0.000129232 0.000125833 0)
(-0.000259462 0.000251893 0)
(-0.000442143 0.000390345 0)
(-0.000680327 0.000535144 0)
(-0.000975371 0.000681704 0)
(-0.00132745 0.000826639 0)
(-0.00173562 0.000967392 0)
(-0.00219811 0.00110208 0)
(-0.00271255 0.00122932 0)
(-0.00327598 0.00134808 0)
(-0.0038851 0.00145765 0)
(-0.00453629 0.00155751 0)
(-0.00522573 0.00164735 0)
(-0.00594942 0.00172695 0)
(-0.00670329 0.00179624 0)
(-0.00748322 0.00185522 0)
(-0.00828503 0.00190395 0)
(-0.00910459 0.00194257 0)
(-0.0099378 0.00197123 0)
(-0.0107806 0.00199016 0)
(-0.011629 0.00199959 0)
(-0.0124791 0.00199977 0)
(-0.0133271 0.00199098 0)
(-0.0141694 0.00197351 0)
(-0.0150023 0.00194767 0)
(-0.0158224 0.00191377 0)
(-0.0166265 0.00187215 0)
(-0.0174112 0.00182313 0)
(-0.0181736 0.00176705 0)
(-0.0189107 0.00170427 0)
(-0.0196198 0.00163512 0)
(-0.0202982 0.00155995 0)
(-0.0209435 0.00147912 0)
(-0.0215533 0.00139296 0)
(-0.0221254 0.00130185 0)
(-0.0226579 0.00120613 0)
(-0.0231488 0.00110617 0)
(-0.0235964 0.00100233 0)
(-0.0239991 0.000894986 0)
(-0.0243555 0.000784488 0)
(-0.0246643 0.00067121 0)
(-0.0249245 0.000555519 0)
(-0.025135 0.000437788 0)
(-0.0252952 0.000318396 0)
(-0.0254043 0.000197728 0)
(-0.025462 7.6168e-05 0)
(-0.0254679 -4.58932e-05 0)
(-0.0254219 -0.000168054 0)
(-0.0253241 -0.000289913 0)
(-0.0251747 -0.000411067 0)
(-0.024974 -0.000531102 0)
(-0.0247228 -0.0006496 0)
(-0.0244217 -0.00076614 0)
(-0.0240717 -0.000880295 0)
(-0.0236738 -0.000991628 0)
(-0.0232295 -0.0010997 0)
(-0.0227402 -0.00120408 0)
(-0.0222075 -0.00130433 0)
(-0.0216334 -0.00139998 0)
(-0.0210198 -0.00149061 0)
(-0.020369 -0.00157577 0)
(-0.0196833 -0.00165502 0)
(-0.0189655 -0.00172794 0)
(-0.0182182 -0.00179408 0)
(-0.0174444 -0.00185304 0)
(-0.0166472 -0.00190441 0)
(-0.0158299 -0.0019478 0)
(-0.0149958 -0.00198283 0)
(-0.0141486 -0.00200914 0)
(-0.0132919 -0.00202639 0)
(-0.0124297 -0.00203427 0)
(-0.0115659 -0.00203249 0)
(-0.0107045 -0.00202078 0)
(-0.0098497 -0.00199892 0)
(-0.00900576 -0.00196673 0)
(-0.00817693 -0.00192405 0)
(-0.00736751 -0.00187079 0)
(-0.00658183 -0.00180692 0)
(-0.00582415 -0.00173249 0)
(-0.00509872 -0.00164762 0)
(-0.00440962 -0.00155252 0)
(-0.00376083 -0.00144754 0)
(-0.00315612 -0.00133317 0)
(-0.00259897 -0.00121008 0)
(-0.00209252 -0.00107914 0)
(-0.00163944 -0.000941547 0)
(-0.00124187 -0.000798832 0)
(-0.000901223 -0.00065301 0)
(-0.000618029 -0.000506714 0)
(-0.000391749 -0.000363387 0)
(-0.000220533 -0.000227535 0)
(-0.000100956 -0.000105053 0)
(-2.77563e-05 -3.61634e-06 0)
(6.54693e-06 6.69336e-05 0)
(1.26319e-05 9.3969e-05 0)
(5.08155e-06 5.97124e-05 0)
(1.16262e-06 -5.65111e-05 0)
(-7.68174e-06 -7.12132e-05 0)
(-4.6179e-05 -1.23549e-05 0)
(-0.000125013 0.000102057 0)
(-0.000253169 0.000255942 0)
(-0.000437565 0.000436297 0)
(-0.000682796 0.000632967 0)
(-0.000991648 0.000838168 0)
(-0.00136548 0.00104588 0)
(-0.00180422 0.00125152 0)
(-0.00230681 0.00145156 0)
(-0.00287129 0.00164333 0)
(-0.00349495 0.00182483 0)
(-0.00417453 0.00199454 0)
(-0.00490631 0.00215135 0)
(-0.00568622 0.00229449 0)
(-0.00650991 0.00242341 0)
(-0.00737287 0.00253778 0)
(-0.00827042 0.00263739 0)
(-0.00919782 0.00272223 0)
(-0.0101503 0.00279234 0)
(-0.0111231 0.00284787 0)
(-0.0121114 0.00288902 0)
(-0.0131106 0.00291609 0)
(-0.014116 0.00292937 0)
(-0.015123 0.00292922 0)
(-0.0161273 0.00291603 0)
(-0.0171245 0.00289021 0)
(-0.0181104 0.0028522 0)
(-0.0190811 0.00280244 0)
(-0.0200326 0.0027414 0)
(-0.0209611 0.00266957 0)
(-0.021863 0.00258741 0)
(-0.0227351 0.00249545 0)
(-0.0235738 0.00239417 0)
(-0.0243763 0.00228408 0)
(-0.0251395 0.00216569 0)
(-0.0258607 0.00203951 0)
(-0.0265373 0.00190607 0)
(-0.0271669 0.00176589 0)
(-0.0277474 0.00161949 0)
(-0.0282766 0.00146739 0)
(-0.0287527 0.00131015 0)
(-0.0291739 0.0011483 0)
(-0.029539 0.000982366 0)
(-0.0298464 0.0008129 0)
(-0.0300951 0.000640452 0)
(-0.0302843 0.000465576 0)
(-0.0304131 0.000288835 0)
(-0.030481 0.000110801 0)
(-0.0304877 -6.79511e-05 0)
(-0.0304331 -0.000246839 0)
(-0.0303171 -0.000425272 0)
(-0.0301402 -0.000602651 0)
(-0.0299028 -0.000778374 0)
(-0.0296055 -0.000951828 0)
(-0.0292493 -0.00112239 0)
(-0.0288353 -0.00128944 0)
(-0.0283647 -0.00145233 0)
(-0.0278393 -0.00161045 0)
(-0.0272606 -0.00176313 0)
(-0.0266308 -0.00190975 0)
(-0.0259519 -0.00204965 0)
(-0.0252264 -0.00218218 0)
(-0.0244569 -0.00230672 0)
(-0.0236463 -0.00242263 0)
(-0.0227976 -0.00252927 0)
(-0.021914 -0.00262604 0)
(-0.0209991 -0.00271232 0)
(-0.0200564 -0.00278754 0)
(-0.0190897 -0.00285112 0)
(-0.0181032 -0.00290254 0)
(-0.017101 -0.00294127 0)
(-0.0160873 -0.00296682 0)
(-0.0150669 -0.00297875 0)
(-0.0140441 -0.00297665 0)
(-0.0130239 -0.00296016 0)
(-0.012011 -0.00292897 0)
(-0.0110103 -0.00288283 0)
(-0.0100268 -0.00282156 0)
(-0.0090655 -0.00274505 0)
(-0.00813135 -0.00265328 0)
(-0.00722929 -0.00254637 0)
(-0.00636415 -0.00242453 0)
(-0.00554064 -0.00228811 0)
(-0.00476326 -0.00213768 0)
(-0.0040363 -0.00197397 0)
(-0.0033637 -0.001798 0)
(-0.00274897 -0.0016111 0)
(-0.00219513 -0.00141499 0)
(-0.00170455 -0.00121189 0)
(-0.00127883 -0.00100465 0)
(-0.000918644 -0.000796902 0)
(-0.000623525 -0.000593322 0)
(-0.000391704 -0.000399865 0)
(-0.000219873 -0.000224141 0)
(-0.000102939 -7.58308e-05 0)
(-3.36937e-05 3.28829e-05 0)
(-2.54826e-06 8.66107e-05 0)
(2.40091e-06 6.39365e-05 0)
(-1.69401e-06 -4.94803e-05 0)
(-2.48192e-05 -3.59873e-05 0)
(-9.24498e-05 6.29529e-05 0)
(-0.000211591 0.000227187 0)
(-0.000389538 0.00043843 0)
(-0.000632397 0.000681481 0)
(-0.000944209 0.000944437 0)
(-0.00132741 0.0012178 0)
(-0.00178293 0.00149424 0)
(-0.00231052 0.00176795 0)
(-0.00290885 0.00203442 0)
(-0.00357565 0.00229017 0)
(-0.00430797 0.0025325 0)
(-0.0051022 0.00275937 0)
(-0.00595422 0.00296925 0)
(-0.00685957 0.00316102 0)
(-0.00781347 0.00333389 0)
(-0.00881088 0.00348735 0)
(-0.00984664 0.00362109 0)
(-0.0109155 0.00373499 0)
(-0.012012 0.0038291 0)
(-0.013131 0.00390354 0)
(-0.014267 0.00395858 0)
(-0.0154147 0.00399456 0)
(-0.016569 0.00401186 0)
(-0.0177248 0.00401095 0)
(-0.018877 0.00399232 0)
(-0.0200207 0.00395652 0)
(-0.0211512 0.00390412 0)
(-0.0222639 0.00383573 0)
(-0.0233544 0.00375197 0)
(-0.0244185 0.00365348 0)
(-0.025452 0.00354091 0)
(-0.0264511 0.00341493 0)
(-0.0274119 0.00327623 0)
(-0.0283311 0.00312549 0)
(-0.0292052 0.0029634 0)
(-0.0300312 0.00279067 0)
(-0.030806 0.002608 0)
(-0.031527 0.00241611 0)
(-0.0321916 0.00221571 0)
(-0.0327975 0.00200753 0)
(-0.0333425 0.00179229 0)
(-0.0338247 0.00157074 0)
(-0.0342425 0.00134362 0)
(-0.0345943 0.00111167 0)
(-0.0348789 0.000875637 0)
(-0.0350952 0.000636299 0)
(-0.0352425 0.000394421 0)
(-0.03532 0.000150783 0)
(-0.0353275 -9.38216e-05 0)
(-0.0352647 -0.000338592 0)
(-0.0351318 -0.000582724 0)
(-0.0349291 -0.000825397 0)
(-0.0346571 -0.00106578 0)
(-0.0343166 -0.00130304 0)
(-0.0339087 -0.00153632 0)
(-0.0334345 -0.00176478 0)
(-0.0328958 -0.00198754 0)
(-0.0322942 -0.00220374 0)
(-0.0316317 -0.00241251 0)
(-0.0309105 -0.00261297 0)
(-0.0301333 -0.00280424 0)
(-0.0293027 -0.00298545 0)
(-0.0284217 -0.00315573 0)
(-0.0274936 -0.00331423 0)
(-0.0265218 -0.00346009 0)
(-0.02551 -0.00359248 0)
(-0.0244622 -0.00371059 0)
(-0.0233825 -0.00381362 0)
(-0.0222752 -0.00390083 0)
(-0.0211449 -0.00397147 0)
(-0.0199963 -0.00402486 0)
(-0.0188344 -0.00406036 0)
(-0.0176642 -0.00407736 0)
(-0.016491 -0.00407534 0)
(-0.0153202 -0.00405381 0)
(-0.014157 -0.00401239 0)
(-0.0130072 -0.00395076 0)
(-0.0118762 -0.0038687 0)
(-0.0107697 -0.00376612 0)
(-0.00969319 -0.00364302 0)
(-0.00865219 -0.0034996 0)
(-0.0076521 -0.00333619 0)
(-0.00669814 -0.00315332 0)
(-0.00579532 -0.0029518 0)
(-0.00494837 -0.00273267 0)
(-0.00416164 -0.00249735 0)
(-0.00343902 -0.00224767 0)
(-0.00278383 -0.00198594 0)
(-0.00219872 -0.00171511 0)
(-0.00168554 -0.00143891 0)
(-0.00124516 -0.00116202 0)
(-0.000877367 -0.000890321 0)
(-0.000580645 -0.000631189 0)
(-0.000352043 -0.000393847 0)
(-0.000186935 -0.000189814 0)
(-7.8729e-05 -3.33414e-05 0)
(-1.94211e-05 5.7864e-05 0)
(-5.05517e-07 5.9698e-05 0)
(-4.57371e-06 -3.33861e-05 0)
(-4.26371e-05 2.29876e-05 0)
(-0.000141007 0.000174267 0)
(-0.000302885 0.00039891 0)
(-0.000533383 0.000676746 0)
(-0.000837668 0.000990986 0)
(-0.001219 0.00132797 0)
(-0.00167916 0.00167688 0)
(-0.00221863 0.00202901 0)
(-0.00283676 0.00237744 0)
(-0.00353185 0.00271671 0)
(-0.00430134 0.00304249 0)
(-0.00514192 0.00335139 0)
(-0.00604965 0.00364082 0)
(-0.00702006 0.00390877 0)
(-0.00804827 0.00415376 0)
(-0.00912909 0.00437474 0)
(-0.010257 0.00457096 0)
(-0.0114265 0.00474201 0)
(-0.0126317 0.00488765 0)
(-0.0138668 0.00500788 0)
(-0.015126 0.00510284 0)
(-0.0164034 0.00517281 0)
(-0.0176931 0.00521818 0)
(-0.0189895 0.00523944 0)
(-0.0202869 0.00523715 0)
(-0.0215797 0.00521193 0)
(-0.0228626 0.00516446 0)
(-0.0241304 0.00509547 0)
(-0.0253779 0.00500572 0)
(-0.0266002 0.004896 0)
(-0.0277926 0.00476714 0)
(-0.0289506 0.00461999 0)
(-0.0300698 0.00445539 0)
(-0.0311461 0.00427423 0)
(-0.0321755 0.0040774 0)
(-0.0331544 0.00386579 0)
(-0.0340793 0.00364031 0)
(-0.0349468 0.00340189 0)
(-0.035754 0.00315145 0)
(-0.036498 0.00288993 0)
(-0.0371762 0.00261826 0)
(-0.0377862 0.00233741 0)
(-0.0383259 0.00204832 0)
(-0.0387934 0.00175197 0)
(-0.0391871 0.00144934 0)
(-0.0395055 0.0011414 0)
(-0.0397475 0.000829163 0)
(-0.0399122 0.000513626 0)
(-0.0399988 0.000195812 0)
(-0.0400071 -0.000123247 0)
(-0.0399367 -0.000442505 0)
(-0.0397878 -0.000760909 0)
(-0.0395608 -0.00107739 0)
(-0.0392563 -0.00139087 0)
(-0.0388752 -0.00170025 0)
(-0.0384186 -0.00200443 0)
(-0.0378879 -0.0023023 0)
(-0.0372849 -0.00259273 0)
(-0.0366116 -0.0028746 0)
(-0.03587 -0.00314678 0)
(-0.0350629 -0.00340812 0)
(-0.034193 -0.00365749 0)
(-0.0332632 -0.00389377 0)
(-0.0322771 -0.00411583 0)
(-0.031238 -0.00432256 0)
(-0.03015 -0.00451286 0)
(-0.0290171 -0.00468566 0)
(-0.0278436 -0.00483991 0)
(-0.0266343 -0.0049746 0)
(-0.0253938 -0.00508875 0)
(-0.0241272 -0.00518143 0)
(-0.0228398 -0.00525176 0)
(-0.0215371 -0.00529891 0)
(-0.0202246 -0.00532213 0)
(-0.0189081 -0.00532075 0)
(-0.0175936 -0.00529419 0)
(-0.016287 -0.00524195 0)
(-0.0149943 -0.00516366 0)
(-0.0137218 -0.00505908 0)
(-0.0124756 -0.00492811 0)
(-0.0112617 -0.00477083 0)
(-0.0100862 -0.0045875 0)
(-0.00895493 -0.00437862 0)
(-0.00787367 -0.00414492 0)
(-0.00684784 -0.00388746 0)
(-0.00588261 -0.00360767 0)
(-0.00498271 -0.00330738 0)
(-0.00415238 -0.00298894 0)
(-0.00339528 -0.00265532 0)
(-0.00271439 -0.00231021 0)
(-0.00211184 -0.00195822 0)
(-0.00158884 -0.00160508 0)
(-0.00114553 -0.00125784 0)
(-0.000780806 -0.000925191 0)
(-0.000492289 -0.000617848 0)
(-0.000276041 -0.000348951 0)
(-0.000126333 -0.000134507 0)
(-3.70614e-05 5.94181e-06 0)
(-3.45709e-06 4.64627e-05 0)
(-7.40217e-06 -8.09303e-06 0)
(-6.06204e-05 0.000106498 0)
(-0.000190548 0.000323078 0)
(-0.000396438 0.000619115 0)
(-0.000681197 0.000973218 0)
(-0.00104881 0.00136711 0)
(-0.00150159 0.00178591 0)
(-0.00204056 0.00221743 0)
(-0.00266558 0.00265184 0)
(-0.00337547 0.00308118 0)
(-0.00416812 0.00349903 0)
(-0.00504057 0.00390027 0)
(-0.00598913 0.00428083 0)
(-0.00700949 0.00463753 0)
(-0.00809681 0.00496791 0)
(-0.00924582 0.00527008 0)
(-0.0104509 0.0055427 0)
(-0.0117063 0.00578481 0)
(-0.0130057 0.0059958 0)
(-0.0143432 0.00617536 0)
(-0.0157123 0.00632342 0)
(-0.0171067 0.00644011 0)
(-0.0185201 0.00652573 0)
(-0.0199463 0.00658072 0)
(-0.0213789 0.00660566 0)
(-0.0228119 0.0066012 0)
(-0.0242392 0.00656811 0)
(-0.0256551 0.0065072 0)
(-0.0270537 0.00641937 0)
(-0.0284296 0.00630555 0)
(-0.0297774 0.00616672 0)
(-0.0310919 0.00600389 0)
(-0.0323682 0.00581812 0)
(-0.0336015 0.00561046 0)
(-0.0347874 0.00538201 0)
(-0.0359216 0.00513389 0)
(-0.0369999 0.0048672 0)
(-0.0380185 0.0045831 0)
(-0.0389739 0.00428273 0)
(-0.0398628 0.00396726 0)
(-0.040682 0.00363787 0)
(-0.0414287 0.00329572 0)
(-0.0421002 0.00294203 0)
(-0.0426944 0.002578 0)
(-0.0432091 0.00220484 0)
(-0.0436424 0.00182379 0)
(-0.0439929 0.00143608 0)
(-0.0442592 0.00104298 0)
(-0.0444405 0.000645745 0)
(-0.0445358 0.000245667 0)
(-0.0445449 -0.000155958 0)
(-0.0444674 -0.000557816 0)
(-0.0443035 -0.000958581 0)
(-0.0440537 -0.00135691 0)
(-0.0437186 -0.00175143 0)
(-0.0432991 -0.00214079 0)
(-0.0427965 -0.00252359 0)
(-0.0422125 -0.00289843 0)
(-0.0415488 -0.00326392 0)
(-0.0408076 -0.00361864 0)
(-0.0399914 -0.00396116 0)
(-0.039103 -0.00429006 0)
(-0.0381453 -0.00460394 0)
(-0.0371217 -0.00490137 0)
(-0.0360359 -0.00518095 0)
(-0.0348917 -0.0054413 0)
(-0.0336934 -0.00568105 0)
(-0.0324455 -0.00589887 0)
(-0.0311528 -0.00609345 0)
(-0.0298201 -0.00626354 0)
(-0.0284529 -0.00640791 0)
(-0.0270565 -0.00652543 0)
(-0.0256368 -0.006615 0)
(-0.0241996 -0.00667561 0)
(-0.022751 -0.00670635 0)
(-0.0212973 -0.00670639 0)
(-0.0198449 -0.00667503 0)
(-0.0184004 -0.00661168 0)
(-0.0169702 -0.00651592 0)
(-0.0155611 -0.00638748 0)
(-0.0141796 -0.00622629 0)
(-0.0128324 -0.00603246 0)
(-0.011526 -0.00580638 0)
(-0.0102666 -0.00554871 0)
(-0.00906053 -0.00526042 0)
(-0.00791358 -0.00494286 0)
(-0.00683134 -0.00459783 0)
(-0.00581894 -0.00422761 0)
(-0.004881 -0.00383511 0)
(-0.00402152 -0.00342394 0)
(-0.00324385 -0.00299856 0)
(-0.00255051 -0.00256445 0)
(-0.00194311 -0.00212832 0)
(-0.00142224 -0.00169834 0)
(-0.000987407 -0.00128442 0)
(-0.000636913 -0.000898584 0)
(-0.000367687 -0.000555366 0)
(-0.000175029 -0.000272209 0)
(-5.48983e-05 -7.005e-05 0)
(-6.35921e-06 2.40647e-05 0)
(-1.01678e-05 2.6365e-05 0)
(-7.8474e-05 0.000214802 0)
(-0.000240176 0.000510018 0)
(-0.000490641 0.000888898 0)
(-0.000830507 0.00132911 0)
(-0.00126252 0.00181139 0)
(-0.00178794 0.00231971 0)
(-0.00240689 0.00284084 0)
(-0.0031185 0.00336391 0)
(-0.003921 0.00388 0)
(-0.00481175 0.00438183 0)
(-0.00578733 0.00486351 0)
(-0.00684361 0.00532032 0)
(-0.0079759 0.0057485 0)
(-0.00917897 0.00614511 0)
(-0.0104471 0.00650791 0)
(-0.0117744 0.00683519 0)
(-0.0131546 0.00712581 0)
(-0.0145811 0.00737895 0)
(-0.0160474 0.0075942 0)
(-0.0175466 0.00777141 0)
(-0.0190722 0.0079107 0)
(-0.0206173 0.00801238 0)
(-0.0221751 0.00807696 0)
(-0.023739 0.00810507 0)
(-0.0253025 0.00809751 0)
(-0.0268591 0.00805514 0)
(-0.0284026 0.00797895 0)
(-0.0299267 0.00786999 0)
(-0.0314255 0.00772939 0)
(-0.0328933 0.00755831 0)
(-0.0343245 0.00735798 0)
(-0.0357139 0.00712966 0)
(-0.0370562 0.00687464 0)
(-0.0383466 0.00659425 0)
(-0.0395805 0.00628983 0)
(-0.0407535 0.00596276 0)
(-0.0418615 0.0056144 0)
(-0.0429006 0.00524618 0)
(-0.0438672 0.0048595 0)
(-0.044758 0.00445581 0)
(-0.0455698 0.00403654 0)
(-0.0463 0.00360316 0)
(-0.046946 0.00315715 0)
(-0.0475055 0.00269999 0)
(-0.0479766 0.00223318 0)
(-0.0483577 0.00175826 0)
(-0.0486473 0.00127675 0)
(-0.0488443 0.000790207 0)
(-0.0489481 0.000300205 0)
(-0.048958 -0.00019167 0)
(-0.0488739 -0.000683812 0)
(-0.048696 -0.00117459 0)
(-0.0484246 -0.00166237 0)
(-0.0480605 -0.00214549 0)
(-0.0476048 -0.00262227 0)
(-0.0470588 -0.00309101 0)
(-0.0464242 -0.00355003 0)
(-0.045703 -0.00399759 0)
(-0.0448975 -0.00443197 0)
(-0.0440104 -0.00485145 0)
(-0.0430447 -0.00525429 0)
(-0.0420037 -0.00563878 0)
(-0.0408909 -0.00600319 0)
(-0.0397102 -0.00634582 0)
(-0.038466 -0.00666498 0)
(-0.0371627 -0.00695903 0)
(-0.0358052 -0.00722634 0)
(-0.0343985 -0.00746534 0)
(-0.0329481 -0.0076745 0)
(-0.0314596 -0.00785236 0)
(-0.029939 -0.00799754 0)
(-0.0283924 -0.00810872 0)
(-0.026826 -0.00818471 0)
(-0.0252466 -0.0082244 0)
(-0.0236609 -0.00822681 0)
(-0.0220755 -0.00819113 0)
(-0.0204977 -0.00811667 0)
(-0.0189343 -0.00800296 0)
(-0.0173926 -0.00784969 0)
(-0.0158796 -0.00765681 0)
(-0.0144023 -0.00742452 0)
(-0.0129677 -0.00715333 0)
(-0.0115826 -0.00684407 0)
(-0.0102536 -0.00649795 0)
(-0.00898696 -0.00611665 0)
(-0.00778867 -0.00570232 0)
(-0.00666425 -0.00525775 0)
(-0.00561871 -0.00478637 0)
(-0.00465648 -0.00429246 0)
(-0.00378129 -0.00378121 0)
(-0.00299612 -0.00325895 0)
(-0.00230308 -0.00273333 0)
(-0.00170333 -0.00221352 0)
(-0.00119703 -0.00171053 0)
(-0.000783333 -0.00123753 0)
(-0.000460133 -0.000810239 0)
(-0.000223861 -0.000447215 0)
(-7.2591e-05 -0.000170414 0)
(-9.16822e-06 -7.44714e-06 0)
(-1.28319e-05 6.98386e-05 0)
(-9.6046e-05 0.000347805 0)
(-0.000289347 0.000735217 0)
(-0.000584415 0.00120862 0)
(-0.000979657 0.00174507 0)
(-0.00147652 0.00232459 0)
(-0.00207517 0.00293025 0)
(-0.00277474 0.00354797 0)
(-0.00357355 0.00416595 0)
(-0.00446915 0.00477443 0)
(-0.0054583 0.00536537 0)
(-0.00653707 0.00593215 0)
(-0.00770085 0.00646943 0)
(-0.0089445 0.00697289 0)
(-0.0102624 0.00743916 0)
(-0.0116484 0.00786557 0)
(-0.0130962 0.00825016 0)
(-0.0145991 0.00859148 0)
(-0.0161502 0.00888859 0)
(-0.0177425 0.00914093 0)
(-0.0193689 0.00934829 0)
(-0.0210222 0.00951074 0)
(-0.0226953 0.00962864 0)
(-0.0243809 0.00970252 0)
(-0.026072 0.00973312 0)
(-0.0277618 0.00972132 0)
(-0.0294432 0.00966815 0)
(-0.0311097 0.00957475 0)
(-0.0327546 0.00944233 0)
(-0.0343718 0.00927221 0)
(-0.035955 0.00906577 0)
(-0.0374983 0.00882446 0)
(-0.038996 0.00854975 0)
(-0.0404428 0.00824319 0)
(-0.0418334 0.00790634 0)
(-0.0431629 0.00754081 0)
(-0.0444265 0.00714821 0)
(-0.04562 0.0067302 0)
(-0.0467391 0.00628845 0)
(-0.0477801 0.00582465 0)
(-0.0487393 0.00534052 0)
(-0.0496135 0.00483779 0)
(-0.0503998 0.00431819 0)
(-0.0510953 0.00378349 0)
(-0.0516977 0.00323548 0)
(-0.052205 0.00267595 0)
(-0.0526153 0.00210673 0)
(-0.0529272 0.00152964 0)
(-0.0531395 0.000946556 0)
(-0.0532514 0.00035935 0)
(-0.0532624 -0.000230078 0)
(-0.0531723 -0.000819806 0)
(-0.0529811 -0.00140789 0)
(-0.0526894 -0.00199237 0)
(-0.0522979 -0.00257125 0)
(-0.0518078 -0.00314254 0)
(-0.0512205 -0.00370422 0)
(-0.0505378 -0.00425425 0)
(-0.0497619 -0.00479059 0)
(-0.0488953 -0.00531117 0)
(-0.0479407 -0.00581394 0)
(-0.0469014 -0.00629684 0)
(-0.0457808 -0.00675781 0)
(-0.0445828 -0.00719482 0)
(-0.0433116 -0.00760583 0)
(-0.0419716 -0.00798884 0)
(-0.0405678 -0.0083419 0)
(-0.0391052 -0.00866308 0)
(-0.0375893 -0.00895052 0)
(-0.0360259 -0.00920241 0)
(-0.0344209 -0.00941702 0)