/*--------------------------------*- C++ -*----------------------------------*\
  =========                 |
  \\      /  F ield         | OpenFOAM: The Open Source CFD Toolbox
   \\    /   O peration     | Website:  https://openfoam.org
    \\  /    A nd           | Version:  11
     \\/     M anipulation  |
\*---------------------------------------------------------------------------*/
FoamFile
{
    format      ascii;
    class       volScalarField;
    location    "7";
    object      p;
}
// * * * * * * * * * * * * * * * * * * * * * * * * * * * * * * * * * * * * * //

dimensions      [0 2 -2 0 0 0 0];

internalField   nonuniform List<scalar> 
10100
(
-2.82527e-07
4.05962e-05
-0.000244765
-0.000877142
-0.0018
-0.00296333
-0.00431353
-0.00579844
-0.00737119
-0.00898951
-0.010617
-0.0122218
-0.0137763
-0.0152562
-0.0166409
-0.0179124
-0.0190558
-0.0200582
-0.0209086
-0.0215978
-0.0221186
-0.0224654
-0.022634
-0.022621
-0.0224248
-0.0220446
-0.0214809
-0.020735
-0.0198087
-0.0187046
-0.0174262
-0.0159774
-0.0143629
-0.0125881
-0.0106589
-0.00858207
-0.0063647
-0.00401407
-0.00153774
0.00105614
0.00375892
0.00656162
0.00945521
0.0124306
0.0154784
0.0185884
0.0217502
0.0249531
0.0281866
0.0314404
0.034704
0.0379666
0.0412171
0.0444442
0.0476368
0.0507841
0.0538756
0.0569005
0.0598482
0.0627079
0.0654692
0.0681221
0.0706571
0.073065
0.0753372
0.077465
0.0794402
0.0812552
0.0829031
0.0843779
0.0856745
0.0867886
0.0877168
0.0884561
0.0890044
0.0893606
0.0895246
0.089498
0.0892836
0.0888859
0.0883107
0.0875653
0.0866584
0.0856005
0.0844041
0.0830838
0.0816567
0.0801425
0.0785638
0.0769464
0.0753196
0.0737167
0.0721751
0.0707368
0.0694482
0.0683599
0.0675237
0.0669895
0.0667996
0.0669053
-0.000135093
-9.80666e-05
-0.000367803
-0.000929586
-0.00173147
-0.00273562
-0.00390219
-0.00519057
-0.00656146
-0.00797927
-0.00941133
-0.0108288
-0.0122063
-0.0135211
-0.0147535
-0.0158863
-0.0169048
-0.0177962
-0.0185499
-0.0191565
-0.0196088
-0.0199008
-0.0200282
-0.0199873
-0.0197761
-0.0193936
-0.0188397
-0.0181152
-0.0172214
-0.0161608
-0.0149363
-0.0135515
-0.0120105
-0.0103182
-0.00848035
-0.00650307
-0.00439288
-0.00215659
0.000198673
0.00266514
0.00523461
0.00789867
0.0106489
0.0134767
0.0163732
0.0193285
0.0223326
0.0253755
0.0284472
0.0315383
0.0346385
0.0377377
0.040825
0.0438898
0.0469217
0.0499105
0.0528463
0.055719
0.0585183
0.061234
0.0638563
0.0663758
0.0687838
0.0710718
0.0732316
0.0752551
0.0771346
0.078863
0.0804341
0.0818423
0.0830833
0.0841533
0.0850492
0.0857686
0.0863096
0.0866714
0.0868545
0.0868607
0.0866932
0.0863567
0.0858571
0.0852017
0.0843991
0.0834597
0.0823955
0.0812207
0.0799518
0.0786075
0.0772093
0.0757811
0.0743498
0.0729456
0.0716014
0.0703531
0.0692393
0.0682998
0.0675724
0.0670921
0.0669046
0.0670112
1.32749e-05
5.28303e-05
-0.000202967
-0.000723764
-0.00145308
-0.002358
-0.00340561
-0.0045616
-0.00579261
-0.00706784
-0.00835835
-0.0096379
-0.0108831
-0.0120731
-0.0131895
-0.0142157
-0.0151374
-0.0159424
-0.0166201
-0.0171617
-0.0175598
-0.0178085
-0.0179028
-0.0178395
-0.0176163
-0.017232
-0.0166859
-0.0159786
-0.0151112
-0.0140858
-0.0129051
-0.0115721
-0.0100908
-0.00846567
-0.00670226
-0.0048062
-0.00278345
-0.000640415
0.001616
0.00397831
0.0064387
0.00898933
0.0116224
0.0143296
0.0171024
0.0199311
0.0228062
0.0257181
0.0286577
0.0316158
0.0345826
0.0375482
0.0405022
0.0434345
0.0463353
0.049195
0.0520041
0.0547527
0.0574312
0.0600297
0.0625389
0.0649502
0.0672553
0.0694462
0.071515
0.0734541
0.0752561
0.0769145
0.0784235
0.0797781
0.0809743
0.0820088
0.0828788
0.0835821
0.0841171
0.0844832
0.0846812
0.0847132
0.0845825
0.084294
0.0838535
0.0832681
0.0825465
0.0816984
0.0807357
0.0796719
0.0785227
0.0773058
0.0760414
0.0747516
0.0734613
0.0721975
0.0709894
0.0698682
0.0688668
0.0680184
0.0673536
0.0669021
0.0667155
0.0668221
0.000509786
0.000499547
0.000222189
-0.000290678
-0.000987697
-0.00183846
-0.00281427
-0.00388484
-0.00502143
-0.00619674
-0.00738525
-0.00856329
-0.00970921
-0.010804
-0.0118306
-0.0127734
-0.0136189
-0.0143553
-0.0149723
-0.0154616
-0.015816
-0.0160293
-0.0160969
-0.0160153
-0.0157825
-0.0153967
-0.0148574
-0.0141647
-0.0133197
-0.0123242
-0.0111806
-0.00989141
-0.00846053
-0.0068925
-0.00519232
-0.00336519
-0.00141667
0.000647081
0.00281933
0.0050929
0.00746041
0.00991453
0.0124479
0.0150525
0.0177198
0.0204406
0.0232057
0.0260062
0.0288335
0.0316785
0.0345319
0.0373839
0.0402244
0.0430441
0.0458337
0.048584
0.0512858
0.0539295
0.0565056
0.0590048
0.0614186
0.0637386
0.065957
0.0680661
0.0700584
0.0719263
0.0736632
0.0752628
0.0767196
0.0780292
0.0791879
0.0801927
0.0810409
0.0817305
0.08226
0.0826292
0.0828389
0.0828913
0.0827901
0.0825398
0.0821463
0.0816166
0.0809587
0.0801823
0.0792986
0.0783205
0.0772628
0.0761422
0.0749772
0.0737885
0.0725987
0.0714321
0.070315
0.0692746
0.0683395
0.0675385
0.0668986
0.066447
0.066233
0.066289
0.00131608
0.00119755
0.000860441
0.000326129
-0.000366995
-0.00119198
-0.00212351
-0.00313573
-0.00420356
-0.005303
-0.00641148
-0.00750795
-0.00857288
-0.00958876
-0.0105397
-0.0114115
-0.0121915
-0.0128684
-0.0134328
-0.0138763
-0.0141921
-0.0143744
-0.0144185
-0.0143212
-0.01408
-0.0136933
-0.0131604
-0.0124815
-0.0116575
-0.0106898
-0.00958038
-0.00833193
-0.00694807
-0.00543313
-0.00379166
-0.00202845
-0.00014885
0.00184114
0.00393499
0.0061259
0.00840704
0.0107715
0.0132122
0.0157213
0.0182904
0.0209106
0.0235734
0.0262704
0.0289932
0.0317332
0.0344811
0.0372274
0.0399628
0.042678
0.0453646
0.0480135
0.0506158
0.0531623
0.0556437
0.0580513
0.0603768
0.0626126
0.0647511
0.0667848
0.0687064
0.0705089
0.0721858
0.0737311
0.07514
0.0764083
0.0775325
0.0785097
0.0793376
0.0800142
0.0805382
0.0809095
0.0811289
0.0811991
0.0811233
0.0809062
0.0805535
0.0800717
0.0794686
0.0787534
0.0779367
0.0770308
0.0760494
0.075008
0.0739239
0.0728157
0.071704
0.0706107
0.0695589
0.0685726
0.0676767
0.066896
0.0662545
0.0657768
0.0655013
0.0654529
0.00237629
0.00211047
0.00168335
0.00110195
0.000387123
-0.00043719
-0.00134917
-0.00232733
-0.00334958
-0.00439494
-0.00544375
-0.00647739
-0.0074785
-0.00843096
-0.00932014
-0.0101331
-0.0108582
-0.0114851
-0.0120046
-0.0124091
-0.0126918
-0.0128473
-0.0128714
-0.0127608
-0.0125128
-0.012126
-0.0115996
-0.0109338
-0.0101292
-0.00918711
-0.00810926
-0.00689841
-0.00555804
-0.00409208
-0.00250465
-0.00080027
0.0010158
0.00293767
0.00495909
0.00707374
0.0092753
0.0115572
0.0139124
0.0163332
0.0188115
0.021339
0.0239076
0.0265092
0.0291359
0.0317791
0.0344297
0.0370787
0.0397172
0.0423366
0.0449285
0.0474844
0.0499955
0.0524526
0.0548471
0.0571708
0.0594158
0.0615746
0.06364
0.0656048
0.0674619
0.0692047
0.0708267
0.0723227
0.0736879
0.0749183
0.076011
0.0769631
0.0777722
0.0784364
0.0789547
0.0793269
0.0795543
0.0796391
0.0795848
0.0793959
0.0790775
0.0786361
0.078079
0.0774148
0.0766535
0.0758065
0.0748868
0.0739085
0.0728874
0.0718406
0.0707864
0.0697445
0.068735
0.0677791
0.0668982
0.0661137
0.0654467
0.064919
0.0645533
0.0643612
0.00363903
0.00320076
0.00266105
0.00201117
0.00125286
0.000406653
-0.000508335
-0.00147397
-0.0024718
-0.00348344
-0.0044917
-0.0054803
-0.00643373
-0.00733749
-0.00817838
-0.00894461
-0.00962552
-0.0102116
-0.0106943
-0.0110664
-0.0113217
-0.0114552
-0.0114628
-0.0113413
-0.0110882
-0.010702
-0.0101823
-0.0095289
-0.00874229
-0.00782359
-0.00677468
-0.00559828
-0.00429764
-0.00287625
-0.00133797
0.000312819
0.00207092
0.00393057
0.00588596
0.0079312
0.0100603
0.012267
0.0145442
0.0168845
0.0192801
0.0217231
0.0242059
0.0267208
0.02926
0.0318151
0.0343772
0.0369377
0.0394882
0.0420207
0.0445269
0.0469985
0.0494268
0.0518032
0.0541192
0.056367
0.0585392
0.0606286
0.0626282
0.064531
0.06633
0.0680189
0.0695917
0.0710432
0.072369
0.0735655
0.0746297
0.0755589
0.0763507
0.0770033
0.0775157
0.0778879
0.0781211
0.0782176
0.0781808
0.0780148
0.0777245
0.0773159
0.0767959
0.0761726
0.0754552
0.0746544
0.073782
0.0728512
0.0718762
0.0708726
0.0698567
0.0688457
0.0678576
0.0669106
0.0660229
0.065213
0.0644996
0.0639016
0.0634237
0.0630621
0.00505698
0.00443033
0.00376193
0.003027
0.00220735
0.00132035
0.000383384
-0.000588288
-0.00157973
-0.00257544
-0.00356005
-0.00451931
-0.00543951
-0.00630786
-0.00711272
-0.00784334
-0.00848986
-0.00904359
-0.00949688
-0.00984303
-0.0100764
-0.0101923
-0.0101867
-0.0100567
-0.00980016
-0.00941568
-0.00890267
-0.00826095
-0.00749091
-0.00659376
-0.00557146
-0.00442655
-0.00316199
-0.00178096
-0.000287209
0.00131488
0.00302023
0.00482336
0.00671887
0.0087013
0.0107649
0.0129033
0.0151097
0.0173769
0.0196973
0.0220639
0.0244691
0.0269055
0.0293655
0.0318407
0.0343227
0.0368033
0.0392745
0.0417286
0.0441575
0.0465532
0.048907
0.0512105
0.0534559
0.0556357
0.0577426
0.0597699
0.0617105
0.0635578
0.0653049
0.0669456
0.0684743
0.069886
0.0711767
0.0723429
0.0733815
0.0742899
0.0750659
0.0757075
0.0762138
0.076585
0.0768222
0.0769277
0.0769045
0.0767565
0.0764884
0.0761056
0.0756145
0.0750227
0.0743387
0.0735723
0.0727344
0.0718369
0.070893
0.0699163
0.0689216
0.0679239
0.0669388
0.0659821
0.0650694
0.0642161
0.0634389
0.0627543
0.0621483
0.0616013
0.00658758
0.00576427
0.00495606
0.00412303
0.00322776
0.00228509
0.00131061
0.000316717
-0.000684022
-0.00167874
-0.00265432
-0.00359801
-0.00449787
-0.0053429
-0.00612278
-0.00682765
-0.00744862
-0.00797792
-0.00840868
-0.00873487
-0.00895131
-0.00905354
-0.00903799
-0.00890198
-0.00864361
-0.00826168
-0.00775545
-0.00712475
-0.00637008
-0.00549281
-0.00449488
-0.00337858
-0.00214659
-0.000801953
0.000651566
0.00220957
0.00386718
0.00561931
0.0074609
0.00938678
0.0113913
0.0134681
0.0156105
0.0178117
0.0200646
0.0223623
0.0246977
0.0270636
0.0294521
0.0318555
0.0342655
0.0366743
0.0390744
0.0414583
0.0438181
0.0461457
0.0484328
0.0506713
0.0528537
0.0549728
0.0570217
0.0589937
0.060882
0.0626799
0.0643809
0.0659789
0.0674685
0.068845
0.0701045
0.0712438
0.0722597
0.0731495
0.0739109
0.0745421
0.0750423
0.0754116
0.0756512
0.075763
0.0757499
0.0756155
0.0753641
0.0750006
0.074531
0.0739621
0.0733018
0.0725591
0.0717441
0.0708675
0.0699411
0.0689773
0.0679888
0.0669889
0.0659912
0.0650091
0.0640559
0.0631443
0.0622896
0.0615059
0.0607608
0.0600194
0.00819456
0.00717056
0.00621546
0.0052749
0.004293
0.00328255
0.00225763
0.00122815
0.000204606
-0.000802188
-0.00178119
-0.00272136
-0.00361253
-0.00444511
-0.00520974
-0.00589767
-0.00650117
-0.00701337
-0.00742808
-0.00773981
-0.0079438
-0.00803607
-0.00801353
-0.00787383
-0.00761524
-0.00723654
-0.00673706
-0.00611682
-0.00537651
-0.00451754
-0.00354173
-0.00245116
-0.00124834
6.36127e-05
0.00148093
0.00299929
0.00461409
0.00632061
0.00811408
0.00998941
0.011941
0.0139626
0.0160477
0.0181898
0.0203824
0.0226187
0.0248919
0.0271947
0.0295195
0.0318587
0.0342046
0.0365497
0.0388867
0.0412082
0.0435066
0.0457738
0.0480018
0.0501828
0.0523096
0.0543752
0.056373
0.0582963
0.0601386
0.0618932
0.0635536
0.0651141
0.0665694
0.0679152
0.0691476
0.0702632
0.071259
0.0721323
0.0728806
0.0735022
0.0739963
0.074363
0.0746033
0.0747191
0.0747129
0.074588
0.0743483
0.0739982
0.0735431
0.0729894
0.0723441
0.0716156
0.070813
0.0699461
0.0690254
0.0680617
0.0670665
0.0660511
0.0650273
0.0640066
0.063
0.0620182
0.0610749
0.0601829
0.0592918
0.0583521
0.00984582
0.0086208
0.00751501
0.00646007
0.00538291
0.00429512
0.00320917
0.00213319
0.00107551
4.54128e-05
-0.0009478
-0.00189516
-0.00278796
-0.00361748
-0.00437546
-0.0050545
-0.00564797
-0.00614974
-0.00655417
-0.00685632
-0.00705199
-0.00713783
-0.00711117
-0.0069699
-0.00671233
-0.0063374
-0.0058447
-0.00523447
-0.00450755
-0.00366526
-0.00270927
-0.00164159
-0.000464754
0.000818028
0.002203
0.00368608
0.00526293
0.00692911
0.00868004
0.0105106
0.0124151
0.0143877
0.016422
0.018512
0.0206513
0.0228334
0.0250516
0.0272986
0.0295671
0.0318497
0.0341391
0.0364282
0.0387098
0.0409766
0.0432211
0.0454353
0.0476116
0.0497423
0.0518206
0.0538396
0.055793
0.0576742
0.0594765
0.0611935
0.0628189
0.064347
0.0657729
0.0670922
0.0683012
0.0693965
0.070375
0.0712337
0.0719703
0.0725832
0.0730714
0.0734349
0.0736747
0.0737923
0.0737902
0.0736711
0.0734385
0.0730964
0.0726497
0.072104
0.071466
0.0707431
0.0699437
0.0690765
0.0681509
0.0671766
0.0661632
0.0651208
0.0640594
0.0629889
0.0619185
0.0608567
0.0598166
0.0588097
0.0577685
0.0566299
0.0115143
0.0100896
0.00883133
0.0076577
0.00647891
0.00530605
0.00415072
0.0030191
0.00191806
0.000855229
-0.000161869
-0.00112581
-0.00202886
-0.00286341
-0.00362257
-0.00430014
-0.00489029
-0.00538746
-0.00578666
-0.00608364
-0.00627492
-0.00635763
-0.00632939
-0.00618824
-0.00593274
-0.00556212
-0.00507628
-0.00447562
-0.00376101
-0.00293367
-0.00199519
-0.000947709
0.000206129
0.00146312
0.00281957
0.00427167
0.00581537
0.00744635
0.00916001
0.0109513
0.0128145
0.0147441
0.0167341
0.0187786
0.0208715
0.0230063
0.0251764
0.0273747
0.0295941
0.0318275
0.034068
0.0363086
0.0385422
0.0407617
0.0429595
0.045128
0.0472597
0.0493472
0.0513839
0.0533632
0.0552787
0.0571239
0.0588922
0.0605773
0.0621729
0.0636736
0.0650747
0.0663718
0.0675612
0.0686394
0.0696031
0.0704495
0.071176
0.0717811
0.0722637
0.0726237
0.0728619
0.0729797
0.0729791
0.0728625
0.072633
0.0722941
0.0718501
0.0713063
0.0706686
0.0699438
0.0691393
0.0682631
0.0673235
0.0663288
0.0652875
0.0642082
0.0630997
0.0619702
0.0608273
0.059678
0.0585347
0.0574083
0.0562151
0.054879
0.0131768
0.0115547
0.0101435
0.00884854
0.00756365
0.00629952
0.00506816
0.00387371
0.00272158
0.00161779
0.000568511
-0.000419764
-0.00134042
-0.00218729
-0.00295475
-0.0036374
-0.00422996
-0.00472758
-0.00512611
-0.00542208
-0.00561256
-0.005695
-0.00566722
-0.00552763
-0.00527517
-0.00490941
-0.00443045
-0.00383876
-0.00313518
-0.00232097
-0.00139781
-0.000367992
0.000765721
0.00200022
0.00333203
0.00475748
0.00627268
0.00787336
0.00955486
0.0113121
0.0131398
0.0150324
0.0169843
0.0189898
0.0210429
0.0231372
0.025266
0.0274225
0.0295999
0.0317914
0.0339902
0.0361895
0.0383824
0.0405617
0.04272
0.0448498
0.0469439
0.0489952
0.050997
0.0529431
0.0548271
0.0566423
0.0583824
0.060041
0.0616121
0.0630904
0.0644712
0.0657503
0.0669238
0.0679881
0.0689398
0.069776
0.0704941
0.0710924
0.0715699
0.0719263
0.0721622
0.0722787
0.0722775
0.0721606
0.0719306
0.0715906
0.0711446
0.070597
0.0699535
0.0692201
0.0684035
0.0675107
0.0665489
0.0655255
0.0644479
0.0633235
0.0621596
0.0609635
0.0597412
0.0584984
0.0572474
0.0559985
0.0546529
0.0531218
0.0148131
0.0129965
0.0114326
0.0100146
0.0086207
0.00726114
0.00594821
0.00468503
0.00347521
0.0023236
0.00123548
0.00021635
-0.000728549
-0.00159434
-0.00237625
-0.00306943
-0.00366931
-0.00417195
-0.00457405
-0.00487275
-0.00506546
-0.00514991
-0.00512435
-0.00498764
-0.00473915
-0.00437866
-0.00390637
-0.00332282
-0.00262889
-0.00182599
-0.000916073
9.85023e-05
0.00121499
0.0024304
0.00374142
0.00514449
0.0066357
0.00821075
0.00986501
0.0115935
0.0133912
0.0152527
0.0171727
0.0191456
0.0211652
0.0232254
0.0253196
0.0274412
0.0295836
0.0317402
0.0339045
0.0360697
0.0382288
0.0403749
0.0425006
0.0445986
0.046662
0.0486838
0.0506575
0.0525768
0.0544353
0.0562265
0.057944
0.0595816
0.0611334
0.0625942
0.0639594
0.0652245
0.0663858
0.0674394
0.0683818
0.06921
0.0699215
0.0705143
0.0709874
0.0713403
0.0715735
0.0716876
0.0716841
0.0715644
0.0713309
0.0709862
0.0705338
0.0699778
0.0693231
0.0685753
0.0677402
0.0668241
0.0658332
0.0647741
0.063653
0.0624763
0.0612503
0.0599812
0.0586741
0.0573333
0.0559712
0.0545979
0.0531002
0.0513774
0.0164053
0.0143979
0.0126821
0.01114
0.00963495
0.00817703
0.00677834
0.00544136
0.0041685
0.00296367
0.00183121
0.000775409
-0.000199665
-0.00108999
-0.00189138
-0.0025997
-0.00321132
-0.00372319
-0.00413263
-0.00443718
-0.00463452
-0.00472291
-0.00470117
-0.00456857
-0.00432476
-0.00396968
-0.00350356
-0.00292712
-0.00224146
-0.0014482
-0.000549453
0.000452355
0.0015546
0.0027544
0.00404848
0.00543326
0.00690481
0.00845881
0.0100907
0.0117957
0.0135689
0.0154052
0.0172993
0.0192456
0.021238
0.0232705
0.0253366
0.0274299
0.0295441
0.0316729
0.0338095
0.0359474
0.0380797
0.0401994
0.0422993
0.0443724
0.0464118
0.0484108
0.0503628
0.0522616
0.0541007
0.0558738
0.0575743
0.0591963
0.0607339
0.0621821
0.0635361
0.0647915
0.0659442
0.0669903
0.0679263
0.0687489
0.0694556
0.0700444
0.0705141
0.070864
0.0710942
0.0712053
0.071198
0.0710737
0.0708341
0.0704816
0.0700192
0.0694506
0.0687802
0.0680128
0.0671538
0.0662086
0.0651827
0.0640817
0.062911
0.0616761
0.0603824
0.0590353
0.0576387
0.0561964
0.0547208
0.0532222
0.0515734
0.0496626
0.0179375
0.0157431
0.0138769
0.0122103
0.0105926
0.00903387
0.00754641
0.00613168
0.00479154
0.00352904
0.00234741
0.00124988
0.0002397
-0.00067968
-0.00150477
-0.00223237
-0.00285975
-0.00338451
-0.00380437
-0.00411718
-0.00432121
-0.0044153
-0.0043988
-0.00427129
-0.00403254
-0.00368263
-0.003222
-0.00265161
-0.00197285
-0.00118755
-0.000297857
0.000693822
0.00178492
0.00297259
0.0042535
0.00562398
0.00708007
0.00861752
0.0102319
0.0119186
0.0136728
0.0154897
0.0173637
0.0192892
0.0212605
0.0232715
0.025316
0.0273877
0.0294806
0.0315881
0.0337039
0.0358213
0.0379334
0.0400334
0.0421143
0.0441692
0.0461913
0.0481739
0.0501107
0.0519951
0.0538208
0.0555815
0.0572707
0.0588824
0.0604111
0.0618515
0.0631989
0.0644486
0.0655965
0.0666385
0.0675709
0.0683905
0.0690946
0.069681
0.0701484
0.070496
0.0707235
0.070831
0.070819
0.0706884
0.0704407
0.0700779
0.0696025
0.0690178
0.0683277
0.0675365
0.0666489
0.0656697
0.0646037
0.0634556
0.0622301
0.060932
0.059566
0.0581365
0.056647
0.0551005
0.0535097
0.0518853
0.0500867
0.0479913
0.0193953
0.0170178
0.015003
0.0132119
0.0114807
0.00981941
0.00824074
0.00674537
0.00533456
0.00401053
0.00277562
0.00163222
0.000583021
-0.000369152
-0.00122167
-0.00197226
-0.00261885
-0.00315943
-0.00359209
-0.00391519
-0.00412773
-0.0042291
-0.00421896
-0.00409707
-0.00386338
-0.00351818
-0.00306225
-0.00249684
-0.00182359
-0.00104442
-0.000161492
0.000822833
0.00190595
0.00308492
0.00435631
0.00571639
0.00716124
0.00868671
0.0102885
0.0119621
0.0137028
0.0155056
0.0173651
0.0192759
0.021232
0.0232277
0.0252569
0.0273137
0.0293917
0.0314847
0.0335862
0.0356896
0.0377882
0.0398751
0.0419437
0.043987
0.0459984
0.0479712
0.0498989
0.0517751
0.0535934
0.0553474
0.0570309
0.0586379
0.0601628
0.0616003
0.0629456
0.0641939
0.0653408
0.0663821
0.0673141
0.0681332
0.0688369
0.0694229
0.0698894
0.0702356
0.0704607
0.0705645
0.0705472
0.0704094
0.070152
0.0697767
0.0692858
0.0686821
0.067969
0.0671504
0.0662303
0.065213
0.0641025
0.0629029
0.0616183
0.0602528
0.0588105
0.0572953
0.05571
0.0540571
0.0523499
0.0505996
0.0486526
0.0463758
0.020766
0.018209
0.0160478
0.0141326
0.0122873
0.0105222
0.00885042
0.00727214
0.00578786
0.00439911
0.00310758
0.00191507
0.000823666
-0.000164559
-0.00104783
-0.00182455
-0.00249306
-0.00305168
-0.00349905
-0.00383428
-0.00405693
-0.00416679
-0.00416366
-0.00404752
-0.0038186
-0.00347755
-0.00302546
-0.00246388
-0.0017946
-0.00101953
-0.000140844
0.000838992
0.00191726
0.0030909
0.00435638
0.00570998
0.00714784
0.00866594
0.01026
0.0119257
0.0136581
0.0154523
0.017303
0.0192046
0.0211515
0.0231381
0.0251585
0.0272066
0.0292762
0.0313611
0.0334547
0.0355507
0.0376423
0.0397229
0.0417857
0.043824
0.0458311
0.0478004
0.0497253
0.0515994
0.0534162
0.0551694
0.0568528
0.0584606
0.0599869
0.0614266
0.0627743
0.0640255
0.0651753
0.0662195
0.0671542
0.0679758
0.0686816
0.0692691
0.0697365
0.0700824
0.0703058
0.0704062
0.0703834
0.0702375
0.0699693
0.06958
0.0690716
0.0684464
0.0677077
0.0668587
0.0659029
0.0648439
0.0636852
0.0624305
0.0610831
0.0596467
0.0581249
0.0565212
0.0548378
0.0530768
0.0512524
0.0493761
0.0472821
0.0448269
0.0220388
0.0193053
0.0169992
0.0149608
0.0130011
0.0111314
0.0093651
0.00770207
0.00614207
0.00468608
0.00333531
0.00209106
0.00095474
-7.23866e-05
-0.000989184
-0.00179445
-0.00248687
-0.00306532
-0.00352913
-0.00387807
-0.00411205
-0.00423107
-0.00423517
-0.0041246
-0.00390001
-0.00356244
-0.00311326
-0.00255418
-0.00188704
-0.0011138
-0.000236753
0.000741464
0.00181798
0.00298962
0.00425285
0.00560395
0.00703919
0.00855458
0.0101459
0.0118085
0.0135378
0.0153288
0.0171761
0.0190743
0.0210181
0.0230017
0.0250194
0.0270651
0.0291327
0.0312157
0.033308
0.035403
0.0374942
0.0395749
0.0416385
0.0436784
0.0456877
0.0476598
0.0495881
0.051466
0.0532873
0.0550455
0.0567346
0.0583486
0.0598817
0.0613284
0.0626834
0.0639417
0.0650986
0.0661494
0.0670902
0.0679174
0.068628
0.0692193
0.0696894
0.0700364
0.0702591
0.0703567
0.0703284
0.0701742
0.0698945
0.0694901
0.0689626
0.0683143
0.0675478
0.0666658
0.0656716
0.0645681
0.0633583
0.0620453
0.0606321
0.0591218
0.0575178
0.0558231
0.0540397
0.0521694
0.0502271
0.0482249
0.045985
0.0433539
0.0232037
0.0202961
0.0178466
0.0156856
0.0136116
0.0116366
0.00977484
0.00802561
0.00638811
0.00486292
0.00345085
0.00215268
0.000969103
-9.9255e-05
-0.00105166
-0.00188722
-0.00260514
-0.00320498
-0.00368672
-0.00405052
-0.00429652
-0.00442492
-0.00443612
-0.0043308
-0.00411002
-0.00377513
-0.00332767
-0.00276946
-0.0021024
-0.00132859
-0.000450535
0.000528918
0.00160677
0.00277981
0.00404452
0.00539725
0.00683427
0.00835158
0.00994486
0.0116095
0.0133408
0.0151338
0.0169832
0.0188839
0.0208304
0.0228171
0.0248383
0.0268878
0.0289595
0.0310471
0.0331443
0.0352448
0.0373421
0.0394295
0.0415005
0.0435483
0.0455661
0.0475473
0.0494852
0.0513732
0.0532049
0.0549741
0.0566746
0.0583004
0.0598456
0.0613044
0.0626714
0.0639414
0.0651094
0.0661707
0.0671213
0.0679573
0.0686756
0.0692734
0.0697482
0.0700981
0.0703215
0.070417
0.0703838
0.0702213
0.0699297
0.0695095
0.0689622
0.0682894
0.0674933
0.0665766
0.0655417
0.0643912
0.0631278
0.0617539
0.0602723
0.0586858
0.0569973
0.0552097
0.0533247
0.051344
0.0492831
0.0471552
0.0447702
0.0419654
0.0242512
0.0211717
0.01858
0.0162966
0.0141086
0.0120281
0.0100701
0.00823346
0.0065171
0.00492123
0.00344622
0.00209228
0.000859546
-0.00025177
-0.00124124
-0.00210844
-0.00285323
-0.00347579
-0.00397653
-0.00435579
-0.00461398
-0.00475168
-0.0047697
-0.00466918
-0.00445152
-0.00411825
-0.00367104
-0.00311179
-0.00244258
-0.00166575
-0.00078404
0.00019952
0.00128188
0.00245985
0.00372993
0.00508847
0.00653169
0.00805551
0.0096555
0.011327
0.0130654
0.0148658
0.016723
0.0186318
0.0205869
0.0225828
0.0246135
0.0266729
0.028755
0.0308534
0.032962
0.0350744
0.0371843
0.0392849
0.0413697
0.0434319
0.0454647
0.0474613
0.0494149
0.0513191
0.0531674
0.0549535
0.0566713
0.0583145
0.0598771
0.0613531
0.062737
0.0640233
0.0652068
0.0662829
0.067247
0.0680954
0.0688246
0.0694316
0.0699136
0.0702683
0.0704939
0.0705887
0.0705513
0.0703811
0.0700777
0.0696415
0.0690737
0.0683755
0.0675489
0.0665959
0.0655186
0.0643192
0.0629999
0.061563
0.0600109
0.0583461
0.0565712
0.0546891
0.0527012
0.050609
0.0484291
0.0461754
0.0436462
0.0406691
0.0251723
0.0219225
0.0191896
0.0167846
0.0144826
0.0122965
0.0102415
0.0083166
0.00652036
0.00485268
0.00331338
0.0019022
0.000618916
-0.000536526
-0.00156414
-0.00246413
-0.00323692
-0.0038831
-0.00440332
-0.00479819
-0.00506846
-0.00521517
-0.00523961
-0.00514326
-0.00492774
-0.00459473
-0.00414597
-0.00358358
-0.00290992
-0.00212761
-0.00123957
-0.000248924
0.000841273
0.00202786
0.0033073
0.00467586
0.00612966
0.00766451
0.00927593
0.0109593
0.0127099
0.0145231
0.0163936
0.0183164
0.020286
0.0222968
0.0243431
0.0264186
0.0285172
0.0306327
0.0327591
0.0348899
0.0370188
0.0391392
0.0412442
0.0433273
0.0453814
0.0473998
0.0493755
0.0513021
0.0531731
0.0549822
0.0567231
0.0583894
0.0599749
0.0614734
0.0628792
0.0641866
0.0653902
0.0664853
0.0674671
0.0683316
0.0690752
0.0696944
0.0701862
0.0705482
0.0707779
0.0708734
0.0708332
0.070656
0.0703414
0.0698895
0.069301
0.0685771
0.0677191
0.0667287
0.0656077
0.0643579
0.0629812
0.0614796
0.0598552
0.0581103
0.0562475
0.0542693
0.0521773
0.0499729
0.0476734
0.0452937
0.0426207
0.0394723
0.0259585
0.0225399
0.0196668
0.0171406
0.0147246
0.0124324
0.0102801
0.00826636
0.00638949
0.00464901
0.00304436
0.00157491
0.000240175
-0.000960243
-0.0020269
-0.00296057
-0.00376208
-0.00443228
-0.00497203
-0.00538233
-0.00566438
-0.0058197
-0.00584995
-0.00575685
-0.00554218
-0.00520771
-0.00475541
-0.00418771
-0.0035073
-0.00271698
-0.00181981
-0.000818916
0.000282629
0.00148163
0.00277446
0.00415724
0.00562596
0.00717637
0.00880393
0.0105041
0.0122722
0.0141036
0.0159931
0.0179355
0.0199254
0.0219571
0.0240249
0.0261225
0.0282439
0.0303829
0.0325334
0.0346892
0.0368436
0.0389902
0.0411221
0.0432324
0.0453143
0.0473608
0.0493651
0.0513205
0.0532205
0.0550587
0.0568286
0.0585237
0.0601377
0.0616641
0.063097
0.0644304
0.065659
0.0667776
0.0677814
0.0686661
0.0694277
0.0700625
0.0705673
0.0709391
0.0711753
0.0712735
0.0712319
0.0710491
0.0707242
0.0702572
0.0696484
0.0688987
0.0680089
0.0669805
0.0658149
0.0645135
0.0630781
0.0615103
0.0598122
0.0579859
0.0560337
0.0539584
0.0517612
0.0494435
0.0470238
0.0445178
0.0417009
0.0383817
0.0266016
0.0230155
0.0200028
0.0173554
0.0148254
0.012427
0.0101771
0.00807415
0.006116
0.00430196
0.0026312
0.00110284
-0.00028393
-0.00152997
-0.00263635
-0.00360422
-0.00443469
-0.00512884
-0.00568788
-0.00611325
-0.00640663
-0.00656995
-0.00660512
-0.006514
-0.00629851
-0.00596068
-0.00550276
-0.00492754
-0.00423797
-0.00343698
-0.00252765
-0.00151316
-0.000396617
0.000818683
0.00212894
0.00353011
0.00501809
0.00658859
0.00823711
0.00995908
0.01175
0.013605
0.0155191
0.0174868
0.0195027
0.0215612
0.0236565
0.0257824
0.0279328
0.0301017
0.0322828
0.0344699
0.0366565
0.0388358
0.041001
0.0431452
0.0452614
0.0473425
0.0493818
0.0513724
0.0533077
0.0551812
0.0569863
0.0587162
0.0603644
0.0619242
0.0633896
0.0647543
0.0660129
0.0671598
0.0681902
0.0690993
0.0698829
0.070537
0.071058
0.0714427
0.0716879
0.0717912
0.0717502
0.0715634
0.0712297
0.0707486
0.0701202
0.0693449
0.0684235
0.0673567
0.0661459
0.0647923
0.0632972
0.0616622
0.0598893
0.0579803
0.0559376
0.0537639
0.0514605
0.0490287
0.0464881
0.0438552
0.040894
0.0374035
0.0270943
0.0233407
0.0201886
0.0174203
0.0147763
0.0122715
0.00992386
0.00773124
0.00569132
0.00380322
0.00206592
0.000478272
-0.000960932
-0.00225302
-0.00339945
-0.00440161
-0.00526087
-0.00597861
-0.0065565
-0.00699642
-0.00730047
-0.00747087
-0.00750967
-0.00741889
-0.00720069
-0.00685745
-0.00639178
-0.00580674
-0.00510542
-0.00429083
-0.00336611
-0.00233448
-0.00119919
3.63127e-05
0.00136803
0.00279178
0.00430341
0.00589866
0.00757304
0.00932199
0.0111409
0.0130251
0.0149692
0.0169678
0.0190155
0.0211067
0.0232356
0.0253959
0.0275817
0.0297868
0.0320049
0.0342299
0.0364552
0.0386738
0.0408788
0.0430634
0.0452205
0.047343
0.0494238
0.0514562
0.0534333
0.0553484
0.0571948
0.0589655
0.0606538
0.0622529
0.0637563
0.0651578
0.0664516
0.0676319
0.0686936
0.0696317
0.0704416
0.071119
0.07166
0.0720608
0.0723181
0.072429
0.0723911
0.0722024
0.0718615
0.0713678
0.0707208
0.0699208
0.068968
0.067863
0.0666069
0.0652005
0.0636452
0.0619423
0.0600935
0.0581008
0.0559666
0.0536935
0.0512828
0.048736
0.0460734
0.0433127
0.0402062
0.0365437
0.0274284
0.0235075
0.0202159
0.0173267
0.0145686
0.0119574
0.00951161
0.00722896
0.00510699
0.00314459
0.00134055
-0.000306592
-0.00179845
-0.00313674
-0.00432317
-0.00535935
-0.00624693
-0.00698772
-0.00758383
-0.00803756
-0.00835132
-0.00852748
-0.00856826
-0.00847593
-0.00825302
-0.00790227
-0.00742658
-0.00682919
-0.0061133
-0.00528196
-0.00433838
-0.00328597
-0.00212811
-0.000868488
0.00048875
0.00193934
0.00347914
0.00510392
0.00680917
0.00859026
0.0104426
0.0123612
0.0143409
0.0163761
0.0184614
0.0205912
0.0227597
0.0249608
0.0271882
0.0294359
0.0316976
0.033967
0.0362374
0.0385018
0.0407534
0.0429851
0.0451897
0.0473602
0.0494893
0.05157
0.0535955
0.0555587
0.0574527
0.0592705
0.061005
0.0626493
0.0641966
0.0656406
0.0669751
0.0681942
0.0692923
0.0702642
0.071105
0.07181
0.0723748
0.0727955
0.0730683
0.07319
0.0731578
0.0729697
0.0726238
0.0721192
0.0714551
0.0706313
0.0696479
0.0685052
0.0672039
0.0657447
0.0641288
0.0623574
0.0604321
0.058355
0.0561283
0.0537547
0.0512356
0.0485725
0.0457868
0.042897
0.0396441
0.035808
0.0275964
0.0235079
0.0200767
0.0170663
0.014194
0.0114761
0.00893176
0.00655885
0.00435468
0.00231792
0.000447077
-0.00125963
-0.00280416
-0.0041885
-0.00541455
-0.00648419
-0.00739943
-0.00816254
-0.00877605
-0.00924257
-0.00956468
-0.00974491
-0.00978578
-0.0096899
-0.00946019
-0.00909968
-0.00861149
-0.00799897
-0.0072654
-0.00641392
-0.00544791
-0.00437097
-0.00318672
-0.00189901
-0.000512092
0.000969753
0.00254241
0.00420161
0.00594277
0.00776119
0.00965215
0.0116107
0.0136315
0.015709
0.0178378
0.0200122
0.0222265
0.0244745
0.0267499
0.0290466
0.0313584
0.0336787
0.0360008
0.0383177
0.0406225
0.042908
0.045167
0.0473923
0.0495764
0.0517123
0.0537927
0.0558106
0.0577589
0.0596302
0.0614172
0.0631129
0.0647103
0.0662026
0.0675836
0.068847
0.069987
0.0709979
0.0718744
0.0726116
0.0732046
0.0736491
0.0739411
0.074077
0.0740539
0.0738691
0.0735207
0.0730072
0.0723278
0.0714818
0.070469
0.0692894
0.0679434
0.0664316
0.064755
0.0629147
0.0609125
0.0587501
0.0564299
0.0539548
0.0513261
0.0485454
0.0456351
0.0426148
0.0392137
0.0352021
0.0275904
0.0233339
0.0197626
0.0166306
0.0136437
0.0108187
0.00817567
0.00571241
0.00342601
0.0013149
-0.000622711
-0.00238891
-0.00398589
-0.00541581
-0.00668082
-0.00778314
-0.00872524
-0.00950977
-0.0101396
-0.0106175
-0.0109462
-0.0111286
-0.0111675
-0.011066
-0.0108272
-0.0104544
-0.00995098
-0.00932023
-0.00856563
-0.00769047
-0.00669833
-0.00559308
-0.00437854
-0.00305866
-0.00163772
-0.000120025
0.00149028
0.00318888
0.00497106
0.00683203
0.00876697
0.0107709
0.0128384
0.014964
0.0171421
0.0193672
0.0216335
0.0239347
0.0262646
0.0286167
0.030985
0.0333628
0.0357433
0.0381195
0.0404842
0.0428303
0.0451506
0.0474375
0.0496835
0.0518813
0.0540235
0.0561029
0.058112
0.0600434
0.0618896
0.0636432
0.0652969
0.0668439
0.0682774
0.069591
0.0707785
0.0718338
0.0727513
0.0735256
0.0741514
0.0746242
0.0749395
0.0750935
0.0750829
0.0749046
0.0745566
0.0740369
0.0733443
0.0724778
0.071437
0.0702216
0.0688317
0.0672678
0.0655307
0.0636215
0.0615418
0.0592935
0.0568791
0.0543014
0.0515617
0.0486619