/*--------------------------------*- C++ -*----------------------------------*\
  =========                 |
  \\      /  F ield         | OpenFOAM: The Open Source CFD Toolbox
   \\    /   O peration     | Website:  https://openfoam.org
    \\  /    A nd           | Version:  11
     \\/     M anipulation  |
\*---------------------------------------------------------------------------*/
FoamFile
{
    format      ascii;
    class       surfaceScalarField;
    location    "7";
    object      phi;
}
// * * * * * * * * * * * * * * * * * * * * * * * * * * * * * * * * * * * * * //

dimensions      [0 3 -1 0 0 0 0];

internalField   nonuniform List<scalar> 
19980
(
6.91339e-07
-6.90338e-07
2.40437e-06
-1.71311e-06
4.28282e-06
-1.87853e-06
5.76693e-06
-1.4841e-06
6.52125e-06
-7.54233e-07
6.36474e-06
1.56548e-07
5.20745e-06
1.1572e-06
3.01822e-06
2.18913e-06
-1.98856e-07
3.21708e-06
-4.41526e-06
4.21662e-06
-9.58833e-06
5.17289e-06
-1.56645e-05
6.07633e-06
-2.2585e-05
6.92061e-06
-3.02861e-05
7.70114e-06
-3.87015e-05
8.41535e-06
-4.77636e-05
9.06209e-06
-5.74043e-05
9.64074e-06
-6.75558e-05
1.01514e-05
-7.81505e-05
1.05947e-05
-8.91219e-05
1.09715e-05
-0.000100405
1.12829e-05
-0.000111935
1.15305e-05
-0.000123651
1.17158e-05
-0.000135491
1.18405e-05
-0.000147398
1.19063e-05
-0.000159313
1.19155e-05
-0.000171184
1.18701e-05
-0.000182956
1.17722e-05
-0.00019458
1.16236e-05
-0.000206006
1.14263e-05
-0.000217188
1.11823e-05
-0.000228082
1.08936e-05
-0.000238644
1.05622e-05
-0.000248834
1.01899e-05
-0.000258613
9.77897e-06
-0.000267944
9.33148e-06
-0.000276794
8.84973e-06
-0.00028513
8.33602e-06
-0.000292922
7.7924e-06
-0.000300143
7.22089e-06
-0.000306767
6.62367e-06
-0.00031277
6.00298e-06
-0.000318131
5.361e-06
-0.00032283
4.69967e-06
-0.000326851
4.02098e-06
-0.000330179
3.32723e-06
-0.000332799
2.62087e-06
-0.000334704
1.90439e-06
-0.000335884
1.1802e-06
-0.000336334
4.50515e-07
-0.000336052
-2.82377e-07
-0.000335036
-1.01613e-06
-0.000333288
-1.74831e-06
-0.000330811
-2.47628e-06
-0.000327614
-3.19742e-06
-0.000323705
-3.90925e-06
-0.000319095
-4.60926e-06
-0.0003138
-5.29491e-06
-0.000307837
-5.9635e-06
-0.000301225
-6.61221e-06
-0.000293986
-7.23827e-06
-0.000286147
-7.8391e-06
-0.000277735
-8.41204e-06
-0.000268781
-8.95437e-06
-0.000259318
-9.46343e-06
-0.000249381
-9.93647e-06
-0.00023901
-1.03707e-05
-0.000228247
-1.07635e-05
-0.000217135
-1.11122e-05
-0.000205721
-1.14143e-05
-0.000194053
-1.16674e-05
-0.000182184
-1.18694e-05
-0.000170166
-1.2018e-05
-0.000158055
-1.2111e-05
-0.000145909
-1.21462e-05
-0.000133787
-1.21217e-05
-0.000121752
-1.20353e-05
-0.000109866
-1.18854e-05
-9.81955e-05
-1.16707e-05
-8.68057e-05
-1.13898e-05
-7.57637e-05
-1.1042e-05
-6.51372e-05
-1.06264e-05
-5.49944e-05
-1.01428e-05
-4.54032e-05
-9.59115e-06
-3.64313e-05
-8.97199e-06
-2.81448e-05
-8.28644e-06
-2.06083e-05
-7.53644e-06
-1.38836e-05
-6.72471e-06
-8.02864e-06
-5.8551e-06
-3.09559e-06
-4.9331e-06
8.71115e-07
-3.96669e-06
3.83843e-06
-2.96735e-06
5.78977e-06
-1.95144e-06
6.73279e-06
-9.4304e-07
6.71144e-06
2.13938e-08
5.82603e-06
8.85448e-07
4.2648e-06
1.56119e-06
2.3574e-06
1.90733e-06
6.67959e-07
1.68945e-06
6.67922e-07
1.62963e-06
-2.3199e-06
4.54001e-06
-4.6234e-06
7.3653e-06
-4.7038e-06
9.07997e-06
-3.19887e-06
8.98524e-06
-6.59778e-07
6.63437e-06
2.5074e-06
1.76885e-06
6.02288e-06
-5.73626e-06
9.69412e-06
-1.59094e-05
1.33903e-05
-2.87137e-05
1.70208e-05
-4.40643e-05
2.05234e-05
-6.18433e-05
2.38552e-05
-8.19094e-05
2.69865e-05
-0.000104105
2.98965e-05
-0.000128261
3.25715e-05
-0.000154202
3.5003e-05
-0.000181747
3.71858e-05
-0.000210713
3.91182e-05
-0.000240919
4.08002e-05
-0.000272181
4.22337e-05
-0.00030432
4.34218e-05
-0.000337159
4.43691e-05
-0.000370524
4.50804e-05
-0.000404244
4.55614e-05
-0.000438156
4.58185e-05
-0.000472099
4.58583e-05
-0.000505917
4.56883e-05
-0.000539461
4.53159e-05
-0.000572585
4.47481e-05
-0.000605151
4.39923e-05
-0.000637025
4.30564e-05
-0.000668079
4.19479e-05
-0.000698192
4.06745e-05
-0.000727246
3.92439e-05
-0.000755131
3.76642e-05
-0.000781744
3.59435e-05
-0.000806984
3.40902e-05
-0.000830761
3.21125e-05
-0.000852987
3.00187e-05
-0.000873583
2.7817e-05
-0.000892475
2.55157e-05
-0.000909595
2.31233e-05
-0.000924882
2.0648e-05
-0.00093828
1.8098e-05
-0.000949741
1.54818e-05
-0.000959222
1.2808e-05
-0.000966687
1.00858e-05
-0.000972107
7.32424e-06
-0.000975459
4.53249e-06
-0.000976728
1.7197e-06
-0.000975906
-1.10503e-06
-0.000972989
-3.93243e-06
-0.000967985
-6.75301e-06
-0.000960904
-9.55708e-06
-0.000951766
-1.23347e-05
-0.0009406
-1.5076e-05
-0.000927438
-1.77711e-05
-0.000912323
-2.04097e-05
-0.000895305
-2.29815e-05
-0.000876441
-2.54764e-05
-0.000855795
-2.78839e-05
-0.000833441
-3.01936e-05
-0.000809458
-3.23953e-05
-0.000783933
-3.44785e-05
-0.000756964
-3.64328e-05
-0.000728653
-3.82477e-05
-0.00069911
-3.99132e-05
-0.000668455
-4.14192e-05
-0.000636811
-4.27558e-05
-0.000604311
-4.39137e-05
-0.000571095
-4.48837e-05
-0.000537308
-4.56568e-05
-0.000503101
-4.62246e-05
-0.000468633
-4.65792e-05
-0.000434066
-4.67126e-05
-0.00039957
-4.66177e-05
-0.000365318
-4.62878e-05
-0.000331486
-4.57172e-05
-0.000298256
-4.4901e-05
-0.00026581
-4.38351e-05
-0.000234335
-4.25169e-05
-0.000204017
-4.09447e-05
-0.000175042
-3.91183e-05
-0.000147594
-3.70393e-05
-0.000121854
-3.47115e-05
-9.79994e-05
-3.2141e-05
-7.61986e-05
-2.93373e-05
-5.66097e-05
-2.63136e-05
-3.93768e-05
-2.3088e-05
-2.46241e-05
-1.96857e-05
-1.24495e-05
-1.61413e-05
-2.91472e-06
-1.25022e-05
3.96829e-06
-8.8345e-06
8.25565e-06
-5.23042e-06
1.00978e-05
-1.8208e-06
9.77604e-06
1.2071e-06
7.75223e-06
3.5851e-06
4.72704e-06
4.93271e-06
1.69127e-06
4.72531e-06
2.35914e-06
1.79195e-06
-4.1119e-06
4.53385e-06
-7.36534e-06
6.59236e-06
-6.76246e-06
6.75143e-06
-3.35782e-06
4.13451e-06
1.95723e-06
-1.85445e-06
8.49633e-06
-1.15852e-05
1.57536e-05
-2.52569e-05
2.33657e-05
-4.29355e-05
3.10692e-05
-6.45914e-05
3.86767e-05
-9.01198e-05
4.60519e-05
-0.000119362
5.30976e-05
-0.00015212
5.97442e-05
-0.000188165
6.59416e-05
-0.000227249
7.16555e-05
-0.000269109
7.68625e-05
-0.000313471
8.15481e-05
-0.000360057
8.57043e-05
-0.000408585
8.93286e-05
-0.000458774
9.24223e-05
-0.000510342
9.49904e-05
-0.000563013
9.70401e-05
-0.000616514
9.85809e-05
-0.000670577
9.96239e-05
-0.00072494
0.000100181
-0.000779349
0.000100267
-0.000833557
9.98964e-05
-0.000887325
9.90834e-05
-0.000940421
9.78439e-05
-0.000992623
9.61941e-05
-0.00104372
9.41502e-05
-0.0010935
9.17287e-05
-0.00114177
8.89464e-05
-0.00118835
8.58203e-05
-0.00123305
8.2368e-05
-0.00127571
7.8607e-05
-0.00131618
7.45552e-05
-0.0013543
7.02306e-05
-0.00138993
6.56511e-05
-0.00142295
6.08348e-05
-0.00145323
5.58e-05
-0.00148067
5.05651e-05
-0.00150517
4.51484e-05
-0.00152664
3.95683e-05
-0.001545
3.38438e-05
-0.00156019
2.79939e-05
-0.00157214
2.20381e-05
-0.00158081
1.59962e-05
-0.00158617
9.88829e-06
-0.00158818
3.73448e-06
-0.00158684
-2.44503e-06
-0.00158215
-8.62968e-06
-0.0015741
-1.47985e-05
-0.00156273
-2.09303e-05
-0.00154806
-2.70037e-05
-0.00153014
-3.29967e-05
-0.00150902
-3.88877e-05
-0.00148478
-4.46542e-05
-0.00145749
-5.0274e-05
-0.00142724
-5.57244e-05
-0.00139414
-6.09829e-05
-0.00135831
-6.6027e-05
-0.00131987
-7.08339e-05
-0.00127896
-7.53811e-05
-0.00123575
-7.9646e-05
-0.00119039
-8.36062e-05
-0.00114307
-8.72395e-05
-0.00109396
-9.05246e-05
-0.00104328
-9.34401e-05
-0.000991225
-9.59656e-05
-0.000938027
-9.80813e-05
-0.000883916
-9.97681e-05
-0.000829132
-0.000101008
-0.000773928
-0.000101783
-0.000718562
-0.000102079
-0.000663301
-0.000101879
-0.000608419
-0.00010117
-0.000554195
-9.9941e-05
-0.000500914
-9.81824e-05
-0.000448862
-9.58866e-05
-0.00039833
-9.30489e-05
-0.000349608
-8.96673e-05
-0.000302982
-8.57435e-05
-0.000258739
-8.12831e-05
-0.000217154
-7.62963e-05
-0.000178495
-7.07996e-05
-0.000143016
-6.48163e-05
-0.000110951
-5.83789e-05
-8.25081e-05
-5.1531e-05
-5.78625e-05
-4.43313e-05
-3.7145e-05
-3.68587e-05
-2.04282e-05
-2.92189e-05
-7.70885e-06
-2.15539e-05
1.11647e-06
-1.40557e-05
6.28124e-06
-6.98554e-06
8.1878e-06
-6.99485e-07
7.45445e-06
4.31847e-06
4.96483e-06
7.4223e-06
1.91882e-06
7.77123e-06
4.27801e-06
1.39719e-06
-5.5091e-06
3.03414e-06
-9.00243e-06
3.18226e-06
-6.91033e-06
5.57711e-07
-7.33588e-07
-5.78187e-06
8.29667e-06
-1.64961e-05
1.92106e-05
-3.20137e-05
3.1271e-05
-5.25736e-05
4.39255e-05
-7.82682e-05
5.67637e-05
-0.000109071
6.94798e-05
-0.000144866
8.18466e-05
-0.000185465
9.36963e-05
-0.000230626
0.000104905
-0.000280067
0.000115383
-0.000333475
0.000125064
-0.000390516
0.000133904
-0.00045084
0.000141872
-0.000514086
0.00014895
-0.000579888
0.000155131
-0.000647878
0.000160412
-0.000717686
0.000164799
-0.000788948
0.000168302
-0.000861302
0.000170935
-0.000934392
0.000172714
-0.00100787
0.00017366
-0.0010814
0.000173795
-0.00115464
0.000173142
-0.00122729
0.000171726
-0.00129902
0.000169573
-0.00136953
0.000166711
-0.00143855
0.000163167
-0.00150579
0.00015897
-0.00157099
0.000154147
-0.0016339
0.00014873
-0.00169428
0.000142746
-0.0017519
0.000136228
-0.00180655
0.000129206
-0.00185803
0.000121709
-0.00190615
0.00011377
-0.00195074
0.000105421
-0.00199163
9.66916e-05
-0.00202868
8.76151e-05
-0.00206175
7.82232e-05
-0.00209073
6.85482e-05
-0.00211551
5.86232e-05
-0.002136
4.84812e-05
-0.00215212
3.81562e-05
-0.0021638
2.76825e-05
-0.00217101
1.70947e-05
-0.0021737
6.42768e-06
-0.00217186
-4.28306e-06
-0.00216549
-1.50018e-05
-0.0021546
-2.56921e-05
-0.00213921
-3.63169e-05
-0.00211938
-4.68391e-05
-0.00209515
-5.72212e-05
-0.00206661
-6.74249e-05
-0.00203386
-7.74119e-05
-0.00199699
-8.71434e-05
-0.00195613
-9.65805e-05
-0.00191143
-0.000105684
-0.00186304
-0.000114415
-0.00181114
-0.000122734
-0.00175592
-0.000130603
-0.00169758
-0.000137983
-0.00163635
-0.000144834
-0.00157247
-0.000151121
-0.00150619
-0.000156804
-0.00143778
-0.000161849
-0.00136753
-0.000166221
-0.00129573
-0.000169884
-0.00122269
-0.000172808
-0.00114873
-0.000174961
-0.0010742
-0.000176314
-0.000999441
-0.000176841
-0.000924803
-0.000176516
-0.000850653
-0.000175319
-0.000777363
-0.000173231
-0.000705308
-0.000170237
-0.00063487
-0.000166325
-0.000566428
-0.000161491
-0.000500364
-0.000155732
-0.000437053
-0.000149054
-0.000376866
-0.00014147
-0.000320161
-0.000133001
-0.000267283
-0.000123678
-0.000218552
-0.000113547
-0.000174264
-0.000102666
-0.000134679
-9.11164e-05
-0.000100008
-7.90017e-05
-7.0407e-05
-6.64603e-05
-4.59536e-05
-5.36723e-05
-2.66329e-05
-4.08746e-05
-1.23102e-05
-2.83784e-05
-2.70197e-06
-1.65937e-05
2.65911e-06
-6.06054e-06
4.46566e-06
2.51195e-06
3.67973e-06
8.20815e-06
1.59219e-06
9.85872e-06
5.87025e-06
7.03431e-07
-6.21234e-06
5.76154e-07
-8.87549e-06
-2.01961e-06
-4.31443e-06
-8.33341e-06
5.58007e-06
-1.92985e-05
1.92618e-05
-3.55804e-05
3.54924e-05
-5.76191e-05
5.33098e-05
-8.56674e-05
7.19737e-05
-0.000119822
9.09187e-05
-0.000160055
0.000109712
-0.000206234
0.000128025
-0.000258147
0.000145609
-0.000315516
0.000162275
-0.000378016
0.000177882
-0.000445279
0.000192328
-0.000516913
0.000205538
-0.000592503
0.000217461
-0.000671617
0.000228064
-0.000753817
0.000237331
-0.000838658
0.000245254
-0.000925696
0.000251837
-0.00101449
0.000257092
-0.00110459
0.000261036
-0.00119557
0.000263694
-0.001287
0.000265092
-0.00137846
0.000265262
-0.00146956
0.000264237
-0.00155989
0.000262056
-0.00164907
0.000258755
-0.00173674
0.000254375
-0.00182253
0.000248958
-0.0019061
0.000242545
-0.00198714
0.000235181
-0.00206532
0.00022691
-0.00214035
0.000217777
-0.00221195
0.000207829
-0.00227985
0.00019711
-0.00234381
0.000185669
-0.00240359
0.000173552
-0.00245898
0.000160809
-0.00250978
0.000147486
-0.00255579
0.000133633
-0.00259687
0.000119299
-0.00263285
0.000104533
-0.00266362
8.93862e-05
-0.00268905
7.39092e-05
-0.00270904
5.81536e-05
-0.00272353
4.21719e-05
-0.00273245
2.60169e-05
-0.00273577
9.74211e-06
-0.00273345
-6.59839e-06
-0.00272551
-2.29496e-05
-0.00271194
-3.9256e-05
-0.0026928
-5.54613e-05
-0.00266813
-7.15085e-05
-0.00263801
-8.73402e-05
-0.00260254
-0.000102899
-0.00256182
-0.000118125
-0.00251601
-0.00013296
-0.00246524
-0.000147345
-0.0024097
-0.000161221
-0.00234959
-0.000174527
-0.00228512
-0.000187205
-0.00221653
-0.000199196
-0.00214407
-0.000210441
-0.00206802
-0.000220882
-0.00198868
-0.000230462
-0.00190636
-0.000239126
-0.00182139
-0.000246818
-0.00173413
-0.000253486
-0.00164493
-0.000259079
-0.00155419
-0.000263549
-0.0014623
-0.00026685
-0.00136968
-0.00026894
-0.00127674
-0.000269777
-0.00118393
-0.000269328
-0.00109169
-0.000267561
-0.00100047
-0.00026445
-0.00091073
-0.000259973
-0.000822937
-0.000254118
-0.000737551
-0.000246877
-0.00065503
-0.000238252
-0.00057583
-0.000228255
-0.000500392
-0.000216908
-0.000429145
-0.000204247
-0.000362498
-0.000190326
-0.000300831
-0.000175214
-0.00024449
-0.000159008
-0.000193773
-0.000141832
-0.000148927
-0.000123848
-0.000110126
-0.000105262
-7.74566e-05
-8.63414e-05
-5.09022e-05
-6.7429e-05
-3.03157e-05
-4.89651e-05
-1.53945e-05
-3.15149e-05
-5.65058e-06
-1.58045e-05
-3.75708e-07
-2.76289e-06
1.39696e-06
6.43543e-06
9.4653e-07
1.03091e-05
6.81676e-06
-1.58452e-07
-6.05386e-06
-2.47522e-06
-6.5587e-06
-8.39304e-06
1.60337e-06
-1.90498e-05
1.6237e-05
-3.53106e-05
3.55223e-05
-5.78003e-05
5.79823e-05
-8.6936e-05
8.24453e-05
-0.000122955
0.000107993
-0.000165942
0.000133906
-0.000215854
0.000159624
-0.000272539
0.000184711
-0.00033576
0.000208829
-0.000405206
0.000231721
-0.000480511
0.000253187
-0.000561264
0.000273081
-0.00064702
0.000291294
-0.000737307
0.000307748
-0.000831635
0.000322392
-0.000929501
0.000335197
-0.00103039
0.000346147
-0.0011338
0.000355244
-0.00123921
0.0003625
-0.00134611
0.000367935
-0.00145399
0.000371578
-0.00156237
0.000373467
-0.00167075
0.000373641
-0.00177866
0.000372145
-0.00188563
0.000369031
-0.00199122
0.000364349
-0.002095
0.000358154
-0.00219655
0.000350504
-0.00229546
0.000341458
-0.00239136
0.000331075
-0.00248386
0.000319419
-0.00257264
0.000306551
-0.00265734
0.000292536
-0.00273767
0.000277438
-0.00281333
0.000261324
-0.00288404
0.000244261
-0.00294954
0.000226314
-0.00300961
0.000207553
-0.00306402
0.000188046
-0.00311259
0.000167862
-0.00315512
0.000147072
-0.00319148
0.000125746
-0.00322153
0.000103957
-0.00324515
8.17763e-05
-0.00326226
5.92786e-05
-0.00327278
3.65384e-05
-0.00327667
1.36309e-05
-0.0032739
-9.36752e-06
-0.00326447
-3.23794e-05
-0.0032484
-5.53263e-05
-0.00322573
-7.81292e-05
-0.00319654
-0.000100708
-0.00316089
-0.000122982
-0.00311892
-0.000144869
-0.00307076
-0.000166288
-0.00301656
-0.000187156
-0.00295652
-0.000207389
-0.00289084
-0.000226904
-0.00281975
-0.000245618
-0.0027435
-0.000263448
-0.00266239
-0.000280312
-0.0025767
-0.000296128
-0.00248677
-0.000310815
-0.00239294
-0.000324293
-0.00229558
-0.000336485
-0.00219508
-0.000347315
-0.00209186
-0.00035671
-0.00198634
-0.000364599
-0.00187897
-0.000370917
-0.00177022
-0.0003756
-0.00166057
-0.000378588
-0.00155052
-0.00037983
-0.00144057
-0.000379276
-0.00133125
-0.000376886
-0.00122307
-0.000372624
-0.00111658
-0.000366465
-0.0010123
-0.000358393
-0.000910781
-0.0003484
-0.00081254
-0.000336494
-0.0007181
-0.000322694
-0.000627972
-0.000307036
-0.000542644
-0.000289576
-0.000462578
-0.000270391
-0.000388207
-0.000249585
-0.00031992
-0.000227296
-0.000258054
-0.000203699
-0.000202883
-0.000179019
-0.000154603
-0.000153541
-0.000113319
-0.000127626
-7.90214e-05
-0.000101727
-5.15711e-05
-7.64155e-05
-3.06737e-05
-5.24124e-05
-1.58561e-05
-3.0622e-05
-6.43948e-06
-1.21796e-05
-1.5096e-06
1.50548e-06
1.21631e-07
8.67777e-06
6.93835e-06
-1.10708e-06
-4.9468e-06
-5.87186e-06
-1.7938e-06
-1.54925e-05
1.12239e-05
-3.09429e-05
3.16874e-05
-5.29786e-05
5.7558e-05
-8.21488e-05
8.71524e-05
-0.000118818
0.000119114
-0.000163184
0.00015236
-0.000215303
0.000186025
-0.000275103
0.000219424
-0.000342406
0.000252014
-0.000416945
0.000283368
-0.000498376
0.000313152
-0.000586296
0.000341107
-0.000680252
0.000367037
-0.000779753
0.000390794
-0.000884276
0.000412271
-0.000993279
0.000431395
-0.0011062
0.00044812
-0.00122248
0.000462422
-0.00134153
0.000474296
-0.00146278
0.000483753
-0.00158567
0.000490817
-0.00170961
0.000495523
-0.00183406
0.000497914
-0.00195846
0.000498041
-0.00208227
0.000495962
-0.00220498
0.000491741
-0.00232608
0.000485444
-0.00244507
0.000477143
-0.00256147
0.000466911
-0.00267484
0.000454827
-0.00278474
0.000440969
-0.00289074
0.000425419
-0.00299245
0.000408259
-0.00308948
0.000389575
-0.0031815
0.000369452
-0.00326815
0.000347977
-0.00334913
0.00032524
-0.00342414
0.000301328
-0.00349292
0.000276333
-0.00355522
0.000250346
-0.00361082
0.000223458
-0.00365951
0.000195765
-0.00370113
0.00016736
-0.00373551
0.00013834
-0.00376253
0.0001088
-0.0037821
7.88405e-05
-0.00379412
4.8559e-05
-0.00379854
1.80566e-05
-0.00379535
-1.25647e-05
-0.00378452
-4.3202e-05
-0.0037661
-7.3751e-05
-0.00374012
-0.000104106
-0.00370667
-0.000134162
-0.00366584
-0.000163809
-0.00361777
-0.000192941
-0.00356261
-0.000221447
-0.00350055
-0.000249219
-0.00343179
-0.000276145
-0.00335658
-0.000302117
-0.00327517
-0.000327022
-0.00318787
-0.000350752
-0.00309498
-0.000373197
-0.00299686
-0.00039425
-0.00289387
-0.000413804
-0.00278641
-0.000431753
-0.0026749
-0.000447997
-0.00255978
-0.000462434
-0.00244152
-0.000474971
-0.00232061
-0.000485513
-0.00219755
-0.000493975
-0.00207287
-0.000500274
-0.00194713
-0.000504334
-0.00182087
-0.000506086
-0.00169468
-0.000505469
-0.00156914
-0.00050243
-0.00144483
-0.000496928
-0.00132237
-0.00048893
-0.00120234
-0.000478418
-0.00108535
-0.000465388
-0.000971997
-0.000449851
-0.000862852
-0.000431839
-0.000758484
-0.000411404
-0.000659436
-0.000388624
-0.000566223
-0.000363604
-0.000479319
-0.000336489
-0.000399156
-0.000307459
-0.000326106
-0.000276749
-0.000260474
-0.000244651
-0.000202484
-0.000211532
-0.000152262
-0.000177848
-0.000109823
-0.000144166
-7.50514e-05
-0.000111187
-4.76856e-05
-7.97781e-05
-2.72962e-05
-5.10113e-05
-1.32688e-05
-2.62071e-05
-4.78417e-06
-6.97916e-06
-7.97926e-07
4.69136e-06
6.14045e-06
-2.09454e-06
-2.85234e-06
-9.45033e-06
5.56196e-06
-2.30051e-05
2.47785e-05
-4.35439e-05
5.22262e-05
-7.16818e-05
8.56958e-05
-0.000107866
0.000123337
-0.000152386
0.000163634
-0.000205381
0.000205355
-0.000266861
0.000247505
-0.000336716
0.000289278
-0.00041473
0.000330028
-0.000500602
0.00036924
-0.000593952
0.000406502
-0.00069434
0.000441495
-0.000801273
0.00047397
-0.000914215
0.000503737
-0.0010326
0.000530656
-0.00115584
0.000554631
-0.00128331
0.000575596
-0.00141441
0.000593516
-0.00154849
0.00060838
-0.00168493
0.000620197
-0.00182311
0.000628991
-0.00196239
0.000634802
-0.00210216
0.000637682
-0.00224181
0.000637693
-0.00238075
0.000634905
-0.00251841
0.000629395
-0.00265421
0.000621247
-0.00278761
0.000610549
-0.0029181
0.000597394
-0.00304515
0.00058188
-0.00316829
0.000564105
-0.00328704
0.000544174
-0.00340097
0.000522191
-0.00350966
0.000498262
-0.00361271
0.000472499
-0.00370974
0.00044501
-0.00380041
0.00041591
-0.00388439
0.000385311
-0.00396139
0.000353329
-0.00403112
0.000320081
-0.00409335
0.000285684
-0.00414784
0.00025026
-0.00419441
0.000213927
-0.00423288
0.00017681
-0.00426311
0.000139031
-0.00428499
0.000100717
-0.00429842
6.19941e-05
-0.00430336
2.29911e-05
-0.00429976
-1.61619e-05
-0.00428763
-5.53331e-05
-0.00426699
-9.43893e-05
-0.0042379
-0.000133196
-0.00420044
-0.000171617
-0.00415474
-0.000209516
-0.00410092
-0.000246754
-0.00403918
-0.000283193
-0.00396971
-0.000318691
-0.00389274
-0.00035311
-0.00380855
-0.000386308
-0.00371743
-0.000418145
-0.0036197
-0.000448483
-0.00351571
-0.000477182
-0.00340586
-0.000504106
-0.00329054
-0.000529118
-0.00317021
-0.000552088
-0.00304532
-0.000572885
-0.00291637
-0.000591384
-0.00278388
-0.000607464
-0.00264838
-0.000621009
-0.00251045
-0.00063191
-0.00237066
-0.000640064
-0.00222961
-0.000645376
-0.00208794
-0.000647762
-0.00194626
-0.000647146
-0.00180523
-0.000643463
-0.00166549
-0.000636664
-0.00152771
-0.000626711
-0.00139254
-0.000613584
-0.00126065
-0.000597283
-0.00113267
-0.000577827
-0.00100925
-0.000555259
-0.000891008
-0.00052965
-0.000778528
-0.000501104
-0.000672374
-0.000469759
-0.000573065
-0.000435798
-0.00048107
-0.000399454
-0.0003968
-0.000361019
-0.000320592
-0.000320858
-0.000252704
-0.00027942
-0.000193293
-0.000237258
-0.000142411
-0.000195048
-9.99822e-05
-0.000153615
-6.57964e-05
-0.000113964
-3.94912e-05
-7.73166e-05
-2.05427e-05
-4.51557e-05
-8.25597e-06
-1.92658e-05
-1.76027e-06
-1.80444e-06
4.38025e-06
-3.09023e-06
2.37944e-07
-1.31029e-05
1.55747e-05
-3.07191e-05
4.23948e-05
-5.65206e-05
7.80276e-05
-9.09675e-05
0.000120143
-0.000134388
0.000166757
-0.000186977
0.000216222
-0.000248801
0.00026718
-0.000319809
0.000318513
-0.000399841
0.000369309
-0.000488636
0.000418824
-0.000585853
0.000466456
-0.000691072
0.000511721
-0.000803812
0.000554236
-0.00092354
0.000593698
-0.00104968
0.000629876
-0.00118162
0.000662597
-0.00131872
0.000691734
-0.00146033
0.000717206
-0.00160578
0.000738963
-0.00175439
0.000756985
-0.00190547
0.000771278
-0.00205834
0.000781868
-0.00221234
0.000788799
-0.00236679
0.000792131
-0.00252103
0.000791937
-0.00267443
0.000788298
-0.00282634
0.000781308
-0.00297616
0.000771068
-0.00312329
0.000757683
-0.00326717
0.000741268
-0.00340723
0.00072194
-0.00354295
0.000699822
-0.00367381
0.000675039
-0.00379934
0.00064772
-0.00391907
0.000617997
-0.00403258
0.000586004
-0.00413945
0.000551879
-0.0042393
0.000515759
-0.00433177
0.000477787
-0.00441655
0.000438104
-0.00449332
0.000396855
-0.00456182
0.000354186
-0.00462181
0.000310245
-0.00467306
0.000265182
-0.0047154
0.000219149
-0.00474867
0.000172299
-0.00477274
0.000124788
-0.00478752
7.67733e-05
-0.00479295
2.84139e-05
-0.00478898
-2.01288e-05
-0.00477562
-6.8692e-05
-0.0047529
-0.000117111
-0.00472088
-0.000165218
-0.00467965
-0.000212847
-0.00462934
-0.000259827
-0.0045701
-0.000305987
-0.00450214
-0.000351156
-0.00442567
-0.000395161
-0.00434095
-0.000437829
-0.00424827
-0.000478986
-0.00414796
-0.000518461
-0.00404036
-0.000556081
-0.00392587
-0.000591675
-0.0038049
-0.000625075
-0.0036779
-0.000656115
-0.00354535
-0.000684633
-0.00340777
-0.000710469
-0.00326568
-0.00073347
-0.00311966
-0.000753489
-0.00297028
-0.000770383
-0.00281817
-0.00078402
-0.00266396
-0.000794275
-0.0025083
-0.000801034
-0.00235187
-0.000804193
-0.00219536
-0.000803662
-0.00203946
-0.000799366
-0.00188487
-0.000791246
-0.00173233
-0.000779259
-0.00158252
-0.000763386
-0.00143618
-0.000743628
-0.00129399
-0.000720015
-0.00115664
-0.000692603
-0.00102481
-0.000661486
-0.000899122
-0.000626791
-0.000780187
-0.000588694
-0.000668567
-0.000547418
-0.00056477
-0.00050325
-0.000469246
-0.000456543
-0.000382371
-0.000407733
-0.00030444
-0.000357351
-0.000235655
-0.000306044
-0.00017611
-0.000254592
-0.000125788
-0.000203937
-8.45435e-05
-0.000155209
-5.20992e-05
-0.000109761
-2.804e-05
-6.92149e-05
-1.18132e-05
-3.54927e-05
-2.7342e-06
-1.08834e-05
1.64605e-06
-4.0783e-06
4.31646e-06
-1.67625e-05
2.82587e-05
-3.84896e-05
6.4122e-05
-6.96412e-05
0.000109179
-0.000110513
0.000161015
-0.000161303
0.000217547
-0.000222098
0.000277018
-0.000292882
0.000337963
-0.00037353
0.000399161
-0.000463821
0.000459601
-0.000563445
0.000518448
-0.00067201
0.000575021
-0.000789053
0.000628764
-0.000914051
0.000679234
-0.00104643
0.000726076
-0.00118557
0.000769015
-0.00133081
0.000807843
-0.00148149
0.000842408
-0.00163689
0.000872605
-0.0017963
0.000898372
-0.00195899
0.000919681
-0.00212424
0.000936531
-0.00229133
0.000948952
-0.00245952
0.00095699
-0.0026281
0.000960714
-0.00279637
0.000960206
-0.00296363
0.000955562
-0.00312922
0.000946891
-0.00329246
0.000934312
-0.00345273
0.00091795
-0.0036094
0.00089794
-0.00376188
0.000874421
-0.0039096
0.000847541
-0.00405201
0.000817449
-0.00418859
0.000784299
-0.00431884
0.000748251
-0.0044423
0.000709465
-0.00455853
0.000668106
-0.00466711
0.000624342
-0.00476767
0.000578341
-0.00485984
0.000530276
-0.00494331
0.000480321
-0.00501777
0.000428653
-0.00508298
0.000375451
-0.00513869
0.000320895
-0.00518471
0.000265169
-0.00522087
0.000208459
-0.00524704
0.000150953
-0.0052631
9.28399e-05
-0.005269
3.4313e-05
-0.0052647
-2.44332e-05
-0.00525019
-8.32018e-05
-0.00522551
-0.000141794
-0.00519072
-0.000200008
-0.00514592
-0.000257642
-0.00509126
-0.000314491
-0.0050269
-0.000370349
-0.00495304
-0.000425008
-0.00486994
-0.000478261
-0.00477787
-0.0005299
-0.00467714
-0.000579716
-0.0045681
-0.000627501
-0.00445114
-0.000673048
-0.00432666
-0.000716153
-0.00419512
-0.000756614
-0.004057
-0.00079423
-0.00391283
-0.000828808
-0.00376314
-0.000860157
-0.00360852
-0.000888094
-0.00344957
-0.000912441
-0.00328692
-0.000933031
-0.00312123
-0.000949704
-0.0029532
-0.000962314
-0.00278351
-0.000970723
-0.00261289
-0.000974812
-0.00244208
-0.000974474
-0.00227182
-0.000969621
-0.00210288
-0.000960186
-0.00193602
-0.000946122
-0.001772
-0.000927408
-0.00161157
-0.000904051
-0.0014555
-0.000876089
-0.00130451
-0.000843595
-0.00115931
-0.000806682
-0.00102059
-0.000765509
-0.000889001
-0.000720285
-0.00076514
-0.000671279
-0.000649562
-0.000618829
-0.000542757
-0.000563348
-0.000445146
-0.000505344
-0.000357068
-0.000445429
-0.000278775
-0.000384337
-0.00021042
-0.000322948
-0.000152048
-0.000262309
-0.000103596
-0.000203661
-6.48817e-05
-0.000148475
-3.5612e-05
-9.84847e-05
-1.53839e-05
-5.57209e-05
-3.70126e-06
-2.2566e-05
-2.05527e-06
-5.04816e-06
9.36445e-06
-2.03855e-05
4.35962e-05
-4.62239e-05
8.99604e-05
-8.27492e-05
0.000145704
-0.000130093
0.000208359
-0.000188315
0.000275769
-0.000257392
0.000346095
-0.000337209
0.00041778
-0.000427562
0.000489515
-0.000528162
0.000560201
-0.000638638
0.000628924
-0.000758544
0.000694927
-0.00088737
0.00075759
-0.00102455
0.00081641
-0.00116945
0.000870982
-0.00132143
0.00092099
-0.00147978
0.000966191
-0.00164377
0.00100641
-0.00181268
0.00104151
-0.00198573
0.00107142
-0.00216216
0.00109611
-0.00234119
0.00111557
-0.00252207
0.00112983
-0.00270401
0.00113893
-0.00288626
0.00114297
-0.00306808
0.00114202
-0.00324872
0.0011362
-0.00342746
0.00112564
-0.00360362
0.00111047
-0.0037765
0.00109083
-0.00394546
0.0010669
-0.00410985
0.00103881
-0.00426907
0.00100676
-0.00442254
0.000970915
-0.00456969
0.000931455
-0.00471001
0.000888568
-0.00484299
0.000842444
-0.00496816
0.000793277
-0.00508508
0.000741266
-0.00519335
0.000686609
-0.00529259
0.000629511
-0.00538244
0.000570177
-0.00546261
0.000508818
-0.0055328
0.000445643
-0.00559277
0.000380869
-0.00564232
0.000314711
-0.00568125
0.000247389
-0.00570942
0.000179127
-0.00572673
0.000110149
-0.0057331
4.06832e-05
-0.00572849
-2.90403e-05
-0.00571291
-9.87883e-05
-0.00568637
-0.000168325
-0.00564897
-0.000237413
-0.0056008
-0.000305813
-0.00554201
-0.000373282
-0.00547278
-0.000439576
-0.00539334
-0.000504452
-0.00530393
-0.000567663
-0.00520487
-0.000628964
-0.00509648
-0.000688108
-0.00497913
-0.000744851
-0.00485323
-0.000798948
-0.00471922
-0.000850159
-0.00457759
-0.000898245
-0.00442885
-0.000942971
-0.00427355
-0.000984109
-0.00411227
-0.00102144
-0.00394563
-0.00105473
-0.00377427
-0.0010838
-0.00359887
-0.00110843
-0.00342013
-0.00112845
-0.00323877
-0.00114367
-0.00305554
-0.00115395
-0.0028712
-0.00115914
-0.00268655
-0.00115913
-0.00250238
-0.0011538
-0.00231948
-0.00114308
-0.00213867
-0.00112693
-0.00196077
-0.00110531
-0.00178657
-0.00107825
-0.00161687
-0.00104579
-0.00145246
-0.00100801
-0.00129408
-0.000965061
-0.00114246
-0.000917122
-0.00099831
-0.00086444
-0.000862263
-0.000807327
-0.000734918
-0.000746173
-0.000616814
-0.000681452
-0.000508419
-0.00061374
-0.000410123
-0.000543724
-0.000322237
-0.000472224
-0.000244976
-0.000400209
-0.000178463
-0.000328822
-0.000122722
-0.000259403
-7.76769e-05
-0.00019352
-4.31608e-05
-0.000133001
-1.89231e-05
-7.99586e-05
-4.65087e-06
-3.68382e-05
-6.70614e-06
-5.9948e-06
1.53593e-05
-2.39471e-05
6.15484e-05
-5.38623e-05
0.000119876
-9.57408e-05
0.000187583
-0.000149554
0.000262172
-0.000215223
0.000341438
-0.000292604
0.000423476
-0.000381483
0.000506659
-0.000481569
0.0005896
-0.000592497
0.000671128
-0.000713829
0.000750256
-0.000845061
0.00082616
-0.000985629
0.000898158
-0.00113491
0.000965694
-0.00129225
0.00102832
-0.00145692
0.00108567
-0.00162821
0.00113747
-0.00180533
0.00118353
-0.0019875
0.00122368
-0.00217393
0.00125785
-0.0023638
0.00128598
-0.00255629
0.00130807
-0.00275061
0.00132414
-0.00294593
0.00133426
-0.00314146
0.0013385
-0.00333641
0.00133697
-0.00353001
0.0013298
-0.00372149
0.00131712
-0.00391012
0.0012991
-0.00409518
0.0012759
-0.00427598
0.00124769
-0.00445185
0.00121468
-0.00462214
0.00117705
-0.00478624
0.00113501
-0.00494356
0.00108877
-0.00509354
0.00103855
-0.00523566
0.000984561
-0.00536941
0.000927032
-0.00549434
0.000866194
-0.00561001
0.000802278
-0.00571602
0.000735521
-0.00581201
0.000666164
-0.00589764
0.000594448
-0.00597261
0.000520622
-0.00603668
0.000444934
-0.00608961
0.000367637
-0.0061312
0.000288987
-0.00616132
0.000209243
-0.00617984
0.000128668
-0.00618668
4.75264e-05
-0.00618181
-3.39133e-05
-0.00616522
-0.00011538
-0.00613694
-0.000196599
-0.00609706
-0.000277294
-0.00604569
-0.000357187
-0.00598298
-0.000435994
-0.00590912
-0.000513435
-0.00582435
-0.000589223
-0.00572894
-0.000663074
-0.0056232
-0.000734701
-0.00550749
-0.00080382
-0.00538219
-0.000870146
-0.00524774
-0.000933395
-0.00510461
-0.000993289
-0.00495331
-0.00104955
-0.00479437
-0.00110191
-0.00462838
-0.0011501
-0.00445596
-0.00119386
-0.00427774
-0.00123295
-0.00409443
-0.00126712
-0.00390671
-0.00129614
-0.00371535
-0.00131981
-0.00352109
-0.00133793
-0.00332473
-0.00135031
-0.00312708
-0.00135679
-0.00292897
-0.00135724
-0.00273122
-0.00135154
-0.0025347
-0.0013396
-0.00234026
-0.00132137
-0.00214874
-0.00129683
-0.00196101
-0.00126599
-0.00177789
-0.0012289
-0.00160022
-0.00118568
-0.0014288
-0.00113649
-0.00126439
-0.00108153
-0.00110775
-0.00102109
-0.000959552
-0.000955521
-0.000820454
-0.000885271
-0.000691039
-0.000810867
-0.000571828
-0.000732951
-0.000463271
-0.000652281
-0.00036574
-0.000569755
-0.000279524
-0.000486425
-0.000204826
-0.000403519
-0.000141766
-0.000322463
-9.0379e-05
-0.000244907