/*--------------------------------*- C++ -*----------------------------------*\
  =========                 |
  \\      /  F ield         | OpenFOAM: The Open Source CFD Toolbox
   \\    /   O peration     | Website:  https://openfoam.org
    \\  /    A nd           | Version:  11
     \\/     M anipulation  |
\*---------------------------------------------------------------------------*/
FoamFile
{
    format      ascii;
    class       volVectorField;
    location    "7";
    object      U;
}
// * * * * * * * * * * * * * * * * * * * * * * * * * * * * * * * * * * * * * //

dimensions      [0 1 -1 0 0 0 0];

internalField   nonuniform List<vector> 
10100
(
(2.66438e-06 -3.26873e-06 0)
(1.47454e-05 -8.08195e-06 0)
(3.35529e-05 -9.11038e-06 0)
(5.15402e-05 -7.86579e-06 0)
(6.32981e-05 -5.35854e-06 0)
(6.65913e-05 -2.22557e-06 0)
(6.01824e-05 1.16275e-06 0)
(4.34981e-05 4.59106e-06 0)
(1.64441e-05 7.94959e-06 0)
(-2.07849e-05 1.11639e-05 0)
(-6.78391e-05 1.41971e-05 0)
(-0.000124204 1.70314e-05 0)
(-0.000189326 1.96532e-05 0)
(-0.000262583 2.20535e-05 0)
(-0.000343317 2.4233e-05 0)
(-0.000430862 2.61951e-05 0)
(-0.000524538 2.79402e-05 0)
(-0.000623659 2.94707e-05 0)
(-0.000727548 3.07925e-05 0)
(-0.000835534 3.19106e-05 0)
(-0.00094696 3.28295e-05 0)
(-0.00106118 3.35558e-05 0)
(-0.00117756 3.4095e-05 0)
(-0.00129548 3.44527e-05 0)
(-0.00141435 3.46349e-05 0)
(-0.0015336 3.46509e-05 0)
(-0.00165266 3.45097e-05 0)
(-0.001771 3.42178e-05 0)
(-0.0018881 3.37794e-05 0)
(-0.00200346 3.31991e-05 0)
(-0.00211662 3.24834e-05 0)
(-0.0022271 3.16387e-05 0)
(-0.00233448 3.0671e-05 0)
(-0.00243834 2.95856e-05 0)
(-0.00253827 2.83877e-05 0)
(-0.00263391 2.7084e-05 0)
(-0.0027249 2.56818e-05 0)
(-0.0028109 2.41889e-05 0)
(-0.00289161 2.26109e-05 0)
(-0.00296674 2.09527e-05 0)
(-0.00303603 1.92201e-05 0)
(-0.00309922 1.74201e-05 0)
(-0.00315609 1.55595e-05 0)
(-0.00320643 1.36439e-05 0)
(-0.00325007 1.16777e-05 0)
(-0.00328685 9.6672e-06 0)
(-0.00331662 7.61928e-06 0)
(-0.00333927 5.54167e-06 0)
(-0.0033547 3.44199e-06 0)
(-0.00336287 1.3269e-06 0)
(-0.00336371 -7.97136e-07 0)
(-0.00335722 -2.92396e-06 0)
(-0.00334339 -5.04723e-06 0)
(-0.00332225 -7.15947e-06 0)
(-0.00329387 -9.25283e-06 0)
(-0.00325831 -1.13199e-05 0)
(-0.00321568 -1.33531e-05 0)
(-0.00316612 -1.53454e-05 0)
(-0.00310978 -1.72892e-05 0)
(-0.00304685 -1.91763e-05 0)
(-0.00297754 -2.09989e-05 0)
(-0.00290209 -2.27493e-05 0)
(-0.00282077 -2.44194e-05 0)
(-0.00273385 -2.60011e-05 0)
(-0.00264168 -2.74867e-05 0)
(-0.00254459 -2.88682e-05 0)
(-0.00244296 -3.01374e-05 0)
(-0.00233718 -3.12865e-05 0)
(-0.0022277 -3.23076e-05 0)
(-0.00211495 -3.31932e-05 0)
(-0.00199942 -3.39359e-05 0)
(-0.00188161 -3.45294e-05 0)
(-0.00176204 -3.4967e-05 0)
(-0.00164126 -3.52421e-05 0)
(-0.00151983 -3.53481e-05 0)
(-0.00139834 -3.52782e-05 0)
(-0.00127741 -3.50254e-05 0)
(-0.00115765 -3.45833e-05 0)
(-0.00103971 -3.3947e-05 0)
(-0.000924253 -3.31121e-05 0)
(-0.000811933 -3.20746e-05 0)
(-0.000703429 -3.0831e-05 0)
(-0.000599421 -2.9379e-05 0)
(-0.000500591 -2.77169e-05 0)
(-0.00040762 -2.58441e-05 0)
(-0.000321176 -2.37614e-05 0)
(-0.000241917 -2.14712e-05 0)
(-0.000170475 -1.89772e-05 0)
(-0.000107455 -1.62853e-05 0)
(-5.34109e-05 -1.34066e-05 0)
(-8.83321e-06 -1.03599e-05 0)
(2.58809e-05 -7.1739e-06 0)
(5.04684e-05 -3.89173e-06 0)
(6.48621e-05 -5.82943e-07 0)
(6.92887e-05 2.6352e-06 0)
(6.44221e-05 5.55964e-06 0)
(5.15986e-05 7.83812e-06 0)
(3.32743e-05 8.84487e-06 0)
(1.43616e-05 7.50927e-06 0)
(2.81071e-06 2.80853e-06 0)
(7.0014e-06 -1.44689e-05 0)
(2.97861e-05 -3.11549e-05 0)
(6.08316e-05 -3.32575e-05 0)
(8.5826e-05 -2.55405e-05 0)
(9.53012e-05 -1.16396e-05 0)
(8.39056e-05 5.77738e-06 0)
(4.82745e-05 2.504e-05 0)
(-1.33884e-05 4.50096e-05 0)
(-0.000101782 6.49959e-05 0)
(-0.000216814 8.44948e-05 0)
(-0.000357821 0.000103208 0)
(-0.000523781 0.000120929 0)
(-0.000713368 0.000137516 0)
(-0.000925066 0.000152876 0)
(-0.00115724 0.000166951 0)
(-0.00140816 0.00017971 0)
(-0.00167603 0.000191137 0)
(-0.00195904 0.000201232 0)
(-0.00225534 0.000210002 0)
(-0.00256313 0.000217463 0)
(-0.00288057 0.000223635 0)
(-0.00320589 0.000228548 0)
(-0.00353733 0.000232232 0)
(-0.00387317 0.000234716 0)
(-0.00421173 0.000236035 0)
(-0.0045514 0.000236231 0)
(-0.00489058 0.000235343 0)
(-0.00522775 0.000233414 0)
(-0.00556144 0.000230478 0)
(-0.00589023 0.000226574 0)
(-0.00621275 0.000221743 0)
(-0.0065277 0.000216025 0)
(-0.00683383 0.000209458 0)
(-0.00712994 0.000202082 0)
(-0.0074149 0.000193939 0)
(-0.00768764 0.000185071 0)
(-0.00794714 0.000175522 0)
(-0.00819245 0.000165336 0)
(-0.00842267 0.000154556 0)
(-0.00863697 0.000143221 0)
(-0.00883459 0.000131376 0)
(-0.00901481 0.000119064 0)
(-0.00917699 0.000106326 0)
(-0.00932054 9.32054e-05 0)
(-0.00944495 7.97426e-05 0)
(-0.00954975 6.59824e-05 0)
(-0.00963456 5.19718e-05 0)
(-0.00969905 3.77585e-05 0)
(-0.00974296 2.33907e-05 0)
(-0.0097661 8.91469e-06 0)
(-0.00976834 -5.62358e-06 0)
(-0.00974964 -2.01773e-05 0)
(-0.00971001 -3.46986e-05 0)
(-0.00964955 -4.91368e-05 0)
(-0.0095684 -6.34404e-05 0)
(-0.0094668 -7.75588e-05 0)
(-0.00934506 -9.14412e-05 0)
(-0.00920357 -0.000105036 0)
(-0.00904277 -0.00011829 0)
(-0.00886321 -0.000131149 0)
(-0.00866549 -0.00014356 0)
(-0.0084503 -0.00015547 0)
(-0.00821841 -0.000166826 0)
(-0.00797064 -0.000177574 0)
(-0.00770793 -0.000187659 0)
(-0.00743126 -0.000197027 0)
(-0.00714171 -0.000205626 0)
(-0.00684042 -0.000213404 0)
(-0.00652861 -0.000220308 0)
(-0.00620756 -0.000226289 0)
(-0.00587862 -0.000231301 0)
(-0.00554324 -0.000235296 0)
(-0.00520288 -0.000238232 0)
(-0.00485911 -0.000240064 0)
(-0.00451353 -0.000240753 0)
(-0.0041678 -0.000240257 0)
(-0.00382363 -0.00023854 0)
(-0.00348277 -0.000235569 0)
(-0.00314701 -0.000231316 0)
(-0.00281818 -0.000225759 0)
(-0.00249812 -0.000218879 0)
(-0.0021887 -0.000210665 0)
(-0.00189177 -0.000201111 0)
(-0.00160921 -0.00019022 0)
(-0.00134284 -0.000178005 0)
(-0.00109445 -0.000164493 0)
(-0.000865776 -0.000149724 0)
(-0.000658463 -0.000133757 0)
(-0.000474032 -0.000116673 0)
(-0.00031384 -9.85906e-05 0)
(-0.000179017 -7.96756e-05 0)
(-7.03869e-05 -6.01648e-05 0)
(1.16434e-05 -4.0395e-05 0)
(6.72415e-05 -2.08539e-05 0)
(9.73733e-05 -2.26159e-06 0)
(0.00010411 1.43e-05 0)
(9.09735e-05 2.71985e-05 0)
(6.35004e-05 3.39658e-05 0)
(3.10239e-05 3.09831e-05 0)
(7.52235e-06 1.4357e-05 0)
(8.2343e-06 -3.25752e-05 0)
(3.16868e-05 -6.13895e-05 0)
(5.86092e-05 -6.04755e-05 0)
(7.25333e-05 -3.80512e-05 0)
(6.20844e-05 -1.27229e-06 0)
(2.0195e-05 4.44692e-05 0)
(-5.77131e-05 9.52973e-05 0)
(-0.000174407 0.000148538 0)
(-0.000331116 0.000202269 0)
(-0.000527956 0.00025519 0)
(-0.000764199 0.00030635 0)
(-0.00103849 0.000355101 0)
(-0.00134901 0.000400995 0)
(-0.00169361 0.000443701 0)
(-0.00206989 0.000483003 0)
(-0.00247527 0.000518763 0)
(-0.00290706 0.000550896 0)
(-0.00336249 0.000579365 0)
(-0.00383876 0.000604164 0)
(-0.00433304 0.000625313 0)
(-0.00484251 0.000642854 0)
(-0.00536439 0.000656847 0)
(-0.00589592 0.000667364 0)
(-0.00643439 0.000674485 0)
(-0.00697716 0.000678297 0)
(-0.00752165 0.000678899 0)
(-0.00806534 0.000676398 0)
(-0.0086058 0.000670898 0)
(-0.00914068 0.000662505 0)
(-0.00966771 0.00065133 0)
(-0.0101847 0.000637487 0)
(-0.0106896 0.000621086 0)
(-0.0111803 0.000602243 0)
(-0.011655 0.000581072 0)
(-0.0121118 0.000557691 0)
(-0.0125491 0.000532222 0)
(-0.0129651 0.000504786 0)
(-0.0133584 0.000475507 0)
(-0.0137274 0.000444505 0)
(-0.014071 0.000411903 0)
(-0.0143878 0.000377823 0)
(-0.0146767 0.000342391 0)
(-0.0149366 0.00030573 0)
(-0.0151667 0.000267965 0)
(-0.015366 0.00022922 0)
(-0.0155339 0.000189623 0)
(-0.0156698 0.000149309 0)
(-0.015773 0.000108411 0)
(-0.0158432 6.70658e-05 0)
(-0.0158801 2.54098e-05 0)
(-0.0158835 -1.64219e-05 0)
(-0.0158533 -5.82918e-05 0)
(-0.0157895 -0.000100059 0)
(-0.0156924 -0.000141579 0)
(-0.0155621 -0.000182707 0)
(-0.015399 -0.000223294 0)
(-0.0152037 -0.000263193 0)
(-0.0149767 -0.000302254 0)
(-0.0147188 -0.000340325 0)
(-0.0144308 -0.000377253 0)
(-0.0141138 -0.000412885 0)
(-0.0137688 -0.000447068 0)
(-0.0133972 -0.000479648 0)
(-0.0130001 -0.000510471 0)
(-0.0125791 -0.000539384 0)
(-0.0121358 -0.000566233 0)
(-0.0116719 -0.000590869 0)
(-0.0111893 -0.000613144 0)
(-0.0106898 -0.000632913 0)
(-0.0101756 -0.000650036 0)
(-0.00964882 -0.000664378 0)
(-0.00911168 -0.000675809 0)
(-0.0085666 -0.000684202 0)
(-0.00801603 -0.000689441 0)
(-0.00746253 -0.000691412 0)
(-0.00690872 -0.000690011 0)
(-0.00635733 -0.000685143 0)
(-0.0058111 -0.000676724 0)
(-0.00527287 -0.000664685 0)
(-0.00474549 -0.00064897 0)
(-0.00423185 -0.000629541 0)
(-0.00373486 -0.000606378 0)
(-0.00325742 -0.000579483 0)
(-0.00280238 -0.000548886 0)
(-0.00237256 -0.000514647 0)
(-0.00197071 -0.000476866 0)
(-0.00159942 -0.00043569 0)
(-0.00126116 -0.000391324 0)
(-0.000958144 -0.000344051 0)
(-0.000692326 -0.000294254 0)
(-0.000465261 -0.000242458 0)
(-0.000278004 -0.000189378 0)
(-0.000130951 -0.000135994 0)
(-2.36353e-05 -8.36612e-05 0)
(4.55493e-05 -3.42644e-05 0)
(7.96913e-05 9.55608e-06 0)
(8.36952e-05 4.41133e-05 0)
(6.47488e-05 6.43453e-05 0)
(3.41925e-05 6.35153e-05 0)
(8.89635e-06 3.33174e-05 0)
(7.09765e-06 -4.92772e-05 0)
(2.40783e-05 -8.53597e-05 0)
(3.62079e-05 -7.41821e-05 0)
(2.67964e-05 -2.856e-05 0)
(-1.60215e-05 4.08135e-05 0)
(-9.99745e-05 0.000125645 0)
(-0.000230326 0.000219717 0)
(-0.000410307 0.000318469 0)
(-0.000641507 0.00041856 0)
(-0.000924176 0.000517557 0)
(-0.00125755 0.000613681 0)
(-0.00164005 0.000705639 0)
(-0.00206949 0.000792493 0)
(-0.00254324 0.00087357 0)
(-0.00305829 0.000948394 0)
(-0.00361138 0.00101664 0)
(-0.00419909 0.00107809 0)
(-0.00481783 0.00113264 0)
(-0.00546399 0.00118024 0)
(-0.00613386 0.00122089 0)
(-0.00682377 0.00125464 0)
(-0.00753002 0.00128159 0)
(-0.00824899 0.00130186 0)
(-0.00897708 0.00131557 0)
(-0.00971078 0.0013229 0)
(-0.0104466 0.00132402 0)
(-0.0111813 0.00131911 0)
(-0.0119115 0.00130837 0)
(-0.0126342 0.001292 0)
(-0.0133461 0.00127022 0)
(-0.0140445 0.00124324 0)
(-0.0147265 0.00121127 0)
(-0.0153893 0.00117454 0)
(-0.0160305 0.00113327 0)
(-0.0166475 0.00108768 0)
(-0.017238 0.00103802 0)
(-0.0177999 0.000984523 0)
(-0.018331 0.000927415 0)
(-0.0188295 0.000866938 0)
(-0.0192934 0.000803331 0)
(-0.0197212 0.000736835 0)
(-0.0201112 0.000667695 0)
(-0.0204622 0.000596152 0)
(-0.0207727 0.000522453 0)
(-0.0210418 0.000446846 0)
(-0.0212683 0.000369585 0)
(-0.0214515 0.000290925 0)
(-0.0215907 0.000211131 0)
(-0.0216853 0.000130466 0)
(-0.0217348 4.91947e-05 0)
(-0.0217391 -3.24134e-05 0)
(-0.021698 -0.000114087 0)
(-0.0216117 -0.000195549 0)
(-0.0214802 -0.000276518 0)
(-0.0213039 -0.000356711 0)
(-0.0210835 -0.00043584 0)
(-0.0208194 -0.000513615 0)
(-0.0205127 -0.000589745 0)
(-0.0201643 -0.000663933 0)
(-0.0197753 -0.000735881 0)
(-0.0193472 -0.000805292 0)
(-0.0188813 -0.000871868 0)
(-0.0183794 -0.000935309 0)
(-0.0178433 -0.000995317 0)
(-0.017275 -0.0010516 0)
(-0.0166766 -0.00110385 0)
(-0.0160504 -0.0011518 0)
(-0.015399 -0.00119514 0)
(-0.0147248 -0.00123361 0)
(-0.0140308 -0.00126693 0)
(-0.0133198 -0.00129485 0)
(-0.0125947 -0.00131711 0)
(-0.011859 -0.00133348 0)
(-0.0111157 -0.00134373 0)
(-0.0103684 -0.00134766 0)
(-0.00962047 -0.00134506 0)
(-0.00887562 -0.00133577 0)
(-0.00813749 -0.00131965 0)
(-0.00740983 -0.00129656 0)
(-0.00669641 -0.00126641 0)
(-0.00600107 -0.00122916 0)
(-0.0053276 -0.00118478 0)
(-0.0046798 -0.0011333 0)
(-0.00406141 -0.0010748 0)
(-0.00347608 -0.00100944 0)
(-0.00292734 -0.00093743 0)
(-0.00241852 -0.000859103 0)
(-0.00195275 -0.000774898 0)
(-0.0015328 -0.000685407 0)
(-0.00116106 -0.000591423 0)
(-0.000839411 -0.000493993 0)
(-0.000569053 -0.000394514 0)
(-0.000350362 -0.000294842 0)
(-0.000182653 -0.000197458 0)
(-6.39111e-05 -0.000105688 0)
(9.53444e-06 -2.39933e-05 0)
(4.33076e-05 4.16662e-05 0)
(4.53906e-05 8.34753e-05 0)
(2.77973e-05 9.13558e-05 0)
(7.96493e-06 5.18326e-05 0)
(4.79516e-06 -6.03465e-05 0)
(1.08186e-05 -9.42339e-05 0)
(4.35848e-07 -6.36682e-05 0)
(-4.13072e-05 1.41975e-05 0)
(-0.000125697 0.000125395 0)
(-0.00026059 0.000258801 0)
(-0.000451342 0.000405902 0)
(-0.000701354 0.000560205 0)
(-0.00101229 0.000716847 0)
(-0.00138443 0.000872145 0)
(-0.00181692 0.00102333 0)
(-0.00230799 0.00116836 0)
(-0.00285516 0.00130566 0)
(-0.00345536 0.00143413 0)
(-0.00410513 0.00155293 0)
(-0.00480062 0.00166148 0)
(-0.00553779 0.00175938 0)
(-0.00631238 0.00184641 0)
(-0.00712005 0.00192242 0)
(-0.00795637 0.0019874 0)
(-0.00881687 0.00204139 0)
(-0.0096971 0.0020845 0)
(-0.0105926 0.00211689 0)
(-0.0114991 0.00213876 0)
(-0.0124122 0.00215035 0)
(-0.0133277 0.00215193 0)
(-0.0142415 0.00214378 0)
(-0.0151496 0.0021262 0)
(-0.0160481 0.00209952 0)
(-0.0169333 0.00206406 0)
(-0.0178014 0.00202016 0)
(-0.0186491 0.00196818 0)
(-0.0194729 0.00190847 0)
(-0.0202697 0.00184138 0)
(-0.0210365 0.0017673 0)
(-0.0217704 0.00168659 0)
(-0.0224685 0.00159964 0)
(-0.0231284 0.00150682 0)
(-0.0237477 0.00140852 0)
(-0.0243241 0.00130513 0)
(-0.0248555 0.00119704 0)
(-0.02534 0.00108465 0)
(-0.0257758 0.000968348 0)
(-0.0261615 0.000848546 0)
(-0.0264955 0.000725647 0)
(-0.0267767 0.000600066 0)
(-0.0270041 0.000472221 0)
(-0.0271767 0.000342536 0)
(-0.0272939 0.000211442 0)
(-0.0273551 7.93698e-05 0)
(-0.0273601 -5.32409e-05 0)
(-0.0273088 -0.000185945 0)
(-0.0272012 -0.000318293 0)
(-0.0270375 -0.000449825 0)
(-0.0268183 -0.000580081 0)
(-0.0265441 -0.000708596 0)
(-0.0262159 -0.000834898 0)
(-0.0258347 -0.000958511 0)
(-0.0254017 -0.00107896 0)
(-0.0249183 -0.00119575 0)
(-0.0243864 -0.00130842 0)
(-0.0238076 -0.00141646 0)
(-0.0231841 -0.00151941 0)
(-0.0225182 -0.00161678 0)
(-0.0218123 -0.00170809 0)
(-0.021069 -0.00179287 0)
(-0.0202913 -0.00187066 0)
(-0.0194822 -0.00194099 0)
(-0.0186449 -0.00200342 0)
(-0.0177829 -0.00205752 0)
(-0.0168996 -0.00210287 0)
(-0.015999 -0.00213909 0)
(-0.0150848 -0.00216577 0)
(-0.0141612 -0.00218259 0)
(-0.0132323 -0.00218919 0)
(-0.0123025 -0.0021853 0)
(-0.0113761 -0.00217065 0)
(-0.0104577 -0.00214501 0)
(-0.00955173 -0.00210821 0)
(-0.00866294 -0.00206013 0)
(-0.00779589 -0.00200069 0)
(-0.00695522 -0.00192989 0)
(-0.0061455 -0.00184782 0)
(-0.00537122 -0.00175464 0)
(-0.00463676 -0.00165062 0)
(-0.00394632 -0.00153619 0)
(-0.00330384 -0.00141189 0)
(-0.002713 -0.00127849 0)
(-0.00217703 -0.00113699 0)
(-0.00169869 -0.000988704 0)
(-0.00128013 -0.000835326 0)
(-0.000922678 -0.000679074 0)
(-0.000626756 -0.000522825 0)
(-0.000391599 -0.000370321 0)
(-0.000215027 -0.000226433 0)
(-9.31616e-05 -9.75016e-05 0)
(-2.01575e-05 8.25685e-06 0)
(1.21628e-05 8.03434e-05 0)
(1.54665e-05 0.000105408 0)
(5.80286e-06 6.50974e-05 0)
(1.94498e-06 -6.3386e-05 0)
(-5.75501e-06 -8.28067e-05 0)
(-4.38386e-05 -2.22472e-05 0)
(-0.000124282 9.77241e-05 0)
(-0.000257012 0.000260114 0)
(-0.000449472 0.000451288 0)
(-0.000706804 0.000660507 0)
(-0.00103219 0.000879449 0)
(-0.00142718 0.00110168 0)
(-0.00189192 0.00132224 0)
(-0.00242539 0.0015373 0)
(-0.00302561 0.00174393 0)
(-0.00368979 0.00193992 0)
(-0.00441451 0.0021236 0)
(-0.00519587 0.00229371 0)
(-0.00602956 0.00244936 0)
(-0.00691097 0.00258991 0)
(-0.00783528 0.00271496 0)
(-0.00879751 0.00282427 0)
(-0.00979259 0.00291776 0)
(-0.0108154 0.00299543 0)
(-0.0118607 0.00305742 0)
(-0.0129235 0.00310392 0)
(-0.0139987 0.0031352 0)
(-0.0150812 0.00315157 0)
(-0.0161662 0.00315339 0)
(-0.0172488 0.00314106 0)
(-0.0183243 0.003115 0)
(-0.0193883 0.00307567 0)
(-0.0204362 0.00302353 0)
(-0.0214638 0.00295908 0)
(-0.0224671 0.00288282 0)
(-0.0234421 0.00279525 0)
(-0.024385 0.00269691 0)
(-0.0252922 0.00258833 0)
(-0.0261604 0.00247006 0)
(-0.0269864 0.00234264 0)
(-0.027767 0.00220663 0)
(-0.0284995 0.0020626 0)
(-0.0291812 0.00191111 0)
(-0.0298096 0.00175274 0)
(-0.0303825 0.00158807 0)
(-0.0308978 0.00141768 0)
(-0.0313538 0.00124216 0)
(-0.0317486 0.00106212 0)
(-0.032081 0.000878152 0)
(-0.0323496 0.000690881 0)
(-0.0325534 0.000500925 0)
(-0.0326917 0.000308915 0)
(-0.0327638 0.000115485 0)
(-0.0327695 -7.87209e-05 0)
(-0.0327085 -0.000273048 0)
(-0.0325809 -0.000466835 0)
(-0.0323871 -0.000659413 0)
(-0.0321275 -0.000850107 0)
(-0.0318031 -0.00103823 0)
(-0.0314147 -0.0012231 0)
(-0.0309636 -0.00140402 0)
(-0.0304514 -0.00158028 0)
(-0.0298797 -0.00175119 0)
(-0.0292506 -0.00191604 0)
(-0.0285661 -0.00207413 0)
(-0.0278287 -0.00222475 0)
(-0.0270412 -0.0023672 0)
(-0.0262064 -0.00250079 0)
(-0.0253275 -0.00262484 0)
(-0.0244078 -0.00273866 0)
(-0.0234509 -0.0028416 0)
(-0.0224606 -0.00293301 0)
(-0.021441 -0.00301227 0)
(-0.0203961 -0.00307878 0)
(-0.0193306 -0.00313198 0)
(-0.0182488 -0.00317131 0)
(-0.0171556 -0.00319628 0)
(-0.0160558 -0.00320643 0)
(-0.0149545 -0.00320134 0)
(-0.0138569 -0.00318065 0)
(-0.0127681 -0.00314406 0)
(-0.0116934 -0.00309133 0)
(-0.0106382 -0.00302231 0)
(-0.00960793 -0.00293693 0)
(-0.00860779 -0.00283523 0)
(-0.00764311 -0.00271735 0)
(-0.00671903 -0.0025836 0)
(-0.00584056 -0.0024344 0)
(-0.00501247 -0.0022704 0)
(-0.00423927 -0.00209248 0)
(-0.00352507 -0.00190177 0)
(-0.00287354 -0.00169976 0)
(-0.00228777 -0.00148837 0)
(-0.00177013 -0.00127004 0)
(-0.00132219 -0.00104791 0)
(-0.000944453 -0.000825933 0)
(-0.000636244 -0.000609186 0)
(-0.000395447 -0.000404101 0)
(-0.000218291 -0.000218857 0)
(-9.91015e-05 -6.38208e-05 0)
(-2.99724e-05 4.80159e-05 0)
(-3.62843e-07 0.000100341 0)
(3.03234e-06 7.07572e-05 0)
(-1.14293e-06 -5.72175e-05 0)
(-2.41094e-05 -4.78909e-05 0)
(-9.32198e-05 5.47097e-05 0)
(-0.000216652 0.000227351 0)
(-0.000402463 0.000450618 0)
(-0.000657348 0.000708597 0)
(-0.000985855 0.000988594 0)
(-0.00139073 0.00128057 0)
(-0.00187318 0.00157656 0)
(-0.00243309 0.00187033 0)
(-0.00306917 0.00215698 0)
(-0.00377915 0.00243269 0)
(-0.00455993 0.0026945 0)
(-0.00540775 0.00294014 0)
(-0.00631831 0.00316789 0)
(-0.00728686 0.00337648 0)
(-0.00830831 0.003565 0)
(-0.00937732 0.00373283 0)
(-0.0104884 0.0038796 0)
(-0.0116358 0.00400512 0)
(-0.0128138 0.00410938 0)
(-0.0140168 0.0041925 0)
(-0.0152389 0.00425469 0)
(-0.0164744 0.00429629 0)
(-0.0177178 0.00431769 0)
(-0.0189634 0.00431935 0)
(-0.0202058 0.00430178 0)
(-0.0214397 0.00426554 0)
(-0.02266 0.00421123 0)
(-0.0238616 0.00413948 0)
(-0.0250397 0.00405094 0)
(-0.0261897 0.00394628 0)
(-0.0273071 0.00382619 0)
(-0.0283876 0.0036914 0)
(-0.0294271 0.00354263 0)
(-0.0304218 0.0033806 0)
(-0.0313679 0.00320608 0)
(-0.032262 0.00301981 0)
(-0.0331009 0.00282257 0)
(-0.0338816 0.00261513 0)
(-0.0346012 0.00239829 0)
(-0.0352572 0.00217282 0)
(-0.0358472 0.00193954 0)
(-0.0363691 0.00169926 0)
(-0.0368211 0.00145279 0)
(-0.0372014 0.00120097 0)
(-0.0375087 0.000944635 0)
(-0.0377419 0.000684644 0)
(-0.0378999 0.000421854 0)
(-0.0379823 0.000157139 0)
(-0.0379885 -0.000108619 0)
(-0.0379183 -0.000374525 0)
(-0.037772 -0.000639673 0)
(-0.0375498 -0.000903149 0)
(-0.0372525 -0.00116403 0)
(-0.0368808 -0.00142137 0)
(-0.0364359 -0.00167425 0)
(-0.0359194 -0.0019217 0)
(-0.0353327 -0.00216278 0)
(-0.0346781 -0.00239653 0)
(-0.0339576 -0.00262197 0)
(-0.0331738 -0.00283817 0)
(-0.0323295 -0.00304415 0)
(-0.0314278 -0.00323897 0)
(-0.0304718 -0.00342169 0)
(-0.0294653 -0.00359138 0)
(-0.0284121 -0.00374712 0)
(-0.0273161 -0.00388801 0)
(-0.0261818 -0.0040132 0)
(-0.0250137 -0.00412184 0)
(-0.0238166 -0.00421312 0)
(-0.0225955 -0.00428627 0)
(-0.0213555 -0.00434059 0)
(-0.020102 -0.00437539 0)
(-0.0188406 -0.00439007 0)
(-0.0175769 -0.00438409 0)
(-0.0163167 -0.00435697 0)
(-0.015066 -0.00430834 0)
(-0.0138307 -0.00423789 0)
(-0.0126167 -0.00414547 0)
(-0.0114302 -0.004031 0)
(-0.010277 -0.00389459 0)
(-0.00916305 -0.00373647 0)
(-0.0080941 -0.00355708 0)
(-0.00707571 -0.00335708 0)
(-0.00611317 -0.00313738 0)
(-0.00521145 -0.00289921 0)
(-0.00437511 -0.00264416 0)
(-0.0036082 -0.00237425 0)
(-0.00291413 -0.00209207 0)
(-0.00229557 -0.00180087 0)
(-0.00175433 -0.00150473 0)
(-0.00129114 -0.00120875 0)
(-0.000905544 -0.000919315 0)
(-0.000595711 -0.000644379 0)
(-0.000358236 -0.000393859 0)
(-0.000187925 -0.000180092 0)
(-7.75107e-05 -1.82781e-05 0)
(-1.81232e-05 7.27664e-05 0)
(-4.84451e-09 6.75531e-05 0)
(-4.29794e-06 -4.12927e-05 0)
(-4.33302e-05 1.24515e-05 0)
(-0.000145368 0.000170142 0)
(-0.000314507 0.000406726 0)
(-0.000556588 0.000700826 0)
(-0.000877265 0.00103469 0)
(-0.00128025 0.00139388 0)
(-0.00176765 0.00176678 0)
(-0.00234017 0.00214407 0)
(-0.00299725 0.00251825 0)
(-0.00373724 0.00288337 0)
(-0.00455753 0.00323471 0)
(-0.00545466 0.00356856 0)
(-0.00642453 0.00388202 0)
(-0.00746242 0.00417285 0)
(-0.00856317 0.00443938 0)
(-0.00972125 0.0046804 0)
(-0.0109309 0.00489504 0)
(-0.0121859 0.00508276 0)
(-0.0134804 0.00524326 0)
(-0.0148078 0.00537648 0)
(-0.016162 0.0054825 0)
(-0.0175367 0.00556159 0)
(-0.0189255 0.0056141 0)
(-0.0203223 0.00564052 0)
(-0.0217209 0.00564141 0)
(-0.0231153 0.0056174 0)
(-0.0244997 0.00556921 0)
(-0.0258684 0.00549758 0)
(-0.0272158 0.00540331 0)
(-0.0285365 0.00528723 0)
(-0.0298254 0.0051502 0)
(-0.0310775 0.00499313 0)
(-0.0322881 0.00481692 0)
(-0.0334526 0.00462251 0)
(-0.0345668 0.00441085 0)
(-0.0356264 0.00418292 0)
(-0.0366277 0.0039397 0)
(-0.037567 0.00368218 0)
(-0.0384411 0.00341139 0)
(-0.0392467 0.00312834 0)
(-0.039981 0.00283406 0)
(-0.0406414 0.0025296 0)
(-0.0412255 0.00221603 0)
(-0.0417313 0.00189441 0)
(-0.0421568 0.00156582 0)
(-0.0425007 0.00123137 0)
(-0.0427615 0.000892163 0)
(-0.0429382 0.000549328 0)
(-0.0430302 0.000204001 0)
(-0.0430369 -0.000142664 0)
(-0.0429582 -0.0004895 0)
(-0.0427943 -0.000835328 0)
(-0.0425454 -0.00117895 0)
(-0.0422125 -0.00151918 0)
(-0.0417963 -0.00185478 0)
(-0.0412983 -0.00218453 0)
(-0.0407201 -0.0025072 0)
(-0.0400634 -0.00282155 0)
(-0.0393306 -0.00312633 0)
(-0.0385241 -0.0034203 0)
(-0.0376468 -0.00370221 0)
(-0.0367017 -0.00397082 0)
(-0.0356922 -0.00422491 0)
(-0.034622 -0.00446324 0)
(-0.0334951 -0.00468462 0)
(-0.0323157 -0.00488787 0)
(-0.0310884 -0.00507184 0)
(-0.0298179 -0.00523541 0)
(-0.0285094 -0.00537749 0)
(-0.0271681 -0.00549706 0)
(-0.0257995 -0.00559314 0)
(-0.0244094 -0.0056648 0)
(-0.0230037 -0.00571119 0)
(-0.0215886 -0.00573156 0)
(-0.0201702 -0.0057252 0)
(-0.018755 -0.00569156 0)
(-0.0173495 -0.00563015 0)
(-0.0159603 -0.00554063 0)
(-0.0145939 -0.00542282 0)
(-0.013257 -0.00527669 0)
(-0.0119561 -0.00510238 0)
(-0.0106975 -0.00490027 0)
(-0.00948768 -0.00467097 0)
(-0.00833261 -0.00441536 0)
(-0.00723809 -0.00413469 0)
(-0.00620954 -0.00383056 0)
(-0.00525192 -0.00350504 0)
(-0.00436965 -0.00316077 0)
(-0.00356652 -0.00280101 0)
(-0.00284551 -0.00242986 0)
(-0.00220875 -0.00205235 0)
(-0.00165731 -0.00167472 0)
(-0.0011911 -0.00130461 0)
(-0.000808736 -0.000951411 0)
(-0.000507402 -0.000626636 0)
(-0.000282626 -0.000344361 0)
(-0.000128052 -0.000121663 0)
(-3.68206e-05 2.06394e-05 0)
(-3.12007e-06 5.4848e-05 0)
(-7.41979e-06 -1.53913e-05 0)
(-6.27963e-05 9.91877e-05 0)
(-0.000198764 0.000325778 0)
(-0.000415149 0.000638102 0)
(-0.000715448 0.00101335 0)
(-0.0011041 0.00143228 0)
(-0.00158382 0.00187899 0)
(-0.00215587 0.00234048 0)
(-0.00282031 0.00280617 0)
(-0.00357604 0.00326742 0)
(-0.00442093 0.00371728 0)
(-0.00535195 0.00415014 0)
(-0.00636525 0.00456153 0)
(-0.00745632 0.00494792 0)
(-0.00862005 0.00530656 0)
(-0.00985087 0.00563535 0)
(-0.0111428 0.00593272 0)
(-0.0124897 0.00619756 0)
(-0.0138849 0.00642914 0)
(-0.0153219 0.00662704 0)
(-0.0167938 0.0067911 0)
(-0.0182939 0.0069214 0)
(-0.0198154 0.00701819 0)
(-0.0213515 0.00708191 0)
(-0.0228954 0.00711309 0)
(-0.0244404 0.00711242 0)
(-0.0259802 0.00708065 0)
(-0.0275083 0.00701864 0)
(-0.0290185 0.00692731 0)
(-0.0305047 0.00680762 0)
(-0.0319612 0.00666061 0)
(-0.0333822 0.00648735 0)
(-0.0347624 0.00628894 0)
(-0.0360965 0.00606653 0)
(-0.0373797 0.00582127 0)
(-0.0386071 0.00555437 0)
(-0.0397743 0.00526702 0)
(-0.0408772 0.00496048 0)
(-0.0419117 0.00463598 0)
(-0.0428742 0.0042948 0)
(-0.0437612 0.00393822 0)
(-0.0445697 0.00356754 0)
(-0.0452967 0.00318407 0)
(-0.0459397 0.00278915 0)
(-0.0464964 0.00238413 0)
(-0.0469648 0.00197037 0)
(-0.0473432 0.00154925 0)
(-0.0476302 0.00112218 0)
(-0.0478246 0.000690559 0)
(-0.0479257 0.000255828 0)
(-0.0479331 -0.000180563 0)
(-0.0478464 -0.000617147 0)
(-0.0476659 -0.00105244 0)
(-0.047392 -0.00148495 0)
(-0.0470254 -0.00191315 0)
(-0.0465674 -0.00233552 0)
(-0.0460192 -0.00275053 0)
(-0.0453827 -0.00315662 0)
(-0.04466 -0.00355224 0)
(-0.0438533 -0.00393582 0)
(-0.0429656 -0.00430581 0)
(-0.0419998 -0.00466065 0)
(-0.0409593 -0.00499879 0)
(-0.0398478 -0.00531868 0)
(-0.0386694 -0.00561882 0)
(-0.0374284 -0.00589769 0)
(-0.0361295 -0.00615382 0)
(-0.0347775 -0.00638579 0)
(-0.0333778 -0.0065922 0)
(-0.0319358 -0.00677171 0)
(-0.0304573 -0.00692305 0)
(-0.0289483 -0.00704499 0)
(-0.0274151 -0.00713641 0)
(-0.0258641 -0.00719627 0)
(-0.024302 -0.00722363 0)
(-0.0227355 -0.00721765 0)
(-0.0211717 -0.00717765 0)
(-0.0196175 -0.00710307 0)
(-0.01808 -0.00699353 0)
(-0.0165665 -0.00684881 0)
(-0.015084 -0.00666893 0)
(-0.0136396 -0.00645411 0)
(-0.0122403 -0.00620487 0)
(-0.0108927 -0.00592202 0)
(-0.00960357 -0.0056067 0)
(-0.008379 -0.00526049 0)
(-0.00722488 -0.00488542 0)
(-0.0061466 -0.00448407 0)
(-0.00514896 -0.00405967 0)
(-0.00423612 -0.00361623 0)
(-0.00341147 -0.00315865 0)
(-0.00267751 -0.00269294 0)
(-0.00203575 -0.0022264 0)
(-0.00148662 -0.00176788 0)
(-0.0010293 -0.00132809 0)
(-0.000661755 -0.000919951 0)
(-0.000380406 -0.000559045 0)
(-0.00017999 -0.000263985 0)
(-5.58362e-05 -5.71101e-05 0)
(-6.21238e-06 3.2402e-05 0)
(-1.04643e-05 2.04711e-05 0)
(-8.21894e-05 0.000212661 0)
(-0.00025238 0.000522432 0)
(-0.000516713 0.000922731 0)
(-0.000876269 0.00138975 0)
(-0.00133417 0.00190309 0)
(-0.00189201 0.00244565 0)
(-0.00255009 0.00300327 0)
(-0.00330768 0.00356423 0)
(-0.00416305 0.00411887 0)
(-0.00511351 0.00465929 0)
(-0.00615552 0.00517905 0)
(-0.0072848 0.00567295 0)
(-0.00849638 0.00613683 0)
(-0.00978475 0.00656742 0)
(-0.0111439 0.00696219 0)
(-0.0125675 0.00731922 0)
(-0.0140488 0.00763712 0)
(-0.015581 0.00791497 0)
(-0.0171568 0.0081522 0)
(-0.0187691 0.00834858 0)
(-0.0204107 0.00850413 0)
(-0.0220742 0.00861914 0)
(-0.0237524 0.00869405 0)
(-0.025438 0.00872951 0)
(-0.027124 0.00872628 0)
(-0.0288034 0.00868528 0)
(-0.0304693 0.00860749 0)
(-0.032115 0.00849401 0)
(-0.0337342 0.00834601 0)
(-0.0353204 0.00816472 0)
(-0.0368676 0.00795143 0)
(-0.03837 0.00770747 0)
(-0.039822 0.00743422 0)
(-0.0412182 0.00713309 0)
(-0.0425535 0.00680554 0)
(-0.0438233 0.00645303 0)
(-0.0450228 0.00607707 0)
(-0.0461478 0.00567919 0)
(-0.0471944 0.00526092 0)
(-0.0481589 0.00482385 0)
(-0.0490378 0.00436955 0)
(-0.0498282 0.00389963 0)
(-0.0505272 0.00341574 0)
(-0.0511323 0.0029195 0)
(-0.0516414 0.0024126 0)
(-0.0520527 0.00189673 0)
(-0.0523646 0.00137359 0)
(-0.052576 0.000844915 0)
(-0.052686 0.00031246 0)
(-0.052694 -0.000222002 0)
(-0.0525999 -0.000756678 0)
(-0.0524038 -0.00128975 0)
(-0.0521062 -0.0018194 0)
(-0.051708 -0.00234377 0)
(-0.0512103 -0.00286099 0)
(-0.0506147 -0.00336919 0)
(-0.0499231 -0.00386648 0)
(-0.0491377 -0.00435095 0)
(-0.0482611 -0.00482072 0)
(-0.0472963 -0.00527388 0)
(-0.0462465 -0.00570852 0)
(-0.0451155 -0.00612278 0)
(-0.0439072 -0.00651476 0)
(-0.0426259 -0.00688263 0)
(-0.0412764 -0.00722456 0)
(-0.0398636 -0.00753878 0)
(-0.0383929 -0.00782353 0)
(-0.0368699 -0.00807715 0)
(-0.0353004 -0.00829801 0)
(-0.0336908 -0.00848456 0)
(-0.0320475 -0.00863536 0)
(-0.0303772 -0.00874903 0)
(-0.0286867 -0.00882434 0)
(-0.0269834 -0.00886017 0)
(-0.0252744 -0.00885554 0)
(-0.0235672 -0.00880962 0)
(-0.0218693 -0.00872179 0)
(-0.0201884 -0.00859161 0)
(-0.018532 -0.00841887 0)
(-0.0169079 -0.00820361 0)
(-0.0153236 -0.00794616 0)
(-0.0137865 -0.00764718 0)
(-0.0123038 -0.00730769 0)
(-0.0108825 -0.00692912 0)
(-0.00952943 -0.0065134 0)
(-0.00825072 -0.00606298 0)
(-0.00705221 -0.00558099 0)
(-0.00593916 -0.00507126 0)
(-0.00491612 -0.00453851 0)
(-0.00398694 -0.00398848 0)
(-0.00315458 -0.00342807 0)
(-0.00242108 -0.0028656 0)
(-0.00178746 -0.00231105 0)
(-0.00125364 -0.00177629 0)
(-0.000818447 -0.00127551 0)
(-0.000479345 -0.000825524 0)
(-0.000232266 -0.000446173 0)
(-7.47914e-05 -0.000160899 0)
(-9.22946e-06 2.13438e-07 0)
(-1.34155e-05 6.61286e-05 0)
(-0.000101271 0.000352831 0)
(-0.000305585 0.000760299 0)
(-0.00061798 0.00126111 0)
(-0.00103715 0.00183077 0)
(-0.00156487 0.00244805 0)
(-0.00220154 0.00309489 0)
(-0.00294641 0.00375615 0)
(-0.00379788 0.00441913 0)
(-0.00475347 0.00507325 0)
(-0.00580988 0.00570976 0)
(-0.00696299 0.00632144 0)
(-0.00820801 0.0069024 0)
(-0.0095395 0.00744789 0)
(-0.0109515 0.00795412 0)
(-0.0124376 0.00841813 0)
(-0.013991 0.00883765 0)
(-0.0156046 0.00921103 0)
(-0.017271 0.00953713 0)
(-0.0189826 0.00981524 0)
(-0.020732 0.010045 0)
(-0.0225112 0.0102265 0)
(-0.0243127 0.0103599 0)
(-0.0261287 0.0104457 0)
(-0.0279515 0.0104847 0)
(-0.0297737 0.0104778 0)
(-0.0315878 0.0104259 0)
(-0.0333865 0.0103303 0)
(-0.0351627 0.0101922 0)
(-0.0369096 0.010013 0)
(-0.0386204 0.00979404 0)
(-0.0402887 0.00953698 0)
(-0.0419083 0.00924333 0)
(-0.0434731 0.00891474 0)
(-0.0449776 0.00855287 0)
(-0.0464162 0.00815946 0)
(-0.0477839 0.00773625 0)
(-0.0490758 0.00728503 0)
(-0.0502873 0.00680763 0)
(-0.0514143 0.00630588 0)
(-0.0524527 0.00578166 0)
(-0.053399 0.00523686 0)
(-0.0542498 0.00467342 0)
(-0.0550023 0.00409327 0)
(-0.0556537 0.00349839 0)
(-0.0562017 0.00289078 0)
(-0.0566445 0.00227246 0)
(-0.0569803 0.00164547 0)
(-0.057208 0.00101189 0)
(-0.0573265 0.00037381 0)
(-0.0573354 -0.000266649 0)
(-0.0572344 -0.000907341 0)
(-0.0570237 -0.0015461 0)
(-0.0567037 -0.00218074 0)
(-0.0562755 -0.00280905 0)
(-0.0557403 -0.0034288 0)
(-0.0550997 -0.00403775 0)
(-0.0543558 -0.00463365 0)
(-0.0535109 -0.00521424 0)
(-0.0525677 -0.00577724 0)
(-0.0515296 -0.0063204 0)
(-0.0503999 -0.00684144 0)
(-0.0491826 -0.00733814 0)
(-0.0478819 -0.00780826 0)
(-0.0465025 -0.00824959 0)
(-0.0450493 -0.00865999 0)
(-0.0435277 -0.00903734 0)
(-0.0419433 -0.00937956 0)
(-0.0403021 -0.00968468 0)
(-0.0386105 -0.00995076 0)
(-0.0368749 -0.010176 0)
(-0.0351024 -0.0103587 0)