/*--------------------------------*- C++ -*----------------------------------*\
  =========                 |
  \\      /  F ield         | OpenFOAM: The Open Source CFD Toolbox
   \\    /   O peration     | Website:  https://openfoam.org
    \\  /    A nd           | Version:  11
     \\/     M anipulation  |
\*---------------------------------------------------------------------------*/
FoamFile
{
    format      ascii;
    class       surfaceScalarField;
    location    "8.3";
    object      phi;
}
// * * * * * * * * * * * * * * * * * * * * * * * * * * * * * * * * * * * * * //

dimensions      [0 3 -1 0 0 0 0];

internalField   nonuniform List<scalar> 
19980
(
7.06098e-07
-7.06136e-07
2.46425e-06
-1.75837e-06
4.4362e-06
-1.97202e-06
6.00081e-06
-1.56447e-06
6.80982e-06
-8.08931e-07
6.68015e-06
1.29637e-07
5.52359e-06
1.15655e-06
3.31032e-06
2.2131e-06
4.69115e-08
3.26354e-06
-4.23782e-06
4.28481e-06
-9.49959e-06
5.26169e-06
-1.56841e-05
6.18467e-06
-2.27315e-05
7.04748e-06
-3.0577e-05
7.84547e-06
-3.91534e-05
8.57639e-06
-4.83918e-05
9.23836e-06
-5.8223e-05
9.83121e-06
-6.8578e-05
1.03549e-05
-7.9388e-05
1.081e-05
-9.05856e-05
1.11973e-05
-0.000102104
1.15184e-05
-0.000113878
1.17741e-05
-0.000125844
1.19662e-05
-0.000137941
1.20969e-05
-0.000150108
1.21674e-05
-0.000162288
1.21793e-05
-0.000174423
1.21351e-05
-0.00018646
1.20369e-05
-0.000198346
1.18865e-05
-0.000210032
1.1686e-05
-0.00022147
1.14377e-05
-0.000232614
1.11436e-05
-0.000243419
1.08057e-05
-0.000253846
1.04262e-05
-0.000263853
1.00073e-05
-0.000273404
9.55117e-06
-0.000282463
9.05957e-06
-0.000290998
8.53465e-06
-0.000298977
7.97876e-06
-0.000306371
7.39418e-06
-0.000313154
6.78298e-06
-0.000319301
6.14735e-06
-0.000324791
5.48971e-06
-0.000329603
4.81238e-06
-0.000333721
4.11758e-06
-0.000337128
3.40753e-06
-0.000339813
2.68452e-06
-0.000341764
1.95096e-06
-0.000342973
1.20927e-06
-0.000343435
4.61872e-07
-0.000343146
-2.88796e-07
-0.000342106
-1.04023e-06
-0.000340316
-1.78985e-06
-0.000337781
-2.53525e-06
-0.000334507
-3.27402e-06
-0.000330503
-4.00343e-06
-0.000325783
-4.72065e-06
-0.000320359
-5.42315e-06
-0.000314251
-6.10818e-06
-0.000307479
-6.77265e-06
-0.000300065
-7.41362e-06
-0.000292037
-8.0284e-06
-0.000283422
-8.61406e-06
-0.000274255
-9.16772e-06
-0.000264568
-9.68701e-06
-0.000254398
-1.01695e-05
-0.000243786
-1.06121e-05
-0.000232774
-1.10121e-05
-0.000221407
-1.13668e-05
-0.000209734
-1.16737e-05
-0.000197804
-1.19302e-05
-0.00018567
-1.21339e-05
-0.000173387
-1.22827e-05
-0.000161012
-1.23746e-05
-0.000148605
-1.24073e-05
-0.000136226
-1.23787e-05
-0.000123939
-1.22871e-05
-0.000111808
-1.21309e-05
-9.98999e-05
-1.19084e-05
-8.82814e-05
-1.16185e-05
-7.7021e-05
-1.12604e-05
-6.61874e-05
-1.08336e-05
-5.58497e-05
-1.03377e-05
-4.60768e-05
-9.77283e-06
-3.69375e-05
-9.1393e-06
-2.84994e-05
-8.43815e-06
-2.08282e-05
-7.6712e-06
-1.39869e-05
-6.8413e-06
-8.03433e-06
-5.95255e-06
-3.0237e-06
-5.01073e-06
1.00023e-06
-4.02402e-06
4.00428e-06
-3.00406e-06
5.97194e-06
-1.96763e-06
6.91145e-06
-9.39509e-07
6.86866e-06
4.27822e-08
5.94752e-06
9.21154e-07
4.34224e-06
1.60533e-06
2.39186e-06
1.95039e-06
6.73728e-07
1.7181e-06
6.73759e-07
1.67179e-06
-2.37778e-06
4.6667e-06
-4.75303e-06
7.60972e-06
-4.91524e-06
9.44153e-06
-3.39629e-06
9.42728e-06
-7.94774e-07
7.10379e-06
2.45327e-06
2.20485e-06
6.05553e-06
-5.39588e-06
9.81393e-06
-1.57282e-05
1.35957e-05
-2.87527e-05
1.73094e-05
-4.43836e-05
2.08925e-05
-6.25003e-05
2.43012e-05
-8.29581e-05
2.75053e-05
-0.000105596
3.0484e-05
-0.000130243
3.32231e-05
-0.000156719
3.57139e-05
-0.000184839
3.79515e-05
-0.000214417
3.99336e-05
-0.000245268
4.16604e-05
-0.000277204
4.31338e-05
-0.000310042
4.43567e-05
-0.000343602
4.53334e-05
-0.000377705
4.60692e-05
-0.000412177
4.65696e-05
-0.000446851
4.68407e-05
-0.000481561
4.68894e-05
-0.000516149
4.67226e-05
-0.000550459
4.63476e-05
-0.000584345
4.57721e-05
-0.000617663
4.50039e-05
-0.000650276
4.40507e-05
-0.000682053
4.29204e-05
-0.000712868
4.16211e-05
-0.000742603
4.01609e-05
-0.000771144
3.85482e-05
-0.000798383
3.67907e-05
-0.00082422
3.48967e-05
-0.00084856
3.28745e-05
-0.000871314
3.07325e-05
-0.000892399
2.84791e-05
-0.000911739
2.6123e-05
-0.000929264
2.36728e-05
-0.000944912
2.11372e-05
-0.000958625
1.85253e-05
-0.000970353
1.58457e-05
-0.000980052
1.31073e-05
-0.000987687
1.03193e-05
-0.000993227
7.49067e-06
-0.000996648
4.63082e-06
-0.000997936
1.74922e-06
-0.00099708
-1.14453e-06
-0.000994079
-4.04083e-06
-0.000988939
-6.93001e-06
-0.000981672
-9.8022e-06
-0.000972299
-1.26474e-05
-0.000960847
-1.54554e-05
-0.000947352
-1.82158e-05
-0.000931857
-2.09183e-05
-0.000914413
-2.35521e-05
-0.000895079
-2.61066e-05
-0.000873922
-2.85705e-05
-0.000851017
-3.09329e-05
-0.000826448
-3.31833e-05
-0.000800305
-3.53111e-05
-0.000772686
-3.73059e-05
-0.000743698
-3.91576e-05
-0.000713454
-4.08558e-05
-0.000682076
-4.23901e-05
-0.000649692
-4.37502e-05
-0.00061644
-4.49264e-05
-0.00058246
-4.59094e-05
-0.000547904
-4.66902e-05
-0.000512926
-4.72604e-05
-0.000477689
-4.76118e-05
-0.00044236
-4.77368e-05
-0.00040711
-4.76282e-05
-0.000372118
-4.72793e-05
-0.000337564
-4.66845e-05
-0.000303634
-4.58389e-05
-0.000270513
-4.47387e-05
-0.000238393
-4.33812e-05
-0.000207461
-4.17652e-05
-0.000177908
-3.98907e-05
-0.000149921
-3.77594e-05
-0.000123686
-3.53747e-05
-9.93814e-05
-3.2743e-05
-7.7179e-05
-2.98736e-05
-5.72401e-05
-2.67803e-05
-3.97107e-05
-2.34819e-05
-2.47169e-05
-2.00046e-05
-1.2357e-05
-1.63839e-05
-2.69233e-06
-1.26687e-05
4.2665e-06
-8.92648e-06
8.57899e-06
-5.25199e-06
1.04015e-05
-1.77967e-06
1.00245e-05
1.29819e-06
7.92301e-06
3.70681e-06
4.81637e-06
5.05707e-06
1.71779e-06
4.81676e-06
2.39158e-06
1.80451e-06
-4.18235e-06
4.61354e-06
-7.56217e-06
6.76301e-06
-7.06452e-06
7.00614e-06
-3.63958e-06
4.43168e-06
1.77993e-06
-1.58196e-06
8.46694e-06
-1.1421e-05
1.58944e-05
-2.52921e-05
2.36851e-05
-4.3266e-05
3.15697e-05
-6.53124e-05
3.9356e-05
-9.13249e-05
4.69052e-05
-0.000121142
5.41183e-05
-0.000154561
6.09239e-05
-0.000191348
6.72715e-05
-0.000231251
7.31253e-05
-0.000273999
7.8462e-05
-0.000319314
8.32663e-05
-0.00036691
8.75303e-05
-0.000416501
9.12511e-05
-0.000467797
9.44301e-05
-0.000520512
9.7072e-05
-0.000574362
9.91838e-05
-0.000629068
0.000100775
-0.000684356
0.000101857
-0.000739958
0.000102443
-0.000795613
0.000102545
-0.000851068
0.000102178
-0.000906078
0.000101357
-0.000960406
0.0001001
-0.00101382
9.84208e-05
-0.00106611
9.63376e-05
-0.00111706
9.38671e-05
-0.00116646
9.10266e-05
-0.00121413
8.78336e-05
-0.00125989
8.43059e-05
-0.00130356
8.04613e-05
-0.00134498
7.63176e-05
-0.001384
7.18932e-05
-0.00142048
6.72064e-05
-0.00145427
6.22757e-05
-0.00148527
5.71199e-05
-0.00151335
5.1758e-05
-0.00153843
4.62091e-05
-0.00156039
4.04926e-05
-0.00157918
3.4628e-05
-0.0015947
2.86348e-05
-0.00160692
2.25331e-05
-0.00161577
1.6343e-05
-0.00162122
1.0085e-05
-0.00162325
3.77982e-06
-0.00162185
-2.55153e-06
-0.001617
-8.88781e-06
-0.00160872
-1.52075e-05
-0.00159704
-2.1489e-05
-0.00158197
-2.77102e-05
-0.00156358
-3.38486e-05
-0.00154191
-3.98817e-05
-0.00151705
-4.57866e-05
-0.00148906
-5.15403e-05
-0.00145805
-5.71191e-05
-0.00142412
-6.24997e-05
-0.00138739
-6.76585e-05
-0.001348
-7.25721e-05
-0.0013061
-7.72175e-05
-0.00126183
-8.15721e-05
-0.00121537
-8.56134e-05
-0.00116691
-8.93186e-05
-0.00111663
-9.26656e-05
-0.00106475
-9.56328e-05
-0.00101148
-9.81992e-05
-0.000957045
-0.000100344
-0.000901685
-0.000102049
-0.00084565
-0.000103296
-0.000789195
-0.000104066
-0.000732587
-0.000104345
-0.000676099
-0.000104117
-0.00062001
-0.000103368
-0.000564607
-0.000102087
-0.000510181
-0.000100266
-0.000457024
-9.78955e-05
-0.000405432
-9.49725e-05
-0.000355702
-9.14952e-05
-0.000308127
-8.74656e-05
-0.000262997
-8.28894e-05
-0.000220595
-7.77775e-05
-0.000181191
-7.21463e-05
-0.000145045
-6.602e-05
-0.000112394
-5.94318e-05
-8.34483e-05
-5.24272e-05
-5.83861e-05
-4.50668e-05
-3.73384e-05
-3.74317e-05
-2.03768e-05
-2.96303e-05
-7.49475e-06
-2.18084e-05
1.41645e-06
-1.41632e-05
6.59917e-06
-6.96239e-06
8.46852e-06
-5.71141e-07
7.6601e-06
4.51524e-06
5.08058e-06
7.63667e-06
1.95718e-06
7.94019e-06
4.34878e-06
1.41462e-06
-5.59684e-06
3.08857e-06
-9.23635e-06
3.27253e-06
-7.24835e-06
6.59473e-07
-1.0268e-06
-5.72293e-06
8.16248e-06
-1.6562e-05
1.93059e-05
-3.2304e-05
3.16368e-05
-5.32027e-05
4.45835e-05
-7.9355e-05
5.77222e-05
-0.000110738
7.07387e-05
-0.000147233
8.34002e-05
-0.000188649
9.55346e-05
-0.00023474
0.000107015
-0.000285218
0.000117749
-0.000339764
0.000127671
-0.000398034
0.000136732
-0.000459672
0.000144904
-0.000524309
0.000152167
-0.00059157
0.000158512
-0.000661078
0.000163938
-0.000732456
0.00016845
-0.000805329
0.000172057
-0.000879329
0.000174774
-0.00095409
0.000176618
-0.00102926
0.000177609
-0.00110448
0.000177768
-0.00117942
0.000177119
-0.00125375
0.000175689
-0.00132715
0.000173502
-0.00139932
0.000170588
-0.00146996
0.000166974
-0.00153878
0.00016269
-0.00160552
0.000157764
-0.00166991
0.000152228
-0.00173172
0.000146111
-0.0017907
0.000139445
-0.00184664
0.00013226
-0.00189934
0.000124588
-0.00194859
0.000116461
-0.00199423
0.000107911
-0.00203608
9.89713e-05
-0.002074
8.96736e-05
-0.00210784
8.00517e-05
-0.00213749
7.0139e-05
-0.00216283
5.99696e-05
-0.00218377
4.95777e-05
-0.00220023
3.8998e-05
-0.00221216
2.82657e-05
-0.00221949
1.74161e-05
-0.00222219
6.48564e-06
-0.00222026
-4.48921e-06
-0.00221367
-1.54716e-05
-0.00220246
-2.64241e-05
-0.00218664
-3.73088e-05
-0.00216626
-4.80874e-05
-0.00214139
-5.87212e-05
-0.0021121
-6.91707e-05
-0.00207849
-7.93964e-05
-0.00204067
-8.93585e-05
-0.00199877
-9.90168e-05
-0.00195294
-0.000108331
-0.00190334
-0.00011726
-0.00185015
-0.000125764
-0.00179356
-0.000133804
-0.00173379
-0.00014134
-0.00167107
-0.000148333
-0.00160565
-0.000154744
-0.00153778
-0.000160535
-0.00146774
-0.000165671
-0.00139583
-0.000170114
-0.00132234
-0.00017383
-0.0012476
-0.000176787
-0.00117195
-0.000178953
-0.00109571
-0.000180299
-0.00101926
-0.000180799
-0.000942947
-0.000180428
-0.000867152
-0.000179164
-0.000792251
-0.000176988
-0.000718631
-0.000173886
-0.000646679
-0.000169847
-0.000576785
-0.000164866
-0.000509338
-0.000158943
-0.000444721
-0.000152082
-0.000383312
-0.000144299
-0.000325475
-0.000135614
-0.000271562
-0.00012606
-0.000221898
-0.000115683
-0.000176784
-0.000104546
-0.000136482
-9.27293e-05
-0.000101207
-8.03421e-05
-7.11127e-05
-6.75258e-05
-4.62774e-05
-5.44656e-05
-2.66814e-05
-4.14044e-05
-1.21831e-05
-2.86615e-05
-2.48839e-06
-1.66571e-05
2.88474e-06
-5.94422e-06
4.64836e-06
2.75163e-06
3.78984e-06
8.4952e-06
1.63063e-06
1.00994e-05
5.97941e-06
7.21122e-07
-6.31784e-06
6.02074e-07
-9.11749e-06
-2.02081e-06
-4.62533e-06
-8.41336e-06
5.36589e-06
-1.95327e-05
1.92813e-05
-3.60673e-05
3.58408e-05
-5.84772e-05
5.40465e-05
-8.70278e-05
7.31341e-05
-0.000121825
9.25189e-05
-0.000162842
0.000111756
-0.000209948
0.000130506
-0.000262927
0.000148514
-0.000321497
0.000165586
-0.000385325
0.000181577
-0.000454037
0.000196383
-0.000527231
0.000209926
-0.000604482
0.000222155
-0.00068535
0.000233035
-0.000769386
0.000242548
-0.000856136
0.000250688
-0.000945143
0.000257457
-0.00103595
0.000262867
-0.00112812
0.000266937
-0.00122119
0.000269688
-0.00131473
0.00027115
-0.00140831
0.000271354
-0.00150153
0.000270334
-0.00159397
0.000268126
-0.00168524
0.000264772
-0.00177496
0.00026031
-0.00186277
0.000254784
-0.00194831
0.000248236
-0.00203126
0.000240713
-0.00211129
0.000232258
-0.0021881
0.000222918
-0.00226139
0.00021274
-0.00233091
0.000201771
-0.00239638
0.00019006
-0.00245757
0.000177654
-0.00251426
0.000164603
-0.00256625
0.000150957
-0.00261334
0.000136765
-0.00265536
0.000122078
-0.00269217
0.000106949
-0.00272363
9.14275e-05
-0.00274962
7.55674e-05
-0.00277005
5.94215e-05
-0.00278482
4.30435e-05
-0.0027939
2.6488e-05
-0.00279722
9.81001e-06
-0.00279477
-6.93454e-06
-0.00278656
-2.3689e-05
-0.00277258
-4.03962e-05
-0.0027529
-5.69983e-05
-0.00272755
-7.34367e-05
-0.00269662
-8.96522e-05
-0.0026602
-0.000105585
-0.00261842
-0.000121175
-0.00257142
-0.000136361
-0.00251935
-0.000151082
-0.00246241
-0.000165278
-0.00240078
-0.000178886
-0.0023347
-0.000191847
-0.0022644
-0.000204099
-0.00219016
-0.000215583
-0.00211225
-0.00022624
-0.00203099
-0.000236011
-0.00194668
-0.00024484
-0.00185968
-0.00025267
-0.00177035
-0.000259449
-0.00167905
-0.000265124
-0.00158619
-0.000269647
-0.00149218
-0.00027297
-0.00139742
-0.000275052
-0.00130237
-0.000275851
-0.00120747
-0.000275332
-0.00111317
-0.000273465
-0.00101993
-0.000270223
-0.000928232
-0.000265585
-0.00083854
-0.000259539
-0.000751328
-0.000252078
-0.000667066
-0.000243205
-0.000586216
-0.000232932
-0.000509231
-0.000221284
-0.000436546
-0.000208298
-0.000368578
-0.000194028
-0.000305713
-0.000178549
-0.000248301
-0.000161958
-0.000196647
-0.000144384
-0.000150996
-0.000125992
-0.000111525
-0.000106997
-7.83188e-05
-8.76717e-05
-5.13553e-05
-6.83678e-05
-3.04801e-05
-4.95368e-05
-1.53793e-05
-3.17578e-05
-5.54937e-06
-1.57741e-05
-2.61722e-07
-2.53603e-06
1.47675e-06
6.75675e-06
9.7699e-07
1.05992e-05
6.95636e-06
-1.48801e-07
-6.16899e-06
-2.49386e-06
-6.77221e-06
-8.50861e-06
1.38939e-06
-1.93437e-05
1.62011e-05
-3.58831e-05
3.58209e-05
-5.87713e-05
5.87288e-05
-8.84421e-05
8.37174e-05
-0.000125145
0.000109837
-0.000168974
0.000136347
-0.000219887
0.000162669
-0.000277735
0.000188354
-0.000342275
0.000213054
-0.000413193
0.000236504
-0.000490116
0.0002585
-0.000572624
0.000278891
-0.000660261
0.000297564
-0.000752546
0.00031444
-0.000848978
0.000329467
-0.000949042
0.000342612
-0.00105222
0.000353862
-0.00115797
0.000363215
-0.00126579
0.000370684
-0.00137514
0.00037629
-0.00148552
0.000380061
-0.0015964
0.000382035
-0.0017073
0.000382252
-0.00181772
0.000380758
-0.0019272
0.000377604
-0.00203527
0.000372843
-0.00214149
0.00036653
-0.00224543
0.000358724
-0.00234668
0.000349485
-0.00244484
0.000338875
-0.00253954
0.000326956
-0.00263042
0.000313794
-0.00271713
0.000299454
-0.00279936
0.000284001
-0.0028768
0.000267504
-0.00294918
0.000250031
-0.00301623
0.00023165
-0.0030777
0.000212431
-0.00313338
0.000192445
-0.00318307
0.000171764
-0.00322658
0.00015046
-0.00326376
0.000128606
-0.00329447
0.000106276
-0.00331859
8.3544e-05
-0.00333603
6.04872e-05
-0.00334673
3.71819e-05
-0.00335062
1.37059e-05
-0.00334769
-9.86198e-06
-0.00333794
-3.34422e-05
-0.00332138
-5.6954e-05
-0.00329807
-8.03158e-05
-0.00326806
-0.000103445
-0.00323145
-0.000126259
-0.00318836
-0.000148673
-0.00313893
-0.000170603
-0.00308333
-0.000191963
-0.00302175
-0.000212669
-0.00295439
-0.000232634
-0.0028815
-0.000251773
-0.00280335
-0.00027
-0.00272021
-0.000287233
-0.00263241
-0.000303385
-0.00254028
-0.000318376
-0.00244416
-0.000332124
-0.00234445
-0.00034455
-0.00224155
-0.000355576
-0.00213587
-0.000365128
-0.00202786
-0.000373135
-0.00191798
-0.000379528
-0.0018067
-0.000384245
-0.00169453
-0.000387225
-0.00158196
-0.000388416
-0.00146953
-0.000387768
-0.00135775
-0.00038524
-0.00124718
-0.000380798
-0.00113835
-0.000374417
-0.0010318
-0.000366081
-0.000928099
-0.000355783
-0.000827771
-0.000343533
-0.000731352
-0.000329351
-0.000639361
-0.000313276
-0.000552295
-0.000295364
-0.000470626
-0.000275697
-0.000394792
-0.000254383
-0.000325188
-0.000231562
-0.000262156
-0.000207416
-0.000205973
-0.000182176
-0.000156835
-0.000156135
-0.000114844
-0.000129663
-7.99869e-05
-0.000103225
-5.21166e-05
-7.7407e-05
-3.09274e-05
-5.29471e-05
-1.59306e-05
-3.07709e-05
-6.42725e-06
-1.20395e-05
-1.47718e-06
1.80673e-06
1.39051e-07
8.98293e-06
7.09538e-06
-1.11312e-06
-5.05598e-06
-5.95135e-06
-1.93397e-06
-1.57445e-05
1.11824e-05
-3.14798e-05
3.19366e-05
-5.39272e-05
5.82681e-05
-8.3651e-05
8.84529e-05
-0.00012103
0.000121096
-0.000166274
0.000155081
-0.000219443
0.000189517
-0.000280471
0.000223697
-0.000349178
0.000257061
-0.000425293
0.00028917
-0.000508469
0.00031968
-0.000598294
0.000348325
-0.000694305
0.000374902
-0.000796001
0.00039926
-0.000902849
0.000421288
-0.00101429
0.000440911
-0.00112976
0.000458081
-0.00124867
0.000472772
-0.00137044
0.00048498
-0.00149447
0.000494715
-0.00162018
0.000501999
-0.00174699
0.000506869
-0.00187432
0.000509368
-0.00200162
0.000509548
-0.00212832
0.000507466
-0.00225391
0.000503188
-0.00237785
0.000496782
-0.00249964
0.000488319
-0.00261879
0.000477877
-0.00273484
0.000465533
-0.00284733
0.000451368
-0.00295584
0.000435466
-0.00305996
0.000417911
-0.0031593
0.000398791
-0.00325349
0.000378192
-0.00334219
0.000356205
-0.00342507
0.000332919
-0.00350185
0.000308426
-0.00357224
0.00028282
-0.00363599
0.000256194
-0.00369287
0.000228643
-0.00374267
0.000200264
-0.00378522
0.000171154
-0.00382035
0.000141411
-0.00384795
0.000111137
-0.00386789
8.04309e-05
-0.0038801
4.93961e-05
-0.00388453
1.8136e-05
-0.00388115
-1.32444e-05
-0.00386995
-4.4639e-05
-0.00385097
-7.59404e-05
-0.00382424
-0.00010704
-0.00378986
-0.000137828
-0.00374793
-0.000168194
-0.00369857
-0.000198027
-0.00364196
-0.000227213
-0.00357829
-0.00025564
-0.00350776
-0.000283195
-0.00343063
-0.000309765
-0.00334716
-0.000335235
-0.00325767
-0.000359494
-0.00316247
-0.00038243
-0.00306193
-0.000403932
-0.00295641
-0.000423892
-0.00284633
-0.000442201
-0.00273213
-0.000458757
-0.00261424
-0.000473457
-0.00249317
-0.000486204
-0.0023694
-0.000496905
-0.00224345
-0.000505471
-0.00211588
-0.000511818
-0.00198724
-0.000515871
-0.00185809
-0.000517559
-0.00172904
-0.000516821
-0.00160068
-0.000513605
-0.00147361
-0.000507868
-0.00134844
-0.00049958
-0.0012258
-0.000488723
-0.00110629
-0.000475294
-0.000990517
-0.000459307
-0.000879073
-0.000440795
-0.000772535
-0.000419814
-0.000671457
-0.000396443
-0.00057636
-0.000370793
-0.00048773
-0.000343013
-0.000406003
-0.000313289
-0.000331556
-0.000281863
-0.000264697
-0.000249035
-0.00020565
-0.000215182
-0.000154541
-0.000180772
-0.000111379
-0.000146386
-7.60434e-05
-0.000112743
-4.82592e-05
-8.07313e-05
-2.7583e-05
-5.1447e-05
-1.33812e-05
-2.62413e-05
-4.81041e-06
-6.76406e-06
-7.96642e-07
4.96915e-06
6.2987e-06
-2.12032e-06
-2.93573e-06
-9.60222e-06
5.54795e-06
-2.34122e-05
2.49925e-05
-4.43472e-05
5.28715e-05
-7.30347e-05
8.69555e-05
-0.000109935
0.000125353
-0.000155346
0.000166508
-0.000209419
0.000209154
-0.000272165
0.000252264
-0.000343478
0.000295009
-0.000423141
0.000336724
-0.000510849
0.000376877
-0.000606216
0.000415047
-0.000708793
0.000450901
-0.000818076
0.000484186
-0.000933521
0.000514705
-0.00105455
0.000542314
-0.00118055
0.000566914
-0.00131091
0.000588436
-0.00144498
0.000606844
-0.00158212
0.000622125
-0.00172169
0.000634287
-0.00186305
0.000643355
-0.00200555
0.000649369
-0.00214856
0.00065238
-0.00229146
0.000652451
-0.00243365
0.000649654
-0.00257453
0.000644066
-0.00271352
0.000635773
-0.00285007
0.000624865
-0.00298363
0.000611436
-0.00311368
0.000595585
-0.00323972
0.000577415
-0.00336129
0.00055703
-0.00347792
0.000534538
-0.00358917
0.000510049
-0.00369465
0.000483674
-0.00379398
0.000455526
-0.00388678
0.000425722
-0.00397273
0.000394378
-0.00405153
0.000361613
-0.00412288
0.000327546
-0.00418653
0.000292299
-0.00424227
0.000255996
-0.00428987
0.000218761
-0.00432918
0.000180719
-0.00436004
0.000142
-0.00438234
0.000102731
-0.00439599
6.30441e-05
-0.00440093
2.30717e-05
-0.00439712
-1.70521e-05
-0.00438457
-5.71918e-05
-0.0043633
-9.721e-05
-0.00433337
-0.000136968
-0.00429487
-0.000176326
-0.00424792
-0.000215143
-0.00419267
-0.000253277
-0.0041293
-0.000290583
-0.00405802
-0.000326919
-0.00397908
-0.000362141
-0.00389274
-0.000396103
-0.00379931
-0.000428663
-0.00369913
-0.000459677
-0.00359256
-0.000489003
-0.00347999
-0.000516502
-0.00336185
-0.000542034
-0.00323858
-0.000565465
-0.00311068
-0.000586662
-0.00297863
-0.000605499
-0.00284299
-0.000621851
-0.00270429
-0.000635601
-0.00256312
-0.000646638
-0.00242008
-0.000654859
-0.00227579
-0.000660166
-0.00213087
-0.000662476
-0.00198598
-0.00066171
-0.00184178
-0.000657807
-0.00169893
-0.000650715
-0.00155811
-0.000640399
-0.00141999
-0.00062684
-0.00128525
-0.000610039
-0.00115454
-0.000590018
-0.00102851
-0.000566823
-0.000907797
-0.000540528
-0.000792999
-0.00051124
-0.000684687
-0.000479105
-0.00058339
-0.00044431
-0.000489583
-0.000407096
-0.000403681
-0.000367764
-0.000326027
-0.000326688
-0.000256878
-0.000284331
-0.000196392
-0.000241258
-0.000144615
-0.000198163
-0.000101466
-0.000155892
-6.67248e-05
-0.000115473
-4.00146e-05
-7.81571e-05
-2.07945e-05
-4.54614e-05
-8.34771e-06
-1.92109e-05
-1.7768e-06
-1.60177e-06
4.52187e-06
-3.1393e-06
2.03649e-07
-1.3335e-05
1.57435e-05
-3.12925e-05
4.29499e-05
-5.7606e-05
7.9185e-05
-9.27449e-05
0.000122094
-0.000137046
0.000169654
-0.000190713
0.000220174
-0.000253817
0.000272258
-0.000326311
0.000324758
-0.000408034
0.000376732
-0.000498725
0.000427416
-0.000598036
0.000476188
-0.000705542
0.000522552
-0.000820751
0.000566111
-0.000943121
0.000606556
-0.00107206
0.000643646
-0.00120695
0.000677204
-0.00134714
0.0007071
-0.00149195
0.000733247
-0.0016407
0.000755595
-0.0017927
0.000774121
-0.00194724
0.000788831
-0.00210364
0.000799751
-0.00226119
0.000806923
-0.00241922
0.000810409
-0.00257705
0.000810282
-0.00273402
0.000806625
-0.00288949
0.000799532
-0.00304282
0.000789106
-0.00319341
0.000775456
-0.00334067
0.000758696
-0.00348403
0.000738946
-0.00362295
0.000716333
-0.0037569
0.000690983
-0.0038854
0.00066303
-0.00400796
0.000632608
-0.00412414
0.000599854
-0.00423352
0.000564909
-0.00433571
0.000527915
-0.00443035
0.000489016
-0.0045171
0.00044836
-0.00459564
0.000406094
-0.00466571
0.00036237
-0.00472706
0.000317338
-0.00477945
0.000271155
-0.00482271
0.000223976
-0.00485667
0.000175958
-0.0048812
0.000127264
-0.00489621
7.80539e-05
-0.00490163
2.84927e-05
-0.00489743
-2.12536e-05
-0.0048836
-7.10171e-05
-0.00486019
-0.000120628
-0.00482724
-0.000169914
-0.00478486
-0.000218703
-0.00473319
-0.00026682
-0.00467237
-0.000314089
-0.00460262
-0.000360334
-0.00452417
-0.000405376
-0.00443727
-0.000449038
-0.00434223
-0.000491142
-0.00423938
-0.000531511
-0.00412909
-0.000569969
-0.00401175
-0.000606341
-0.0038878
-0.000640455
-0.00375769
-0.00067214
-0.00362193
-0.000701231
-0.00348102
-0.000727565
-0.00333553
-0.000750988
-0.00318604
-0.000771347
-0.00303314
-0.000788499
-0.00287747
-0.000802309
-0.00271968
-0.000812651
-0.00256044
-0.000819409
-0.00240043
-0.000822479
-0.00224037
-0.000821772
-0.00208097
-0.000817211
-0.00192295
-0.000808737
-0.00176703
-0.000796311
-0.00161396
-0.000779913
-0.00146445
-0.000759549
-0.00131922
-0.000735249
-0.00117897
-0.000707074
-0.00104438
-0.000675122
-0.00091609
-0.000639526
-0.000794728
-0.000600467
-0.00068086
-0.000558178
-0.000575004
-0.000512953
-0.000477613
-0.000465155
-0.00038907
-0.000415232
-0.000309671
-0.00036373
-0.000239616
-0.000311313
-0.000178998
-0.00025878
-0.000127794
-0.000207096
-8.58491e-05
-0.000157418
-5.28746e-05
-0.000111132
-2.84402e-05
-6.98958e-05
-1.19742e-05
-3.5677e-05
-2.7693e-06
-1.08066e-05
1.75254e-06
-4.15101e-06
4.35476e-06
-1.70781e-05
2.86708e-05
-3.92369e-05
6.51089e-05
-7.10187e-05
0.000110967
-0.000112727
0.000163802
-0.000164564
0.000221491
-0.000226625
0.000282235
-0.000298893
0.000344527
-0.000381247
0.000407112
-0.000473464
0.000468949
-0.000575229
0.000529181
-0.000686145
0.000587104
-0.000805741
0.000642148
-0.000933484
0.000693854
-0.00106879
0.000741859
-0.00121102
0.000785878
-0.00135951
0.000825698
-0.00151357
0.00086116
-0.00167248
0.000892157
-0.00183551
0.000918622
-0.00200191
0.000940525
-0.00217095
0.000957867
-0.00234187
0.000970673
-0.00251394
0.000978992
-0.00268642
0.000982891
-0.0028586
0.000982455
-0.00302975
0.00097778
-0.0031992
0.000968977
-0.00336626
0.000956166
-0.00353028
0.000939476
-0.00369062
0.000919042
-0.00384669
0.000895009
-0.00399788
0.000867525
-0.00414364
0.000836743
-0.00428343
0.000802822
-0.00441675
0.000765924
-0.00454311
0.000726214
-0.00466206
0.00068386
-0.00477318
0.000639034
-0.00487607
0.000591911
-0.00497038
0.000542667
-0.00505576
0.00049148
-0.00513193
0.000438534
-0.0051986
0.000384012
-0.00525554
0.000328099
-0.00530256
0.000270987
-0.00533946
0.000212864
-0.00536612
0.000153925
-0.00538244
9.43668e-05
-0.00538833
3.43864e-05
-0.00538377
-2.58152e-05
-0.00536875
-8.6035e-05
-0.00534331
-0.000146068
-0.00530752
-0.000205707
-0.00526148
-0.000264744
-0.00520533
-0.000322967
-0.00513925
-0.000380164
-0.00506347
-0.000436123
-0.00497821
-0.00049063
-0.00488378
-0.000543471
-0.00478049
-0.000594431
-0.0046687
-0.000643297
-0.00454881
-0.000689859
-0.00442125
-0.000733905
-0.00428648
-0.000775228
-0.00414499
-0.000813626
-0.00399732
-0.000848899
-0.00384403
-0.000880854
-0.00368572
-0.000909302
-0.003523
-0.000934065
-0.00335653
-0.000954971
-0.00318698
-0.000971859
-0.00301505
-0.00098458
-0.00284146
-0.000992996
-0.00266695
-0.000996986
-0.00249228
-0.000996443
-0.00231821
-0.00099128
-0.00214552
-0.000981429
-0.00197499
-0.000966846
-0.00180739
-0.000947512
-0.0016435
-0.000923436
-0.00148409
-0.00089466
-0.0013299
-0.000861261
-0.00118166
-0.000823358
-0.00104008
-0.000781115
-0.000905792
-0.000734751
-0.000779428
-0.000684542
-0.000661545
-0.000630836
-0.00055264
-0.000574059
-0.000453138
-0.000514734
-0.000363382
-0.000453486
-0.000283623
-0.000391072
-0.000214013
-0.000328391
-0.000154592
-0.000266517
-0.000105291
-0.00020672
-6.59172e-05
-0.000150505
-3.61649e-05
-9.9648e-05
-1.56158e-05
-5.62262e-05
-3.75512e-06
-2.26673e-05
-2.00257e-06
-5.14522e-06
9.49969e-06
-2.07861e-05
4.43117e-05
-4.71474e-05
9.14705e-05
-8.44219e-05
0.000148241
-0.000132747
0.000212127
-0.000192185
0.000280929
-0.000262713
0.000352763
-0.000344219
0.000426032
-0.000436497
0.00049939
-0.000539254
0.000571706
-0.000652114
0.000642041
-0.000774624
0.000709615
-0.000906265
0.000773789
-0.00104646
0.000834045
-0.00119456
0.000889968
-0.00134992
0.00094123
-0.0015118
0.000987582
-0.00167948
0.00102884
-0.00185219
0.00106487
-0.00202916
0.00109559
-0.0022096
0.00112097
-0.00239272
0.00114099
-0.00257774
0.00115569
-0.00276386
0.00116512
-0.00295031
0.00116934
-0.00313633
0.00116847
-0.00332115
0.00116261
-0.00350405
0.00115188
-0.00368431
0.00113642
-0.00386123
0.00111639
-0.00403413
0.00109194
-0.00420237
0.00106325
-0.00436531
0.00103047
-0.00452237
0.000993802
-0.00467297
0.000953422
-0.00481657
0.000909523
-0.00495266
0.000862299
-0.00508075
0.000811949
-0.00520039
0.000758676
-0.00531116
0.000702686
-0.00541268
0.000644187
-0.00550459
0.000583391
-0.00558657
0.000520514
-0.00565833
0.000455773
-0.00571962
0.000389389
-0.00577022
0.000321586
-0.00580995
0.000252589
-0.00583865
0.000182629
-0.00585622
0.000111937
-0.00586258
4.07478e-05
-0.0058577
-3.07008e-05
-0.00584156
-0.000102169
-0.00581422
-0.000173413
-0.00577574
-0.00024419
-0.00572623
-0.000314251
-0.00566585
-0.000383348
-0.00559478
-0.00045123
-0.00551326
-0.000517645
-0.00542155
-0.000582342
-0.00531995
-0.000645066
-0.00520882
-0.000705567
-0.00508852
-0.000763592
-0.00495949
-0.000818891
-0.00482218
-0.000871218
-0.00467708
-0.000920328
-0.00452472
-0.000965983
-0.00436567
-0.00100795
-0.00420053
-0.00104599
-0.00402993
-0.0010799
-0.00385453
-0.00110947
-0.00367502
-0.00113448
-0.00349212
-0.00115476
-0.00330658
-0.00117012
-0.00311916
-0.00118042
-0.00293064
-0.0011855
-0.00274183
-0.00118525
-0.00255354
-0.00117957
-0.0023666
-0.00116837
-0.00218183
-0.00115162
-0.00200006
-0.00112928
-0.0018221
-0.00110139
-0.00164879
-0.00106798
-0.00148089
-0.00102915
-0.0013192
-0.000985049
-0.00116445
-0.000935866
-0.00101735
-0.000881856
-0.000878548
-0.000823342
-0.000748658
-0.000760726
-0.000628222
-0.000694496
-0.000517714
-0.000625241
-0.00041753
-0.00055367
-0.00032798
-0.000480622
-0.000249281
-0.00040709
-0.000181552
-0.000334246
-0.00012481
-0.000263461
-7.89749e-05
-0.000196341
-4.38674e-05
-0.000134755
-1.9226e-05
-8.08676e-05
-4.72321e-06
-3.717e-05
-6.72576e-06
-6.11537e-06
1.56151e-05
-2.44315e-05
6.26277e-05
-5.49611e-05
0.000122
-9.77082e-05
0.000190988
-0.000152646
0.000267065
-0.000219696
0.000347979
-0.000298714
0.000431782
-0.000389484
0.000516802
-0.000491711
0.000601616
-0.000605023
0.000685019
-0.000728978
0.000765996
-0.000863062
0.000843699
-0.0010067
0.000917427
-0.00115926
0.000986606
-0.00132007
0.00105077
-0.0014884
0.00110956
-0.00166349
0.00116268
-0.00184457
0.00120992
-0.00203084
0.00125113
-0.00222147
0.00128622
-0.00241564
0.00131513
-0.00261251
0.00133786
-0.00281125
0.00135443
-0.00301104
0.00136491
-0.00321106
0.00136936
-0.00341049
0.0013679
-0.00360855
0.00136067
-0.00380446
0.00134778
-0.00399745
0.00132942
-0.00418681
0.00130575
-0.00437181
0.00127694
-0.00455176
0.0012432
-0.00472602
0.00120472
-0.00489393
0.00116172
-0.00505491
0.0011144
-0.00520838
0.00106299
-0.0053538
0.00100771
-0.00549065
0.000948802
-0.00561846
0.000886489
-0.00573679
0.000821015
-0.00584523
0.000752621
-0.00594339
0.000681556
-0.00603095
0.000608069
-0.00610759
0.000532415
-0.00617305
0.000454849
-0.00622709
0.000375632
-0.00626953
0.000295028
-0.00630021
0.000213304
-0.006319
0.000130729
-0.00632583
4.75787e-05
-0.00632066
-3.58723e-05
-0.00630348
-0.000119344
-0.00627434
-0.000202554
-0.00623332
-0.000285217
-0.00618052
-0.000367046
-0.00611612
-0.000447751
-0.00604031
-0.000527041
-0.00595333
-0.000604624
-0.00585547
-0.000680206
-0.00574704
-0.000753493
-0.00562841
-0.000824194
-0.00549999
-0.000892014
-0.00536221
-0.000956666
-0.00521557
-0.00101786
-0.00506058
-0.00107532
-0.0048978
-0.00112876
-0.00472782
-0.00117792
-0.00455129
-0.00122253
-0.00436887
-0.00126233
-0.00418125
-0.00129709
-0.00398916
-0.00132656
-0.00379337
-0.00135055
-0.00359466
-0.00136883
-0.00339384
-0.00138124
-0.00319173
-0.00138761
-0.00298917
-0.0013878
-0.00278704
-0.0013817
-0.00258619
-0.00136922
-0.0023875
-0.00135031
-0.00219184
-0.00132495
-0.00200007
-0.00129315
-0.00181307
-0.00125499
-0.00163165
-0.00121056
-0.00145665
-0.00116005
-0.00128886
-0.00110366
-0.00112901
-0.0010417
-0.000977816
-0.000974534
-0.000835935
-0.000902607
-0.00070396
-0.00082647
-0.000582419
-0.000746783
-0.000471766
-0.000664323
-0.000372376
-0.000580012
-0.000284539
-0.000494928
-0.000208457
-0.000410327
-0.000144247
-0.000327672
-9.19376e-05