/*--------------------------------*- C++ -*----------------------------------*\
  =========                 |
  \\      /  F ield         | OpenFOAM: The Open Source CFD Toolbox
   \\    /   O peration     | Website:  https://openfoam.org
    \\  /    A nd           | Version:  11
     \\/     M anipulation  |
\*---------------------------------------------------------------------------*/
FoamFile
{
    format      ascii;
    class       volVectorField;
    location    "8.3";
    object      U;
}
// * * * * * * * * * * * * * * * * * * * * * * * * * * * * * * * * * * * * * //

dimensions      [0 1 -1 0 0 0 0];

internalField   nonuniform List<vector> 
10100
(
(2.96517e-06 -3.09319e-06 0)
(1.50722e-05 -8.14768e-06 0)
(3.47246e-05 -9.53413e-06 0)
(5.34603e-05 -8.23641e-06 0)
(6.59515e-05 -5.59388e-06 0)
(6.96688e-05 -2.33724e-06 0)
(6.33913e-05 1.1389e-06 0)
(4.65903e-05 4.64697e-06 0)
(1.91878e-05 8.06381e-06 0)
(-1.86252e-05 1.13316e-05 0)
(-6.64585e-05 1.4419e-05 0)
(-0.000123814 1.73005e-05 0)
(-0.000190116 1.99685e-05 0)
(-0.000264729 2.24188e-05 0)
(-0.000346994 2.46426e-05 0)
(-0.000436231 2.66424e-05 0)
(-0.000531738 2.84246e-05 0)
(-0.000632832 2.99898e-05 0)
(-0.000738822 3.13419e-05 0)
(-0.000849016 3.24883e-05 0)
(-0.000962753 3.34357e-05 0)
(-0.00107937 3.41883e-05 0)
(-0.00119822 3.47528e-05 0)
(-0.00131869 3.51356e-05 0)
(-0.00144015 3.53383e-05 0)
(-0.00156202 3.53668e-05 0)
(-0.00168372 3.52319e-05 0)
(-0.00180471 3.4942e-05 0)
(-0.00192445 3.45018e-05 0)
(-0.00204244 3.3916e-05 0)
(-0.00215817 3.31914e-05 0)
(-0.00227118 3.23339e-05 0)
(-0.00238103 3.13492e-05 0)
(-0.00248729 3.02445e-05 0)
(-0.00258955 2.90279e-05 0)
(-0.00268743 2.77057e-05 0)
(-0.00278057 2.62809e-05 0)
(-0.00286862 2.47586e-05 0)
(-0.00295126 2.31472e-05 0)
(-0.00302819 2.14533e-05 0)
(-0.00309914 1.9683e-05 0)
(-0.00316385 1.7842e-05 0)
(-0.00322208 1.59366e-05 0)
(-0.00327364 1.39757e-05 0)
(-0.00331833 1.19654e-05 0)
(-0.00335599 9.90996e-06 0)
(-0.00338648 7.81665e-06 0)
(-0.00340968 5.69315e-06 0)
(-0.00342549 3.54542e-06 0)
(-0.00343386 1.38108e-06 0)
(-0.00343473 -7.92585e-07 0)
(-0.00342808 -2.97005e-06 0)
(-0.00341392 -5.14348e-06 0)
(-0.00339229 -7.30429e-06 0)
(-0.00336322 -9.44698e-06 0)
(-0.0033268 -1.15652e-05 0)
(-0.00328315 -1.365e-05 0)
(-0.00323239 -1.56931e-05 0)
(-0.00317469 -1.76871e-05 0)
(-0.00311023 -1.9622e-05 0)
(-0.00303924 -2.14886e-05 0)
(-0.00296196 -2.32793e-05 0)
(-0.00287868 -2.49855e-05 0)
(-0.00278969 -2.65984e-05 0)
(-0.00269532 -2.81118e-05 0)
(-0.00259595 -2.95194e-05 0)
(-0.00249194 -3.08124e-05 0)
(-0.00238371 -3.19815e-05 0)
(-0.00227171 -3.30187e-05 0)
(-0.00215639 -3.39163e-05 0)
(-0.00203824 -3.46665e-05 0)
(-0.00191779 -3.52623e-05 0)
(-0.00179557 -3.56983e-05 0)
(-0.00167215 -3.5968e-05 0)
(-0.00154809 -3.60641e-05 0)
(-0.00142401 -3.59797e-05 0)
(-0.00130053 -3.57093e-05 0)
(-0.00117828 -3.52473e-05 0)
(-0.00105793 -3.45876e-05 0)
(-0.000940131 -3.37254e-05 0)
(-0.000825572 -3.26578e-05 0)
(-0.000714939 -3.13832e-05 0)
(-0.000608918 -2.98991e-05 0)
(-0.000508203 -2.82032e-05 0)
(-0.000413484 -2.62931e-05 0)
(-0.000325442 -2.41684e-05 0)
(-0.000244748 -2.18313e-05 0)
(-0.000172047 -1.92861e-05 0)
(-0.000107953 -1.65401e-05 0)
(-5.30315e-05 -1.36052e-05 0)
(-7.77912e-06 -1.04993e-05 0)
(2.74037e-05 -7.25034e-06 0)
(5.22538e-05 -3.90261e-06 0)
(6.67075e-05 -5.27892e-07 0)
(7.10034e-05 2.75165e-06 0)
(6.58412e-05 5.72575e-06 0)
(5.26025e-05 8.03172e-06 0)
(3.38178e-05 9.02601e-06 0)
(1.45327e-05 7.61841e-06 0)
(2.81647e-06 2.81621e-06 0)
(7.31545e-06 -1.48291e-05 0)
(3.06959e-05 -3.1874e-05 0)
(6.26681e-05 -3.47352e-05 0)
(8.88719e-05 -2.6912e-05 0)
(9.94349e-05 -1.26004e-05 0)
(8.8593e-05 5.3142e-06 0)
(5.29471e-05 2.50694e-05 0)
(-9.35272e-06 4.55187e-05 0)
(-9.90293e-05 6.5945e-05 0)
(-0.000215952 8.58798e-05 0)
(-0.000359472 0.000105005 0)
(-0.000528529 0.000123114 0)
(-0.000721765 0.000140077 0)
(-0.000937649 0.000155786 0)
(-0.0011745 0.000170191 0)
(-0.00143055 0.000183256 0)
(-0.00170398 0.000194967 0)
(-0.00199293 0.000205318 0)
(-0.00229553 0.000214322 0)
(-0.00260992 0.000221992 0)
(-0.00293424 0.000228348 0)
(-0.00326666 0.000233418 0)
(-0.00360541 0.000237234 0)
(-0.00394871 0.000239829 0)
(-0.00429485 0.000241233 0)
(-0.00464217 0.000241482 0)
(-0.00498904 0.000240618 0)
(-0.00533391 0.000238679 0)
(-0.00567525 0.000235707 0)
(-0.00601161 0.000231742 0)
(-0.0063416 0.000226827 0)
(-0.00666386 0.000221001 0)
(-0.00697713 0.000214304 0)
(-0.00728016 0.000206782 0)
(-0.00757182 0.000198477 0)
(-0.00785098 0.000189429 0)
(-0.0081166 0.00017968 0)
(-0.00836771 0.00016927 0)
(-0.00860339 0.000158245 0)
(-0.00882278 0.00014665 0)
(-0.00902509 0.000134525 0)
(-0.00920958 0.000121916 0)
(-0.00937559 0.000108871 0)
(-0.00952253 9.54325e-05 0)
(-0.00964985 8.16471e-05 0)
(-0.00975708 6.756e-05 0)
(-0.00984384 5.32154e-05 0)
(-0.00990978 3.86617e-05 0)
(-0.00995463 2.39477e-05 0)
(-0.00997821 9.12017e-06 0)
(-0.00998038 -5.77195e-06 0)
(-0.00996109 -2.06778e-05 0)
(-0.00992036 -3.55487e-05 0)
(-0.00985829 -5.03356e-05 0)
(-0.00977502 -6.49869e-05 0)
(-0.00967082 -7.94499e-05 0)
(-0.00954599 -9.3672e-05 0)
(-0.00940092 -0.0001076 0)
(-0.00923609 -0.000121178 0)
(-0.00905204 -0.000134348 0)
(-0.00884941 -0.000147053 0)
(-0.00862891 -0.000159237 0)
(-0.00839133 -0.000170843 0)
(-0.00813753 -0.000181818 0)
(-0.00786846 -0.000192109 0)
(-0.00758516 -0.000201665 0)
(-0.00728871 -0.000210432 0)
(-0.00698029 -0.000218354 0)
(-0.00666116 -0.000225378 0)
(-0.00633263 -0.000231452 0)
(-0.00599611 -0.000236528 0)
(-0.00565306 -0.00024056 0)
(-0.005305 -0.000243503 0)
(-0.00495352 -0.000245315 0)
(-0.00460026 -0.000245955 0)
(-0.00424694 -0.000245384 0)
(-0.00389529 -0.000243565 0)
(-0.00354711 -0.000240467 0)
(-0.00320423 -0.000236061 0)
(-0.00286852 -0.000230325 0)
(-0.00254185 -0.000223242 0)
(-0.00222612 -0.000214804 0)
(-0.00192323 -0.000205006 0)
(-0.00163508 -0.00019385 0)
(-0.00136353 -0.000181348 0)
(-0.0011104 -0.000167524 0)
(-0.000877464 -0.000152418 0)
(-0.000666387 -0.00013609 0)
(-0.000478719 -0.000118627 0)
(-0.000315837 -0.000100153 0)
(-0.000178881 -8.0838e-05 0)
(-6.8678e-05 -6.0924e-05 0)
(1.43728e-05 -4.07554e-05 0)
(7.04639e-05 -2.0833e-05 0)
(0.000100606 -1.89835e-06 0)
(0.000106942 1.49356e-05 0)
(9.31037e-05 2.79938e-05 0)
(6.47794e-05 3.47492e-05 0)
(3.1543e-05 3.15303e-05 0)
(7.61579e-06 1.45222e-05 0)
(8.29378e-06 -3.31015e-05 0)
(3.21281e-05 -6.30508e-05 0)
(5.98521e-05 -6.31175e-05 0)
(7.47191e-05 -4.05498e-05 0)
(6.49797e-05 -2.9678e-06 0)
(2.32363e-05 4.38692e-05 0)
(-5.53138e-05 9.59365e-05 0)
(-0.000173536 0.000150428 0)
(-0.000332708 0.000205426 0)
(-0.000532981 0.00025957 0)
(-0.000773606 0.00031192 0)
(-0.00105319 0.000361817 0)
(-0.00136991 0.000408785 0)
(-0.00172154 0.000452511 0)
(-0.00210563 0.000492766 0)
(-0.00251956 0.000529406 0)
(-0.00296057 0.000562348 0)
(-0.00342584 0.000591556 0)
(-0.00391249 0.000617016 0)
(-0.00441763 0.000638751 0)
(-0.00493839 0.000656804 0)
(-0.00547192 0.000671226 0)
(-0.00601538 0.000682096 0)
(-0.00656602 0.000689493 0)
(-0.00712112 0.000693505 0)
(-0.00767804 0.000694229 0)
(-0.00823421 0.000691766 0)
(-0.00878713 0.000686224 0)
(-0.0093344 0.000677713 0)
(-0.00987368 0.000666348 0)
(-0.0104027 0.000652245 0)
(-0.0109194 0.000635518 0)
(-0.0114217 0.000616287 0)
(-0.0119075 0.000594671 0)
(-0.0123751 0.000570792 0)
(-0.0128227 0.000544769 0)
(-0.0132485 0.000516722 0)
(-0.0136511 0.000486776 0)
(-0.0140289 0.000455054 0)
(-0.0143805 0.000421682 0)
(-0.0147048 0.000386789 0)
(-0.0150005 0.0003505 0)
(-0.0152665 0.000312947 0)
(-0.0155019 0.000274262 0)
(-0.0157058 0.000234572 0)
(-0.0158776 0.000194013 0)
(-0.0160164 0.000152719 0)
(-0.0161218 0.000110824 0)
(-0.0161934 6.84664e-05 0)
(-0.0162309 2.57897e-05 0)
(-0.0162341 -1.70668e-05 0)
(-0.0162028 -5.9961e-05 0)
(-0.0161371 -0.000102746 0)
(-0.0160372 -0.000145276 0)
(-0.0159034 -0.000187404 0)
(-0.015736 -0.000228977 0)
(-0.0155355 -0.000269842 0)
(-0.0153027 -0.000309844 0)
(-0.0150381 -0.000348827 0)
(-0.0147429 -0.00038663 0)
(-0.0144179 -0.000423093 0)
(-0.0140643 -0.000458055 0)
(-0.0136834 -0.000491356 0)
(-0.0132765 -0.000522841 0)
(-0.0128453 -0.000552358 0)
(-0.0123912 -0.000579754 0)
(-0.0119162 -0.000604875 0)
(-0.011422 -0.000627569 0)
(-0.0109107 -0.000647686 0)
(-0.0103843 -0.000665082 0)
(-0.00984522 -0.00067962 0)
(-0.00929564 -0.000691168 0)
(-0.00873804 -0.000699601 0)
(-0.00817494 -0.0007048 0)
(-0.00760896 -0.000706652 0)
(-0.00704279 -0.000705052 0)
(-0.00647921 -0.000699906 0)
(-0.00592104 -0.000691133 0)
(-0.00537117 -0.000678662 0)
(-0.00483252 -0.000662439 0)
(-0.00430805 -0.000642429 0)
(-0.00380071 -0.000618617 0)
(-0.00331346 -0.000591006 0)
(-0.00284924 -0.000559628 0)
(-0.00241089 -0.000524542 0)
(-0.0020012 -0.00048585 0)
(-0.00162285 -0.000443701 0)
(-0.00127831 -0.000398306 0)
(-0.000969847 -0.000349958 0)
(-0.000699432 -0.000299057 0)
(-0.000468634 -0.000246141 0)
(-0.000278507 -0.000191946 0)
(-0.000129428 -0.000137476 0)
(-2.08873e-05 -8.41209e-05 0)
(4.87911e-05 -3.38162e-05 0)
(8.28017e-05 1.07294e-05 0)
(8.6194e-05 4.57399e-05 0)
(6.63516e-05 6.60418e-05 0)
(3.49039e-05 6.48022e-05 0)
(9.04848e-06 3.38211e-05 0)
(7.19842e-06 -5.01273e-05 0)
(2.44553e-05 -8.76187e-05 0)
(3.69784e-05 -7.75305e-05 0)
(2.78506e-05 -3.16406e-05 0)
(-1.50415e-05 3.90086e-05 0)
(-9.97777e-05 0.000125689 0)
(-0.00023184 0.000221915 0)
(-0.000414615 0.000322976 0)
(-0.000649788 0.000425419 0)
(-0.000937644 0.000526754 0)
(-0.00127741 0.000625164 0)
(-0.00166752 0.000719321 0)
(-0.00210572 0.000808268 0)
(-0.00258931 0.000891321 0)
(-0.00311525 0.000967986 0)
(-0.0036802 0.00103794 0)
(-0.00428064 0.00110096 0)
(-0.00491293 0.00115692 0)
(-0.00557335 0.00120578 0)
(-0.00625813 0.00124755 0)
(-0.0069635 0.00128227 0)
(-0.00768568 0.00131003 0)
(-0.00842095 0.00133096 0)
(-0.00916565 0.00134518 0)
(-0.00991616 0.00135286 0)
(-0.010669 0.00135417 0)
(-0.0114206 0.00134931 0)
(-0.0121678 0.00133847 0)
(-0.0129072 0.00132186 0)
(-0.0136358 0.00129969 0)
(-0.0143506 0.00127218 0)
(-0.0150485 0.00123955 0)
(-0.015727 0.00120204 0)
(-0.0163833 0.00115988 0)
(-0.0170149 0.00111329 0)
(-0.0176194 0.00106252 0)
(-0.0181946 0.00100779 0)
(-0.0187382 0.000949355 0)
(-0.0192484 0.000887454 0)
(-0.0197233 0.00082233 0)
(-0.0201612 0.000754232 0)
(-0.0205604 0.000683412 0)
(-0.0209195 0.000610121 0)
(-0.0212372 0.000534615 0)
(-0.0215124 0.000457153 0)
(-0.021744 0.000377993 0)
(-0.0219312 0.000297401 0)
(-0.0220733 0.000215644 0)
(-0.0221697 0.00013299 0)
(-0.0222199 4.97149e-05 0)
(-0.0222238 -3.3902e-05 0)
(-0.0221812 -0.00011758 0)
(-0.0220921 -0.000201037 0)
(-0.0219569 -0.000283984 0)
(-0.0217757 -0.000366129 0)
(-0.0215493 -0.000447177 0)
(-0.0212783 -0.000526828 0)
(-0.0209635 -0.00060478 0)
(-0.0206061 -0.000680728 0)
(-0.0202072 -0.000754367 0)
(-0.0197681 -0.000825384 0)
(-0.0192906 -0.000893472 0)
(-0.0187761 -0.000958322 0)
(-0.0182267 -0.00101963 0)
(-0.0176444 -0.0010771 0)
(-0.0170314 -0.00113043 0)
(-0.01639 -0.00117932 0)
(-0.0157229 -0.00122348 0)
(-0.0150326 -0.00126264 0)
(-0.0143221 -0.0012965 0)
(-0.0135943 -0.00132482 0)
(-0.0128524 -0.00134732 0)
(-0.0120996 -0.00136379 0)
(-0.0113393 -0.00137398 0)
(-0.010575 -0.00137769 0)
(-0.00981022 -0.00137473 0)
(-0.00904875 -0.00136492 0)
(-0.00829432 -0.00134811 0)
(-0.00755076 -0.00132419 0)
(-0.00682193 -0.00129307 0)
(-0.00611174 -0.0012547 0)
(-0.00542407 -0.00120905 0)
(-0.00476281 -0.00115617 0)
(-0.00413176 -0.00109615 0)
(-0.00353465 -0.00102913 0)
(-0.00297505 -0.000955349 0)
(-0.00245639 -0.000875138 0)
(-0.00198181 -0.000788954 0)
(-0.00155414 -0.000697408 0)
(-0.00117579 -0.000601316 0)
(-0.000848655 -0.000501759 0)
(-0.000573931 -0.000400169 0)
(-0.000351968 -0.000298452 0)
(-0.000182026 -0.000199155 0)
(-6.20043e-05 -0.000105685 0)
(1.18932e-05 -2.26143e-05 0)
(4.54563e-05 4.39596e-05 0)
(4.68827e-05 8.6054e-05 0)
(2.8502e-05 9.34414e-05 0)
(8.1243e-06 5.27427e-05 0)
(4.94294e-06 -6.13429e-05 0)
(1.11225e-05 -9.66943e-05 0)
(6.79672e-07 -6.70814e-05 0)
(-4.15561e-05 1.14295e-05 0)
(-0.00012705 0.000124529 0)
(-0.00026392 0.000260676 0)
(-0.000457753 0.000411024 0)
(-0.00071211 0.000568863 0)
(-0.00102876 0.000729157 0)
(-0.00140803 0.000888129 0)
(-0.00184908 0.00104293 0)
(-0.00235012 0.00119144 0)
(-0.00290864 0.0013321 0)
(-0.00352151 0.00146372 0)
(-0.00418517 0.00158547 0)
(-0.00489573 0.00169675 0)
(-0.00564903 0.00179717 0)
(-0.00644073 0.00188646 0)
(-0.00726638 0.00196449 0)
(-0.00812144 0.00203125 0)
(-0.00900136 0.00208677 0)
(-0.00990157 0.00213116 0)
(-0.0108175 0.00216458 0)
(-0.0117448 0.00218724 0)
(-0.0126789 0.00219937 0)
(-0.0136156 0.00220124 0)
(-0.0145507 0.00219313 0)
(-0.0154799 0.00217536 0)
(-0.0163994 0.00214825 0)
(-0.0173053 0.00211213 0)
(-0.0181938 0.00206736 0)
(-0.0190615 0.0020143 0)
(-0.0199048 0.0019533 0)
(-0.0207204 0.00188473 0)
(-0.0215053 0.00180899 0)
(-0.0222566 0.00172643 0)
(-0.0229712 0.00163746 0)
(-0.0236468 0.00154246 0)
(-0.0242807 0.00144182 0)
(-0.0248706 0.00133594 0)
(-0.0254145 0.00122523 0)
(-0.0259103 0.0011101 0)
(-0.0263563 0.000990946 0)
(-0.0267509 0.000868195 0)
(-0.0270925 0.000742265 0)
(-0.02738 0.000613583 0)
(-0.0276123 0.000482577 0)
(-0.0277885 0.000349683 0)
(-0.0279079 0.000215344 0)
(-0.0279699 8.00048e-05 0)
(-0.0279744 -5.58812e-05 0)
(-0.027921 -0.000191854 0)
(-0.02781 -0.00032745 0)
(-0.0276416 -0.000462201 0)
(-0.0274162 -0.000595633 0)
(-0.0271346 -0.000727262 0)
(-0.0267976 -0.000856605 0)
(-0.0264063 -0.000983171 0)
(-0.025962 -0.00110647 0)
(-0.0254663 -0.00122599 0)
(-0.0249207 -0.00134126 0)
(-0.0243273 -0.00145176 0)
(-0.0236882 -0.001557 0)
(-0.0230057 -0.00165648 0)
(-0.0222823 -0.00174973 0)
(-0.0215208 -0.00183626 0)
(-0.0207242 -0.00191559 0)
(-0.0198955 -0.00198726 0)
(-0.0190381 -0.00205081 0)
(-0.0181555 -0.00210581 0)
(-0.0172514 -0.00215182 0)
(-0.0163296 -0.00218845 0)
(-0.0153942 -0.00221531 0)
(-0.0144493 -0.00223205 0)
(-0.0134992 -0.00223833 0)
(-0.0125483 -0.00223387 0)
(-0.0116011 -0.00221839 0)
(-0.0106623 -0.00219168 0)
(-0.00973642 -0.00215356 0)
(-0.00882829 -0.00210391 0)
(-0.0079426 -0.00204266 0)
(-0.00708407 -0.00196984 0)
(-0.00625737 -0.00188551 0)
(-0.00546709 -0.00178986 0)
(-0.00471768 -0.00168319 0)
(-0.00401342 -0.0015659 0)
(-0.00335834 -0.00143859 0)
(-0.00275614 -0.00130203 0)
(-0.00221012 -0.00115726 0)
(-0.00172307 -0.00100562 0)
(-0.00129713 -0.000848872 0)
(-0.00093366 -0.000689285 0)
(-0.000633023 -0.000529811 0)
(-0.000394401 -0.000374287 0)
(-0.00021552 -0.000227706 0)
(-9.23701e-05 -9.65575e-05 0)
(-1.89295e-05 1.07531e-05 0)
(1.32033e-05 8.35023e-05 0)
(1.60168e-05 0.000108132 0)
(5.93749e-06 6.63652e-05 0)
(2.08713e-06 -6.45156e-05 0)
(-5.64066e-06 -8.51919e-05 0)
(-4.43136e-05 -2.5049e-05 0)
(-0.0001261 9.62199e-05 0)
(-0.000261071 0.000261388 0)
(-0.000456871 0.000456391 0)
(-0.00071883 0.000670125 0)
(-0.00105029 0.000894005 0)
(-0.00145289 0.00112138 0)
(-0.00192684 0.00134713 0)
(-0.00247114 0.00156732 0)
(-0.00308378 0.00177894 0)
(-0.00376193 0.00197972 0)
(-0.00450212 0.00216792 0)
(-0.00530037 0.00234228 0)
(-0.00615226 0.00250186 0)
(-0.00705309 0.00264602 0)
(-0.00799794 0.00277433 0)
(-0.00898171 0.00288656 0)
(-0.00999921 0.00298259 0)
(-0.0110452 0.00306246 0)
(-0.0121143 0.00312628 0)
(-0.0132015 0.00317425 0)
(-0.0143014 0.00320663 0)
(-0.0154089 0.00322374 0)
(-0.0165191 0.00322594 0)
(-0.0176269 0.00321364 0)
(-0.0187276 0.00318727 0)
(-0.0198164 0.00314728 0)
(-0.020889 0.00309416 0)
(-0.0219408 0.0030284 0)
(-0.0229678 0.00295052 0)
(-0.0239658 0.00286105 0)
(-0.024931 0.00276051 0)
(-0.0258597 0.00264946 0)
(-0.0267485 0.00252845 0)
(-0.027594 0.00239805 0)
(-0.0283931 0.00225882 0)
(-0.0291429 0.00211134 0)
(-0.0298406 0.00195619 0)
(-0.0304838 0.00179396 0)
(-0.0310701 0.00162526 0)
(-0.0315974 0.00145067 0)
(-0.0320638 0.00127082 0)
(-0.0324677 0.00108632 0)
(-0.0328074 0.000897798 0)
(-0.0330818 0.000705881 0)
(-0.0332899 0.000511209 0)
(-0.0334307 0.000314432 0)
(-0.0335037 0.000116205 0)
(-0.0335086 -8.28051e-05 0)
(-0.0334452 -0.000281928 0)
(-0.0333135 -0.000480482 0)
(-0.033114 -0.000677779 0)
(-0.0328472 -0.000873122 0)
(-0.0325139 -0.00106581 0)
(-0.0321151 -0.00125512 0)
(-0.0316521 -0.00144036 0)
(-0.0311265 -0.00162079 0)
(-0.03054 -0.00179569 0)
(-0.0298948 -0.00196435 0)
(-0.0291929 -0.00212602 0)
(-0.028437 -0.00227999 0)
(-0.0276299 -0.00242555 0)
(-0.0267744 -0.00256199 0)
(-0.0258738 -0.0026886 0)
(-0.0249316 -0.00280469 0)
(-0.0239516 -0.0029096 0)
(-0.0229374 -0.00300266 0)
(-0.0218935 -0.00308324 0)
(-0.0208239 -0.00315074 0)
(-0.0197333 -0.00320456 0)
(-0.0186263 -0.00324417 0)
(-0.0175078 -0.00326906 0)
(-0.0163828 -0.00327876 0)
(-0.0152565 -0.00327286 0)
(-0.0141341 -0.00325099 0)
(-0.013021 -0.00321286 0)
(-0.0119226 -0.00315823 0)
(-0.0108444 -0.00308696 0)
(-0.00979179 -0.00299898 0)
(-0.00877029 -0.00289434 0)
(-0.00778525 -0.00277322 0)
(-0.00684193 -0.0026359 0)
(-0.00594543 -0.00248285 0)
(-0.00510062 -0.00231475 0)
(-0.00431207 -0.00213248 0)
(-0.00358396 -0.00193723 0)
(-0.00292001 -0.00173053 0)
(-0.00232334 -0.00151435 0)
(-0.00179636 -0.0012912 0)
(-0.0013406 -0.0010643 0)
(-0.000956547 -0.000837726 0)
(-0.000643465 -0.000616656 0)
(-0.000399143 -0.00040769 0)
(-0.000219676 -0.000219198 0)
(-9.92127e-05 -6.17843e-05 0)
(-2.96254e-05 5.12783e-05 0)
(-6.41925e-08 0.000103411 0)
(3.12482e-06 7.2273e-05 0)
(-1.05352e-06 -5.83861e-05 0)
(-2.43108e-05 -4.97792e-05 0)
(-9.45957e-05 5.3237e-05 0)
(-0.000220299 0.000228145 0)
(-0.000409555 0.000455323 0)
(-0.000669232 0.000718435 0)
(-0.00100402 0.00100442 0)
(-0.00141681 0.0013029 0)
(-0.00190889 0.00160569 0)
(-0.00248019 0.00190635 0)
(-0.00312943 0.00219982 0)
(-0.00385432 0.00248218 0)
(-0.00465173 0.00275038 0)
(-0.00551782 0.00300208 0)
(-0.0064482 0.00323551 0)
(-0.00743803 0.00344938 0)
(-0.00848211 0.00364274 0)
(-0.00957498 0.00381495 0)
(-0.010711 0.00396563 0)
(-0.0118843 0.00409458 0)
(-0.0130892 0.00420177 0)
(-0.0143196 0.00428733 0)
(-0.0155698 0.00435147 0)
(-0.0168338 0.00439452 0)
(-0.0181059 0.00441689 0)
(-0.0193805 0.00441902 0)
(-0.0206518 0.00440145 0)
(-0.0219146 0.00436474 0)
(-0.0231635 0.0043095 0)
(-0.0243934 0.00423637 0)
(-0.0255993 0.00414601 0)
(-0.0267765 0.00403911 0)
(-0.0279203 0.00391639 0)
(-0.0290263 0.00377856 0)
(-0.0300904 0.00362636 0)
(-0.0311087 0.00346057 0)
(-0.0320772 0.00328193 0)
(-0.0329925 0.00309122 0)
(-0.0338512 0.00288923 0)
(-0.0346502 0.00267677 0)
(-0.0353867 0.00245462 0)
(-0.036058 0.00222362 0)
(-0.0366617 0.00198459 0)
(-0.0371956 0.00173836 0)
(-0.0376577 0.00148578 0)
(-0.0380465 0.0012277 0)
(-0.0383605 0.000964991 0)
(-0.0385984 0.000698531 0)
(-0.0387593 0.000429207 0)
(-0.0388427 0.000157918 0)
(-0.0388479 -0.000114425 0)
(-0.038775 -0.000386901 0)
(-0.038624 -0.000658578 0)
(-0.0383953 -0.000928514 0)
(-0.0380895 -0.00119575 0)
(-0.0377076 -0.00145934 0)
(-0.0372508 -0.0017183 0)
(-0.0367205 -0.00197165 0)
(-0.0361186 -0.00221843 0)
(-0.035447 -0.00245763 0)
(-0.0347081 -0.00268827 0)
(-0.0339044 -0.00290937 0)
(-0.0330388 -0.00311995 0)
(-0.0321145 -0.00331903 0)
(-0.0311349 -0.00350564 0)
(-0.0301036 -0.00367885 0)
(-0.0290246 -0.0038377 0)
(-0.027902 -0.00398131 0)
(-0.0267404 -0.00410876 0)
(-0.0255444 -0.00421922 0)
(-0.0243189 -0.00431186 0)
(-0.023069 -0.00438591 0)
(-0.0218001 -0.00444063 0)
(-0.0205176 -0.00447535 0)
(-0.0192272 -0.00448946 0)
(-0.0179347 -0.0044824 0)
(-0.0166461 -0.00445372 0)
(-0.0153674 -0.00440302 0)
(-0.0141047 -0.00433003 0)
(-0.0128642 -0.00423457 0)
(-0.0116519 -0.00411661 0)
(-0.010474 -0.00397625 0)
(-0.00933645 -0.00381375 0)
(-0.00824513 -0.00362957 0)
(-0.00720571 -0.00342439 0)
(-0.00622358 -0.00319917 0)
(-0.0053038 -0.00295516 0)
(-0.00445099 -0.00269402 0)
(-0.00366926 -0.00241782 0)
(-0.00296206 -0.00212923 0)
(-0.00233209 -0.00183158 0)
(-0.00178114 -0.00152907 0)
(-0.00130991 -0.00122692 0)
(-0.00091791 -0.00093168 0)
(-0.000603192 -0.000651489 0)
(-0.000362232 -0.000396501 0)
(-0.000189668 -0.000179333 0)
(-7.80203e-05 -1.55233e-05 0)
(-1.81372e-05 7.57908e-05 0)
(3.59466e-08 6.91678e-05 0)
(-4.27439e-06 -4.23067e-05 0)
(-4.39114e-05 1.15487e-05 0)
(-0.000147815 0.000170794 0)
(-0.000320188 0.000410918 0)
(-0.000566973 0.000710327 0)
(-0.000893942 0.00105086 0)
(-0.00130494 0.00141771 0)
(-0.00180217 0.00179888 0)
(-0.00238639 0.00218478 0)
(-0.0030571 0.00256769 0)
(-0.00381264 0.00294147 0)
(-0.00465036 0.00330127 0)
(-0.00556678 0.00364324 0)
(-0.00655769 0.00396443 0)
(-0.0076183 0.00426252 0)
(-0.00874335 0.0045358 0)
(-0.00992718 0.00478299 0)
(-0.0111639 0.00500323 0)
(-0.0124472 0.00519594 0)
(-0.013771 0.00536082 0)
(-0.0151286 0.00549777 0)
(-0.0165138 0.0056069 0)
(-0.0179201 0.00568845 0)
(-0.0193409 0.00574279 0)
(-0.0207701 0.00577041 0)
(-0.0222012 0.00577187 0)
(-0.0236281 0.00574781 0)
(-0.0250449 0.00569896 0)
(-0.0264457 0.00562607 0)
(-0.0278247 0.00552996 0)
(-0.0291766 0.00541147 0)
(-0.0304959 0.00527148 0)
(-0.0317776 0.00511092 0)
(-0.0330168 0.00493071 0)
(-0.0342089 0.00473181 0)
(-0.0353494 0.0045152 0)
(-0.036434 0.00428187 0)
(-0.037459 0.00403283 0)
(-0.0384205 0.0037691 0)
(-0.0393151 0.00349172 0)
(-0.0401395 0.00320174 0)
(-0.0408909 0.00290022 0)
(-0.0415666 0.00258824 0)
(-0.042164 0.00226689 0)
(-0.0426812 0.00193728 0)
(-0.0431162 0.00160052 0)
(-0.0434674 0.00125774 0)
(-0.0437334 0.000910085 0)
(-0.0439134 0.000558717 0)
(-0.0440064 0.000204809 0)
(-0.0440121 -0.000150451 0)
(-0.0439302 -0.000505863 0)
(-0.043761 -0.000860209 0)
(-0.0435048 -0.00121226 0)
(-0.0431624 -0.00156078 0)
(-0.0427349 -0.00190451 0)
(-0.0422235 -0.0022422 0)
(-0.0416299 -0.00257256 0)
(-0.0409561 -0.00289433 0)
(-0.0402043 -0.00320623 0)
(-0.0393772 -0.00350697 0)
(-0.0384775 -0.00379527 0)
(-0.0375086 -0.00406987 0)
(-0.0364739 -0.00432951 0)
(-0.0353772 -0.00457293 0)
(-0.0342225 -0.00479891 0)
(-0.0330143 -0.00500624 0)
(-0.0317573 -0.00519375 0)
(-0.0304562 -0.0053603 0)
(-0.0291164 -0.00550478 0)
(-0.0277433 -0.00562615 0)
(-0.0263425 -0.00572342 0)
(-0.02492 -0.00579564 0)
(-0.0234817 -0.00584197 0)
(-0.022034 -0.00586163 0)
(-0.0205834 -0.00585393 0)
(-0.0191363 -0.00581829 0)
(-0.0176993 -0.00575426 0)
(-0.0162793 -0.00566149 0)
(-0.014883 -0.00553981 0)
(-0.013517 -0.0053892 0)
(-0.0121881 -0.00520984 0)
(-0.0109028 -0.00500211 0)
(-0.00966754 -0.00476667 0)
(-0.00848852 -0.00450443 0)
(-0.0073716 -0.00421669 0)
(-0.0063223 -0.00390509 0)
(-0.00534566 -0.00357179 0)
(-0.00444617 -0.00321948 0)
(-0.00362764 -0.00285153 0)
(-0.0028931 -0.00247215 0)
(-0.00224466 -0.00208649 0)
(-0.00168338 -0.00170096 0)
(-0.00120912 -0.00132338 0)
(-0.000820406 -0.000963371 0)
(-0.000514306 -0.000632714 0)
(-0.000286195 -0.000345811 0)
(-0.000129521 -0.000120124 0)
(-3.71816e-05 2.31615e-05 0)
(-3.13449e-06 5.63891e-05 0)
(-7.48066e-06 -1.60332e-05 0)
(-6.38297e-05 9.98125e-05 0)
(-0.000202359 0.000329409 0)
(-0.000423005 0.000646827 0)
(-0.000729304 0.00102906 0)
(-0.00112579 0.00145643 0)
(-0.00161529 0.00191265 0)
(-0.00219913 0.00238436 0)
(-0.00287739 0.00286064 0)
(-0.003649 0.00333261 0)
(-0.00451184 0.0037931 0)
(-0.00546282 0.00423635 0)
(-0.00649805 0.00465773 0)
(-0.00761292 0.00505363 0)
(-0.00880223 0.00542121 0)
(-0.0100603 0.0057583 0)
(-0.0113811 0.00606329 0)
(-0.0127581 0.00633503 0)
(-0.0141848 0.00657276 0)
(-0.0156543 0.00677603 0)
(-0.0171598 0.00694469 0)
(-0.0186942 0.0070788 0)
(-0.0202506 0.00717861 0)
(-0.0218221 0.00724454 0)
(-0.0234017 0.00727715 0)
(-0.0249827 0.00727712 0)
(-0.0265583 0.00724522 0)
(-0.0281221 0.00718232 0)
(-0.0296676 0.00708935 0)
(-0.0311888 0.00696729 0)
(-0.0326795 0.00681721 0)
(-0.034134 0.00664018 0)
(-0.0355467 0.00643734 0)
(-0.0369123 0.00620986 0)
(-0.0382257 0.00595892 0)
(-0.0394821 0.00568574 0)
(-0.0406769 0.00539157 0)
(-0.0418057 0.00507767 0)
(-0.0428646 0.00474532 0)
(-0.0438496 0.00439582 0)
(-0.0447573 0.0040305 0)
(-0.0455845 0.00365068 0)
(-0.0463283 0.00325773 0)
(-0.0469859 0.00285302 0)
(-0.0475551 0.00243793 0)
(-0.0480338 0.00201386 0)
(-0.0484202 0.00158225 0)
(-0.048713 0.00114454 0)
(-0.0489109 0.00070217 0)
(-0.0490132 0.000256634 0)
(-0.0490193 -0.000190578 0)
(-0.0489292 -0.000637956 0)
(-0.0487428 -0.00108397 0)
(-0.0484608 -0.00152708 0)
(-0.0480839 -0.00196572 0)
(-0.0476133 -0.00239832 0)
(-0.0470504 -0.0028233 0)
(-0.046397 -0.00323906 0)
(-0.0456553 -0.00364401 0)
(-0.0448279 -0.00403654 0)
(-0.0439174 -0.00441505 0)
(-0.0429271 -0.00477794 0)
(-0.0418604 -0.00512361 0)
(-0.0407213 -0.0054505 0)
(-0.0395137 -0.00575704 0)
(-0.0382422 -0.00604171 0)
(-0.0369116 -0.00630299 0)
(-0.0355269 -0.00653943 0)
(-0.0340935 -0.00674962 0)
(-0.0326171 -0.00693217 0)
(-0.0311036 -0.00708581 0)
(-0.0295592 -0.00720929 0)
(-0.0279902 -0.00730147 0)
(-0.0264033 -0.00736129 0)
(-0.0248054 -0.00738782 0)
(-0.0232033 -0.00738022 0)
(-0.0216042 -0.00733779 0)
(-0.0200152 -0.00725999 0)
(-0.0184437 -0.00714644 0)
(-0.016897 -0.00699695 0)
(-0.0153823 -0.00681154 0)
(-0.0139068 -0.00659049 0)
(-0.0124777 -0.00633431 0)
(-0.0111018 -0.00604387 0)
(-0.00978582 -0.00572037 0)
(-0.0085361 -0.00536542 0)
(-0.00735859 -0.00498114 0)
(-0.00625875 -0.00457018 0)
(-0.00524147 -0.00413587 0)
(-0.00431096 -0.00368232 0)
(-0.00347062 -0.00321458 0)
(-0.00272297 -0.0027388 0)
(-0.00206952 -0.00226246 0)
(-0.00151062 -0.00179465 0)
(-0.00104542 -0.00134631 0)
(-0.000671754 -0.00093069 0)
(-0.000385919 -0.000563716 0)
(-0.000182476 -0.000264433 0)
(-5.6561e-05 -5.55872e-05 0)
(-6.28203e-06 3.3686e-05 0)
(-1.06181e-05 2.04277e-05 0)
(-8.36707e-05 0.00021542 0)
(-0.00025719 0.000529917 0)
(-0.000526834 0.000937159 0)
(-0.000893703 0.00141309 0)
(-0.00136101 0.00193688 0)
(-0.0019304 0.00249103 0)
(-0.00260223 0.00306097 0)
(-0.00337578 0.00363466 0)
(-0.00424931 0.00420215 0)
(-0.00522011 0.00475531 0)
(-0.0062846 0.00528749 0)
(-0.00743842 0.00579336 0)
(-0.00867651 0.00626863 0)
(-0.00999327 0.00670993 0)
(-0.0113826 0.00711464 0)
(-0.0128379 0.0074808 0)
(-0.0143524 0.00780697 0)
(-0.0159191 0.00809218 0)
(-0.0175306 0.00833584 0)
(-0.0191796 0.00853771 0)
(-0.0208587 0.0086978 0)
(-0.0225603 0.00881638 0)
(-0.0242771 0.0088939 0)
(-0.0260017 0.00893101 0)
(-0.0277268 0.00892849 0)
(-0.0294451 0.00888724 0)
(-0.0311499 0.00880829 0)
(-0.032834 0.00869274 0)
(-0.0344911 0.00854178 0)
(-0.0361144 0.00835667 0)
(-0.037698 0.00813872 0)
(-0.0392357 0.00788928 0)
(-0.0407218 0.00760978 0)
(-0.0421509 0.00730166 0)
(-0.0435177 0.00696639 0)
(-0.0448172 0.00660548 0)
(-0.0460448 0.00622049 0)
(-0.0471962 0.00581296 0)
(-0.0482672 0.00538449 0)
(-0.0492541 0.00493669 0)
(-0.0501534 0.00447119 0)
(-0.0509618 0.00398965 0)
(-0.0516766 0.00349375 0)
(-0.0522953 0.00298517 0)
(-0.0528155 0.00246565 0)
(-0.0532355 0.00193692 0)
(-0.0535536 0.00140075 0)
(-0.0537687 0.000858916 0)
(-0.0538799 0.000313231 0)
(-0.0538866 -0.000234479 0)
(-0.0537887 -0.000782367 0)
(-0.0535862 -0.00132856 0)
(-0.0532799 -0.00187118 0)
(-0.0528704 -0.00240832 0)
(-0.052359 -0.00293805 0)
(-0.0517475 -0.00345845 0)
(-0.0510375 -0.00396757 0)
(-0.0502317 -0.00446347 0)
(-0.0493325 -0.00494418 0)
(-0.048343 -0.00540775 0)
(-0.0472667 -0.00585225 0)
(-0.0461073 -0.00627573 0)
(-0.0448689 -0.00667627 0)
(-0.043556 -0.007052 0)
(-0.0421734 -0.00740103 0)
(-0.0407263 -0.00772156 0)
(-0.0392201 -0.00801182 0)
(-0.0376605 -0.00827008 0)
(-0.0360538 -0.0084947 0)
(-0.0344062 -0.00868411 0)
(-0.0327244 -0.00883683 0)
(-0.0310152 -0.00895149 0)
(-0.0292858 -0.00902683 0)
(-0.0275434 -0.00906171 0)
(-0.0257956 -0.00905517 0)
(-0.02405 -0.00900638 0)
(-0.0223143 -0.00891471 0)
(-0.0205962 -0.00877974 0)
(-0.0189036 -0.00860128 0)
(-0.0172442 -0.0083794 0)
(-0.0156258 -0.00811446 0)
(-0.014056 -0.00780715 0)
(-0.0125421 -0.00745855 0)
(-0.0110913 -0.00707015 0)
(-0.00971033 -0.00664394 0)
(-0.00840563 -0.00618246 0)
(-0.00718307 -0.00568893 0)
(-0.00604797 -0.00516729 0)
(-0.00500498 -0.0046224 0)
(-0.00405794 -0.00406014 0)
(-0.00320986 -0.00348759 0)
(-0.00246276 -0.0029133 0)
(-0.00181763 -0.00234746 0)
(-0.00127435 -0.00180226 0)
(-0.000831641 -0.00129219 0)
(-0.000486863 -0.000834476 0)
(-0.000235798 -0.000449417 0)
(-7.58857e-05 -0.000160893 0)
(-9.35327e-06 1.05336e-06 0)
(-1.36556e-05 6.69453e-05 0)
(-0.000103224 0.000358319 0)
(-0.000311623 0.000772553 0)
(-0.000630385 0.00128244 0)
(-0.0010582 0.0018632 0)
(-0.00159689 0.00249316 0)
(-0.00224689 0.00315386 0)
(-0.00300747 0.00382972 0)
(-0.00387702 0.00450771 0)
(-0.00485303 0.00517695 0)
(-0.00593216 0.00582841 0)
(-0.00711023 0.00645467 0)
(-0.00838237 0.00704966 0)
(-0.00974304 0.0076085 0)
(-0.0111862 0.00812728 0)
(-0.0127052 0.00860295 0)
(-0.0142932 0.00903318 0)
(-0.0159429 0.00941624 0)
(-0.0176467 0.00975096 0)
(-0.0193971 0.0100366 0)
(-0.0211861 0.0102728 0)
(-0.0230059 0.0104595 0)
(-0.0248485 0.0105971 0)
(-0.0267062 0.0106859 0)
(-0.028571 0.0107268 0)
(-0.0304352 0.0107206 0)
(-0.0322913 0.0106683 0)
(-0.0341318 0.0105712 0)
(-0.0359493 0.0104306 0)
(-0.0377369 0.0102477 0)
(-0.0394876 0.0100241 0)
(-0.0411949 0.00976144 0)
(-0.0428524 0.00946119 0)
(-0.0444539 0.00912506 0)
(-0.0459935 0.00875476 0)
(-0.0474659 0.00835207 0)
(-0.0488655 0.00791877 0)
(-0.0501875 0.00745669 0)
(-0.0514273 0.00696771 0)
(-0.0525804 0.00645371 0)
(-0.0536428 0.00591663 0)
(-0.0546108 0.0053584 0)
(-0.055481 0.00478102 0)
(-0.0562504 0.00418648 0)
(-0.0569162 0.00357682 0)
(-0.0574762 0.00295408 0)
(-0.0579282 0.00232037 0)
(-0.0582707 0.00167777 0)
(-0.0585023 0.00102843 0)
(-0.0586221 0.000374511 0)
(-0.0586295 -0.000281808 0)
(-0.0585244 -0.000938314 0)
(-0.0583068 -0.00159278 0)
(-0.0579775 -0.00224294 0)
(-0.0575372 -0.00288653 0)
(-0.0569873 -0.00352125 0)
(-0.0563296 -0.0041448 0)
(-0.055566 -0.00475486 0)
(-0.0546991 -0.0053491 0)
(-0.0537318 -0.0059252 0)
(-0.0526672 -0.00648082 0)
(-0.051509 -0.00701366 0)
(-0.0502613 -0.0075214 0)
(-0.0489284 -0.00800177 0)
(-0.0475151 -0.00845252 0)
(-0.0460264 -0.00887144 0)
(-0.0444679 -0.00925637 0)
(-0.0428454 -0.00960521 0)
(-0.0411651 -0.00991592 0)
(-0.0394334 -0.0101866 0)
(-0.0376571 -0.0104153 0)
(-0.0358432 -0.0106003 0)