/*--------------------------------*- C++ -*----------------------------------*\
  =========                 |
  \\      /  F ield         | OpenFOAM: The Open Source CFD Toolbox
   \\    /   O peration     | Website:  https://openfoam.org
    \\  /    A nd           | Version:  11
     \\/     M anipulation  |
\*---------------------------------------------------------------------------*/
FoamFile
{
    format      ascii;
    class       volScalarField;
    location    "9";
    object      p;
}
// * * * * * * * * * * * * * * * * * * * * * * * * * * * * * * * * * * * * * //

dimensions      [0 2 -2 0 0 0 0];

internalField   nonuniform List<scalar> 
10100
(
-5.44447e-08
9.42904e-05
-0.000125394
-0.000705719
-0.00159746
-0.00274434
-0.00408986
-0.00557953
-0.00716433
-0.00880105
-0.0104517
-0.0120832
-0.0136667
-0.0151772
-0.0165932
-0.0178961
-0.0190698
-0.0201009
-0.0209781
-0.0216922
-0.0222356
-0.0226024
-0.0227881
-0.0227892
-0.022604
-0.0222316
-0.0216719
-0.020926
-0.0199959
-0.0188842
-0.0175945
-0.016131
-0.0144984
-0.0127021
-0.010748
-0.00864259
-0.00639275
-0.00400595
-0.00149012
0.00114639
0.00389483
0.00674609
0.00969074
0.0127191
0.0158212
0.0189869
0.0222058
0.0254671
0.0287599
0.0320733
0.0353962
0.0387174
0.0420259
0.0453103
0.0485595
0.0517623
0.0549073
0.0579837
0.0609804
0.0638868
0.0666925
0.0693872
0.0719609
0.0744039
0.0767071
0.0788618
0.0808599
0.082694
0.0843572
0.085843
0.087146
0.0882614
0.0891854
0.0899151
0.0904486
0.0907849
0.0909247
0.0908694
0.090622
0.090187
0.0895703
0.0887794
0.0878238
0.0867143
0.0854642
0.0840888
0.0826057
0.0810353
0.0794009
0.077729
0.0760497
0.0743967
0.0728084
0.0713277
0.0700024
0.0688847
0.0680276
0.0674816
0.0672885
0.0673954
-9.32422e-05
-1.30041e-06
-0.000216147
-0.000735186
-0.00150808
-0.00249563
-0.00365622
-0.00494707
-0.0063274
-0.00776014
-0.00921178
-0.0106523
-0.012055
-0.0133965
-0.0146564
-0.0158167
-0.0168619
-0.0177788
-0.0185562
-0.0191849
-0.0196572
-0.0199672
-0.0201099
-0.0200818
-0.0198806
-0.0195048
-0.0189543
-0.0182297
-0.0173326
-0.0162652
-0.0150306
-0.0136326
-0.0120754
-0.0103638
-0.0085034
-0.0065001
-0.00436042
-0.00209134
0.000299735
0.00280489
0.00541595
0.00812433
0.0109211
0.013797
0.0167429
0.0197489
0.0228051
0.0259015
0.0290275
0.0321727
0.0353269
0.0384793
0.0416194
0.0447365
0.04782
0.0508592
0.0538435
0.0567626
0.0596062
0.0623641
0.0650267
0.0675842
0.0700272
0.0723467
0.0745342
0.0765817
0.0784815
0.0802269
0.0818114
0.0832294
0.0844758
0.0855462
0.0864376
0.0871474
0.0876741
0.0880173
0.0881778
0.0881575
0.0879595
0.0875884
0.0870504
0.086353
0.0855055
0.0845186
0.0834052
0.08218
0.0808601
0.0794648
0.0780161
0.0765387
0.0750602
0.0736112
0.0722251
0.070939
0.0697925
0.0688265
0.0680797
0.0675871
0.0673947
0.0675021
0.000125749
0.000210642
-5.18023e-06
-0.000493003
-0.00119844
-0.00208898
-0.00313115
-0.00428928
-0.00552878
-0.00681729
-0.00812524
-0.00942547
-0.0106936
-0.0119078
-0.0130488
-0.0140996
-0.0150455
-0.0158735
-0.0165729
-0.0171344
-0.0175505
-0.0178153
-0.0179239
-0.0178725
-0.0176584
-0.0172801
-0.016737
-0.0160297
-0.0151593
-0.0141278
-0.012938
-0.0115931
-0.0100972
-0.00845474
-0.00667076
-0.00475084
-0.00270111
-0.000528221
0.00176087
0.00415867
0.00665735
0.00924881
0.0119245
0.0146758
0.0174937
0.0203691
0.0232923
0.0262536
0.0292431
0.0322509
0.0352671
0.0382816
0.0412841
0.0442646
0.0472129
0.0501187
0.0529721
0.0557631
0.058482
0.0611192
0.0636655
0.0661116
0.0684485
0.0706678
0.0727616
0.0747222
0.0765426
0.0782163
0.0797374
0.0811007
0.0823014
0.0833358
0.0842009
0.0848945
0.0854157
0.0857641
0.0859409
0.085948
0.0857887
0.0854678
0.0849912
0.0843667
0.083603
0.0827108
0.0817023
0.0805917
0.0793953
0.0781313
0.0768204
0.0754855
0.0741517
0.0728467
0.0716001
0.0704441
0.0694125
0.0685396
0.0678565
0.0673929
0.0672012
0.0673097
0.000700417
0.000724543
0.000476393
-1.22858e-05
-0.000691634
-0.00153208
-0.00250467
-0.00357862
-0.00472398
-0.00591242
-0.00711746
-0.00831481
-0.00948222
-0.0105996
-0.0116491
-0.0126147
-0.0134823
-0.0142399
-0.014877
-0.0153847
-0.0157557
-0.015984
-0.0160647
-0.0159943
-0.0157699
-0.0153898
-0.0148533
-0.0141607
-0.013313
-0.012312
-0.0111601
-0.00986031
-0.00841642
-0.00683255
-0.00511347
-0.00326447
-0.0012913
0.000799737
0.00300198
0.00530836
0.00771133
0.0102031
0.0127756
0.0154207
0.0181296
0.0208936
0.0237035
0.0265497
0.029423
0.0323139
0.0352127
0.0381098
0.0409954
0.0438598
0.0466932
0.0494858
0.0522281
0.0549106
0.057524
0.0600591
0.0625071
0.0648591
0.0671065
0.0692414
0.0712562
0.0731438
0.0748974
0.0765108
0.0779787
0.079296
0.0804584
0.0814625
0.0823054
0.0829854
0.0835015
0.0838537
0.0840433
0.0840723
0.083944
0.0836631
0.0832356
0.0826689
0.0819715
0.0811535
0.0802267
0.0792047
0.0781028
0.0769381
0.0757296
0.0744987
0.0732682
0.072063
0.0709097
0.0698364
0.0688726
0.0680481
0.0673904
0.0669268
0.0667074
0.0667654
0.00158379
0.00149195
0.00117591
0.000658474
-2.29039e-05
-0.000842117
-0.00177365
-0.00279107
-0.00386857
-0.00498139
-0.00610618
-0.00722121
-0.00830639
-0.00934349
-0.010316
-0.0112092
-0.0120099
-0.0127066
-0.0132896
-0.0137505
-0.0140819
-0.0142782
-0.0143347
-0.0142476
-0.0140144
-0.0136332
-0.0131033
-0.0124247
-0.0115983
-0.0106257
-0.00950913
-0.00825134
-0.00685579
-0.00532642
-0.00366768
-0.00188461
1.73033e-05
0.00203214
0.00415355
0.00637474
0.00868858
0.0110876
0.013564
0.0161101
0.0187176
0.0213779
0.0240821
0.0268213
0.0295865
0.0323685
0.0351582
0.0379462
0.0407232
0.0434798
0.0462067
0.0488943
0.0515336
0.0541156
0.0566314
0.0590721
0.0614291
0.0636941
0.0658589
0.0679159
0.069858
0.0716783
0.0733703
0.0749283
0.0763472
0.0776222
0.0787493
0.0797253
0.0805476
0.0812146
0.0817255
0.0820805
0.0822809
0.0823287
0.0822273
0.0819812
0.0815962
0.0810794
0.0804391
0.0796846
0.0788273
0.0778799
0.0768569
0.075774
0.0746489
0.0735008
0.0723506
0.0712206
0.0701344
0.0691167
0.0681931
0.0673895
0.0667301
0.0662398
0.065958
0.06591
0.00272453
0.00247691
0.00206338
0.00149228
0.000783659
-3.9556e-05
-0.000955233
-0.00194077
-0.00297399
-0.00403346
-0.00509877
-0.00615065
-0.00717111
-0.00814367
-0.00905341
-0.00988674
-0.0106315
-0.011277
-0.0118142
-0.012235
-0.0125327
-0.0127017
-0.0127375
-0.0126366
-0.0123962
-0.0120148
-0.0114915
-0.0108263
-0.0100199
-0.00907369
-0.00798979
-0.00677082
-0.00541995
-0.00394088
-0.00233786
-0.000615648
0.00122049
0.00316497
0.00521176
0.00735427
0.00958571
0.011899
0.0142868
0.0167416
0.0192554
0.0218198
0.0244265
0.027067
0.0297325
0.0324142
0.0351033
0.0377908
0.0404678
0.0431252
0.045754
0.0483452
0.05089
0.0533799
0.0558061
0.0581601
0.0604339
0.0626193
0.0647085
0.0666943
0.0685699
0.0703287
0.0719646
0.073472
0.0748461
0.0760824
0.0771772
0.0781273
0.0789305
0.0795852
0.0800907
0.0804474
0.0806564
0.08072
0.0806412
0.0804245
0.0800755
0.0796009
0.0790084
0.078307
0.0775071
0.0766209
0.0756617
0.0746441
0.0735841
0.0724992
0.0714082
0.0703309
0.0692883
0.0683019
0.067394
0.0665865
0.0659011
0.0653598
0.0649859
0.0647914
0.00407116
0.00364209
0.00310858
0.00246266
0.0017051
0.000855419
-6.67407e-05
-0.00104256
-0.00205308
-0.00307982
-0.00410506
-0.00511193
-0.00608441
-0.00700774
-0.00786847
-0.00865426
-0.00935404
-0.009958
-0.0104576
-0.0108455
-0.0111153
-0.0112617
-0.0112806
-0.0111685
-0.0109229
-0.0105423
-0.0100257
-0.00937323
-0.00858543
-0.00766363
-0.00660976
-0.00542632
-0.00411627
-0.00268314
-0.00113103
0.000535603
0.00231178
0.00419206
0.0061707
0.00824142
0.0103977
0.0126328
0.0149398
0.0173112
0.0197394
0.0222165
0.0247344
0.0272849
0.0298595
0.0324498
0.0350474
0.0376436
0.0402297
0.042797
0.0453368
0.0478405
0.0502997
0.052706
0.0550512
0.057327
0.0595254
0.0616389
0.0636599
0.0655816
0.0673973
0.0691007
0.0706858
0.0721476
0.0734813
0.0746828
0.0757483
0.0766748
0.0774603
0.0781034
0.0786034
0.0789606
0.0791761
0.0792522
0.0791919
0.0789992
0.0786796
0.0782393
0.0776855
0.0770266
0.0762725
0.0754343
0.0745244
0.073556
0.0725438
0.0715034
0.0704517
0.0694064
0.0683858
0.0674088
0.0664943
0.0656611
0.0649284
0.0643152
0.0638266
0.0634588
0.00557544
0.00494909
0.00427958
0.00354216
0.00271775
0.00182313
0.000875544
-0.000109352
-0.00111573
-0.00212774
-0.00313003
-0.00410793
-0.00504743
-0.00593533
-0.00675956
-0.00750916
-0.00817406
-0.00874536
-0.00921518
-0.00957673
-0.00982419
-0.00995264
-0.00995811
-0.00983752
-0.00958854
-0.00920962
-0.0087
-0.00805967
-0.00728925
-0.00638999
-0.00536366
-0.00421264
-0.00293983
-0.00154854
-4.26891e-05
0.0015734
0.00329504
0.00511701
0.00703371
0.00903917
0.0111272
0.0132913
0.0155248
0.0178206
0.0201712
0.022569
0.0250063
0.0274751
0.0299674
0.032475
0.0349897
0.0375033
0.0400072
0.0424931
0.0449526
0.0473774
0.0497595
0.0520907
0.0543629
0.0565682
0.058699
0.060748
0.0627079
0.0645721
0.066334
0.0679877
0.0695275
0.0709484
0.072246
0.0734162
0.0744552
0.0753604
0.0761297
0.0767618
0.077256
0.0776126
0.0778326
0.0779183
0.0778723
0.0776987
0.0774023
0.0769889
0.0764654
0.0758395
0.0751203
0.0743181
0.0734442
0.0725106
0.0715306
0.0705182
0.0694885
0.068457
0.0674398
0.0664532
0.0655133
0.064636
0.0638383
0.0631365
0.0625168
0.0619592
0.00719398
0.00636187
0.00554551
0.00470406
0.00379859
0.00284383
0.00185524
0.000845375
-0.000172639
-0.00118535
-0.00217959
-0.00314268
-0.00406241
-0.00492718
-0.00572631
-0.00645
-0.00708923
-0.00763599
-0.00808318
-0.00842459
-0.00865487
-0.00876956
-0.00876502
-0.00863846
-0.00838777
-0.0080115
-0.00750901
-0.00688037
-0.00612619
-0.00524768
-0.00424658
-0.0031251
-0.00188608
-0.00053274
0.0009312
0.0025016
0.00417391
0.00594311
0.00780379
0.00975027
0.0117766
0.0138767
0.0160438
0.0182712
0.0205518
0.0228781
0.0252426
0.0276379
0.030056
0.0324891
0.0349293
0.0373686
0.0397986
0.0422115
0.044599
0.0469532
0.0492662
0.0515301
0.0537371
0.0558795
0.0579501
0.0599416
0.0618472
0.0636602
0.0653743
0.0669839
0.0684834
0.069868
0.0711335
0.0722757
0.073291
0.0741769
0.0749314
0.0755532
0.0760415
0.0763965
0.0766192
0.0767117
0.0766764
0.0765172
0.0762383
0.0758452
0.0753442
0.0747425
0.0740484
0.0732713
0.0724215
0.0715099
0.0705482
0.0695492
0.0685262
0.0674928
0.066463
0.0654508
0.0644698
0.0635332
0.0626562
0.0618532
0.0610911
0.0603345
0.00888931
0.00784781
0.00687776
0.00592303
0.00492574
0.00389867
0.00285606
0.00180791
0.000764847
-0.000261862
-0.00126104
-0.00222176
-0.00313344
-0.00398602
-0.00477016
-0.00547721
-0.00609917
-0.00662884
-0.00705991
-0.00738683
-0.00760476
-0.00770963
-0.00769823
-0.00756804
-0.00731718
-0.00694444
-0.00644927
-0.00583184
-0.00509282
-0.00423336
-0.00325518
-0.00216048
-0.000951989
0.000367162
0.00179342
0.0033228
0.0049508
0.00667256
0.00848297
0.0103766
0.0123477
0.0143903
0.0164979
0.0186641
0.0208818
0.0231441
0.0254436
0.0277731
0.0301249
0.0324916
0.0348653
0.0372382
0.0396025
0.0419503
0.0442739
0.0465654
0.0488171
0.0510215
0.0531707
0.0552576
0.057275
0.059216
0.0610736
0.0628414
0.0645136
0.0660844
0.0675486
0.0689014
0.0701386
0.0712561
0.0722505
0.0731193
0.0738604
0.0744725
0.0749548
0.0753074
0.0755311
0.0756279
0.0756
0.0754508
0.0751843
0.0748054
0.0743199
0.0737343
0.0730564
0.0722946
0.0714582
0.070557
0.0696016
0.0686032
0.0675735
0.0665245
0.0654684
0.0644171
0.0633819
0.0623737
0.0614063
0.0604925
0.0595809
0.0586212
0.0106289
0.00937761
0.00824996
0.00717557
0.00607819
0.00496933
0.00386217
0.00276464
0.00168521
0.00063315
-0.000382113
-0.00135126
-0.00226521
-0.00311533
-0.00389351
-0.00459217
-0.00520437
-0.00572374
-0.00614469
-0.00646225
-0.00667217
-0.00677084
-0.00675546
-0.00662378
-0.00637416
-0.00600566
-0.00551797
-0.00491128
-0.00418629
-0.00334421
-0.00238676
-0.00131617
-0.000135029
0.00115365
0.00254632
0.0040391
0.00562764
0.00730722
0.00907294
0.0109196
0.0128416
0.0148331
0.016888
0.0189998
0.0211618
0.0233673
0.0256092
0.0278804
0.0301736
0.0324815
0.0347964
0.0371109
0.0394173
0.0417079
0.0439753
0.0462117
0.0484097
0.0505618
0.0526606
0.0546991
0.0566702
0.0585671
0.060383
0.0621118
0.0637476
0.0652849
0.0667185
0.0680438
0.0692565
0.0703527
0.0713289
0.0721826
0.0729118
0.073515
0.0739914
0.0743408
0.0745643
0.0746631
0.0746396
0.0744965
0.0742376
0.0738674
0.073391
0.0728145
0.0721446
0.0713893
0.0705568
0.069656
0.068696
0.0676869
0.0666389
0.0655627
0.0644686
0.0633668
0.0622667
0.061177
0.0601107
0.0590794
0.0580141
0.0568505
0.0123845
0.0109252
0.00963837
0.00843988
0.00723642
0.00603842
0.00485836
0.00370234
0.00257703
0.00149004
0.000449186
-0.000537735
-0.001463
-0.0023192
-0.00309937
-0.00379705
-0.00440618
-0.00492131
-0.00533749
-0.00565034
-0.0058562
-0.00595197
-0.00593514
-0.00580382
-0.00555672
-0.00519315
-0.00471293
-0.00411636
-0.00340428
-0.00257798
-0.00163913
-0.000589946
0.000566991
0.00182873
0.0031918
0.00465234
0.00620612
0.00784862
0.00957509
0.0113805
0.0132594
0.0152061
0.0172146
0.0192787
0.0213919
0.0235477
0.0257392
0.0279594
0.0302015
0.032458
0.0347217
0.0369854
0.0392414
0.0414824
0.043701
0.0458897
0.0480413
0.0501484
0.0522039
0.0542008
0.0561322
0.0579915
0.0597719
0.0614673
0.0630722
0.0645812
0.065989
0.067291
0.068483
0.069561
0.0705217
0.0713625
0.0720813
0.0726766
0.0731473
0.0734932
0.0737151
0.0738143
0.0737924
0.0736521
0.0733967
0.0730302
0.0725572
0.0719832
0.0713144
0.0705578
0.0697208
0.0688111
0.0678371
0.0668075
0.0657314
0.0646179
0.063476
0.0623143
0.0611405
0.0599615
0.05879
0.0576365
0.0564155
0.0550495
0.0141319
0.0124677
0.0110215
0.00969619
0.00838221
0.00708945
0.00582989
0.00460802
0.00342898
0.00229901
0.00122447
0.000211789
-0.000732548
-0.00160226
-0.00239143
-0.00309465
-0.00370672
-0.00422293
-0.00463907
-0.00495141
-0.00515674
-0.00525242
-0.00523638
-0.00510711
-0.0048636
-0.00450539
-0.00403254
-0.0034455
-0.00274517
-0.00193293
-0.00101054
1.98499e-05
0.00115569
0.00239401
0.00373134
0.00516389
0.00668753
0.00829792
0.00999045
0.0117601
0.0136017
0.0155097
0.0174781
0.0195011
0.0215722
0.0236851
0.0258332
0.0280096
0.0302076
0.0324201
0.03464
0.0368601
0.0390732
0.0412719
0.0434491
0.0455973
0.0477096
0.0497787
0.0517978
0.0537598
0.055658
0.0574858
0.0592366
0.0609045
0.0624839
0.0639695
0.0653561
0.066639
0.067814
0.0688772
0.0698252
0.0706553
0.0713654
0.0719537
0.0724192
0.0727614
0.072981
0.0730788
0.0730564
0.072916
0.0726604
0.0722931
0.0718185
0.0712414
0.0705674
0.0698027
0.0689537
0.0680274
0.0670312
0.0659727
0.0648598
0.0637005
0.0625025
0.0612731
0.0600185
0.0587442
0.0574627
0.0561841
0.054807
0.0532412
0.01585
0.0139847
0.01238
0.0109265
0.00949899
0.00810716
0.00676286
0.00546925
0.00423008
0.00305036
0.00193527
0.000890049
-7.99693e-05
-0.000969605
-0.00177394
-0.00248833
-0.00310858
-0.00363065
-0.00405095
-0.00436638
-0.00457426
-0.00467239
-0.00465906
-0.00453317
-0.0042941
-0.00394161
-0.00347586
-0.00289756
-0.00220777
-0.00140792
-0.000499797
0.000514468
0.00163228
0.0028506
0.00416598
0.00557469
0.00707277
0.00865593
0.0103197
0.0120591
0.013869
0.0157441
0.0176787
0.0196668
0.0217024
0.0237792
0.0258906
0.0280302
0.0301913
0.0323669
0.0345501
0.0367339
0.0389111
0.0410747
0.0432175
0.0453324
0.0474123
0.0494504
0.0514397
0.0533733
0.0552446
0.057047
0.0587741
0.06042
0.0619792
0.0634464
0.0648164
0.0660844
0.0672462
0.0682978
0.0692359
0.0700577
0.0707608
0.0713435
0.0718044
0.072143
0.0723596
0.072455
0.0724303
0.0722872
0.0720282
0.0716566
0.071176
0.0705909
0.0699062
0.0691273
0.0682599
0.0673101
0.0662844
0.0651897
0.0640329
0.0628207
0.0615597
0.060256
0.0589149
0.0575407
0.0561458
0.0547403
0.0532076
0.0514454
0.0175206
0.0154583
0.0136966
0.0121144
0.0105714
0.00907741
0.00764434
0.00627426
0.00496973
0.00373467
0.00257325
0.00148967
0.000488263
-0.000426743
-0.00125148
-0.0019821
-0.00261501
-0.00314698
-0.00357512
-0.00389684
-0.00410988
-0.00421251
-0.00420354
-0.00408223
-0.0038482
-0.00350144
-0.00304242
-0.00247204
-0.00179149
-0.00100224
-0.000106104
0.000894685
0.00199745
0.00319916
0.00449636
0.0058854
0.00736237
0.00892308
0.0105631
0.0122775
0.0140614
0.0159094
0.0178162
0.0197757
0.0217822
0.0238293
0.0259108
0.0280204
0.0301514
0.032297
0.0344506
0.0366051
0.0387536
0.0408891
0.0430045
0.0450928
0.0471472
0.0491609
0.0511271
0.0530388
0.0548894
0.0566724
0.0583815
0.060011
0.0615552
0.0630089
0.0643667
0.065624
0.0667763
0.0678198
0.068751
0.0695668
0.070265
0.0708434
0.0713006
0.0716359
0.0718494
0.0719415
0.071913
0.0717652
0.0715003
0.0711211
0.070631
0.0700337
0.0693335
0.0685351
0.0676436
0.0666645
0.0656033
0.0644662
0.0632592
0.061988
0.0606582
0.0592751
0.0578429
0.0563652
0.0548546
0.0533211
0.0516339
0.049679
0.0191278
0.0168725
0.0149557
0.0132448
0.0115852
0.00998685
0.00846192
0.00701164
0.00563754
0.00434255
0.00313002
0.00200328
0.000965639
2.04022e-05
-0.000829177
-0.00158016
-0.00222967
-0.00277514
-0.00321421
-0.00354479
-0.00376518
-0.00387414
-0.00387088
-0.00375495
-0.00352627
-0.00318516
-0.00273237
-0.00216895
-0.00149618
-0.000715629
0.000170793
0.00116075
0.00225148
0.00343994
0.00472272
0.00609622
0.00755652
0.00909943
0.0107206
0.0124152
0.0141785
0.0160053
0.0178901
0.0198272
0.0218108
0.0238347
0.0258929
0.0279791
0.0300868
0.0322093
0.03434
0.0364722
0.0385989
0.0407131
0.042808
0.0448767
0.0469123
0.0489083
0.0508577
0.0527537
0.0545897
0.0563592
0.0580562
0.0596747
0.0612092
0.0626542
0.0640044
0.0652551
0.0664018
0.0674407
0.0683679
0.0691805
0.0698757
0.0704514
0.0709061
0.0712389
0.0714494
0.0715377
0.0715043
0.0713502
0.0710773
0.0706881
0.0701853
0.0695721
0.0688523
0.0680299
0.0671096
0.066096
0.0649943
0.0638096
0.062547
0.0612117
0.0598083
0.0583414
0.0568146
0.0552307
0.0536027
0.0519408
0.0501004
0.0479567
0.0206573
0.0182131
0.0161431
0.0143039
0.0125271
0.0108229
0.00920383
0.00767032
0.00622326
0.00486477
0.00359722
0.00242316
0.00134523
0.000365907
-0.000512347
-0.00128729
-0.00195672
-0.00251862
-0.00297116
-0.00331283
-0.00354242
-0.00365913
-0.00366254
-0.00355252
-0.00332932
-0.00299361
-0.00254634
-0.00198875
-0.00132218
-0.000548348
0.000330686
0.00131246
0.00239418
0.00357281
0.00484497
0.006207
0.00765494
0.00918465
0.0107918
0.0124719
0.0142201
0.0160312
0.0178999
0.0198205
0.0217873
0.0237944
0.0258358
0.0279051
0.0299961
0.0321022
0.0342169
0.0363336
0.0384452
0.040545
0.0426261
0.0446818
0.0467054
0.0486901
0.0506292
0.0525157
0.0543432
0.0561052
0.0577957
0.0594087
0.0609386
0.0623798
0.063727
0.0649753
0.0661204
0.0671582
0.0680847
0.0688966
0.0695912
0.0701662
0.0706198
0.0709508
0.0711587
0.0712431
0.0712042
0.0710427
0.0707603
0.070359
0.069841
0.069209
0.0684661
0.0676159
0.0666627
0.0656105
0.0644638
0.063227
0.0619046
0.0605008
0.0590198
0.0574658
0.0558415
0.0541494
0.0524027
0.0506123
0.0486203
0.0462911
0.0220962
0.0194669
0.0172459
0.0152791
0.0133849
0.0115738
0.00985879
0.0082399
0.00671717
0.00529208
0.00396634
0.00274171
0.00162013
0.00060345
-0.000306676
-0.00110853
-0.00180056
-0.0023813
-0.00284944
-0.00320398
-0.00344423
-0.00356977
-0.00358048
-0.00347662
-0.00325883
-0.00292806
-0.00248545
-0.00193233
-0.00127024
-0.000501107
0.000372868
0.00134918
0.00242503
0.00359733
0.00486261
0.00621715
0.00765701
0.00917812
0.0107763
0.0124469
0.0141853
0.0159863
0.0178445
0.0197546
0.0217108
0.0237073
0.025738
0.027797
0.0298778
0.0319741
0.0340796
0.0361874
0.0382907
0.0403827
0.0424568
0.0445062
0.0465243
0.0485043
0.0504393
0.0523225
0.0541475
0.055908
0.0575977
0.0592107
0.0607411
0.0621834
0.0635322
0.0647827
0.0659302
0.0669705
0.0678995
0.0687137
0.0694103
0.0699866
0.0704408
0.0707714
0.0709773
0.071058
0.0710134
0.070844
0.0705509
0.0701359
0.0696006
0.0689473
0.0681785
0.0672976
0.0663081
0.0652138
0.0640185
0.0627258
0.0613397
0.0598639
0.0583022
0.0566582
0.0549343
0.0531323
0.0512662
0.0493473
0.0472051
0.0446936
0.0234328
0.020622
0.018252
0.0161584
0.0141468
0.0122282
0.0104161
0.00871008
0.00710961
0.00561557
0.00422907
0.00295121
0.00178328
0.000726547
-0.000217964
-0.00104916
-0.00176597
-0.00236743
-0.00285284
-0.0032217
-0.00347368
-0.00360869
-0.00362704
-0.0035294
-0.00331675
-0.00299022
-0.0025511
-0.00200094
-0.00134158
-0.000575072
0.000296301
0.00127002
0.00234321
0.00351264
0.00477473
0.00612577
0.00756188
0.00907902
0.010673
0.0123393
0.0140731
0.0158694
0.0177229
0.0196283
0.0215799
0.0235718
0.0255983
0.0276531
0.0297303
0.0318235
0.0339262
0.0360317
0.0381333
0.0402243
0.042298
0.0443478
0.046367
0.0483486
0.0502858
0.052172
0.0540006
0.0557655
0.0574602
0.0590785
0.0606147
0.0620631
0.0634183
0.0646754
0.0658295
0.0668761
0.0678111
0.0686307
0.069332
0.0699121
0.0703688
0.0707003
0.0709053
0.070983
0.0709329
0.0707553
0.0704511
0.0700212
0.069467
0.0687904
0.0679936
0.0670794
0.066051
0.0649117
0.0636645
0.0623128
0.06086
0.0593093
0.0576643
0.0559281
0.0541027
0.0521896
0.0502034
0.0481562
0.0458652
0.0431742
0.0246565
0.021667
0.01915
0.0169306
0.0148018
0.0127753
0.0108655
0.00907107
0.00739125
0.0058264
0.0043771
0.00304395
0.00182758
0.000728599
-0.000252329
-0.00111468
-0.00185791
-0.00248165
-0.00298564
-0.00336978
-0.00363411
-0.00377896
-0.00380509
-0.0037135
-0.00350537
-0.00318205
-0.0027451
-0.00219636
-0.00153785
-0.000771728
9.9692e-05
0.00107377
0.00214748
0.00331747
0.00458011
0.00593171
0.00736843
0.00888621
0.0104808
0.0121477
0.0138821
0.0156792
0.0175337
0.0194402
0.0213931
0.0233866
0.0254149
0.0274721
0.0295521
0.0316486
0.033755
0.0358648
0.0379712
0.0400678
0.0421479
0.0442045
0.0462311
0.0482207
0.0501665
0.0520619
0.0539004
0.0556755
0.0573808
0.0590101
0.0605574
0.0620171
0.0633837
0.064652
0.0658169
0.0668738
0.0678183
0.0686468
0.0693558
0.0699423
0.0704038
0.070738
0.0709434
0.071019
0.0709641
0.0707786
0.0704628
0.0700174
0.0694433
0.068742
0.0679154
0.0669661
0.0658967
0.0647098
0.0634083
0.061995
0.0604729
0.0588451
0.0571146
0.0552843
0.0533559
0.0513306
0.0492239
0.0470486
0.0446099
0.0417416
0.0257573
0.0225919
0.0199294
0.017585
0.0153395
0.0132051
0.0111969
0.00931326
0.00755293
0.00591593
0.00440233
0.00301219
0.00174569
0.000602936
-0.000415923
-0.00131084
-0.00208181
-0.00272895
-0.00325237
-0.00365233
-0.00392933
-0.00408417
-0.00411791
-0.00403182
-0.00382731
-0.003506
-0.00306981
-0.00252079
-0.00186106
-0.00109286
-0.000218639
0.000758772
0.0018362
0.00301024
0.00427726
0.00563357
0.00707527
0.00859825
0.0101982
0.0118707
0.0136111
0.0154144
0.0172754
0.0191887
0.0211487
0.0231498
0.0251862
0.0272521
0.0293413
0.0314474
0.033564
0.0356846
0.0378026
0.0399114
0.0420042
0.0440742
0.0461146
0.0481186
0.0500794
0.0519904
0.0538448
0.0556362
0.0573579
0.0590037
0.0605677
0.0620441
0.063427
0.0647112
0.0658914
0.0669627
0.0679208
0.0687616
0.0694816
0.0700774
0.070546
0.070885
0.0710926
0.0711675
0.0711088
0.0709159
0.0705887
0.0701274
0.0695328
0.068806
0.0679486
0.0669627
0.0658504
0.0646141
0.0632562
0.0617791
0.0601857
0.0584788
0.0566611
0.0547352
0.0527026
0.0505642
0.0483365
0.0460332
0.0434476
0.0404038
0.0267261
0.0233869
0.0205804
0.0181118
0.01575
0.0135078
0.0114008
0.00942743
0.00758583
0.00587564
0.00429658
0.00284827
0.0015304
0.000342736
-0.000715166
-0.00164371
-0.00244333
-0.00311452
-0.0036578
-0.00407385
-0.00436362
-0.00452825
-0.00456909
-0.00448763
-0.0042856
-0.00396501
-0.00352799
-0.00297675
-0.0023135
-0.00154063
-0.000660816
0.000322945
0.00140739
0.00258911
0.00386445
0.00522963
0.00668066
0.00821339
0.00982357
0.0115068
0.0132583
0.0150732
0.0169462
0.018872
0.0208451
0.0228598
0.0249105
0.0269913
0.0290959
0.0312181
0.0333513
0.0354893
0.0376254
0.0397529
0.041865
0.0439548
0.0460156
0.0480405
0.0500227
0.0519555
0.0538321
0.0556457
0.0573897
0.059058
0.0606443
0.0621427
0.0635472
0.064852
0.0660521
0.0671423
0.0681181
0.0689751
0.0697096
0.0703176
0.0707961
0.0711424
0.0713544
0.0714304
0.0713691
0.0711696
0.0708315
0.0703546
0.0697394
0.0689867
0.0680977
0.0670741
0.0659178
0.0646306
0.0632146
0.0616721
0.0600058
0.0582181
0.0563116
0.0542888
0.0521508
0.0498985
0.0475494
0.0451181
0.0423862
0.0391681
0.0275539
0.0240429
0.0210936
0.0185017
0.016024
0.013674
0.0114682
0.00940467
0.00748122
0.00569714
0.00405179
0.00254448
0.00117446
-5.89841e-05
-0.00115671
-0.00211954
-0.0029483
-0.00364383
-0.00420711
-0.00463925
-0.00494155
-0.00511543
-0.0051625
-0.0050846
-0.00488381
-0.00456241
-0.00412273
-0.00356707
-0.00289783
-0.00211765
-0.00122938
-0.00023613
0.000858804
0.00205196
0.00333958
0.0047178
0.00618254
0.00772965
0.0093549
0.0110538
0.0128218
0.0146536
0.0165442
0.0184882
0.0204803
0.0225148
0.0245859
0.0266877
0.028814
0.0309586
0.033115
0.0352769
0.0374376
0.0395903
0.0417282
0.0438443
0.045932
0.0479843
0.0499945
0.0519554
0.0538603
0.0557023
0.0574749
0.0591715
0.060786
0.0623119
0.0637431
0.0650738
0.0662986
0.0674124
0.0684102
0.0692876
0.0700401
0.0706639
0.0711553
0.0715116
0.0717303
0.0718095
0.0717473
0.0715425
0.0711944
0.0707025
0.0700671
0.0692885
0.0683677
0.0673059
0.0661045
0.0647653
0.06329
0.061681
0.0599404
0.0580706
0.056074
0.053953
0.0517085
0.0493415
0.0468705
0.044311
0.041433
0.0380411
0.0282327
0.0245514
0.0214603
0.0187455
0.0161524
0.0136949
0.0113903
0.00923627
0.00723055
0.00537213
0.00366001
0.00209313
0.000670417
-0.000609343
-0.00174732
-0.00274473
-0.00360276
-0.00432266
-0.00490583
-0.00535374
-0.00566796
-0.00585022
-0.00590245
-0.00582687
-0.00562586
-0.00530189
-0.00485742
-0.00429497
-0.0036172
-0.00282696
-0.00192723
-0.000921164
0.000187864
0.00139627
0.0027002
0.00409566
0.00557858
0.00714479
0.00879003
0.0105098
0.0122993
0.0141535
0.0160672
0.0180353
0.0200522
0.0221124
0.0242101
0.0263391
0.0284934
0.0306668
0.0328529
0.0350452
0.037237
0.0394214
0.0415916
0.0437407
0.0458619
0.0479483
0.0499928
0.0519883
0.0539279
0.0558047
0.0576119
0.059343
0.0609914
0.0625505
0.064014
0.0653759
0.0666306
0.0677728
0.0687973
0.0696992
0.0704738
0.0711169
0.0716248
0.0719942
0.0722224
0.0723071
0.072246
0.0720376
0.0716808
0.071175
0.0705201
0.069716
0.0687634
0.0676631
0.0664163
0.0650244
0.0634892
0.0618125
0.0599966
0.0580435
0.0559557
0.0537353
0.0513834
0.048901
0.0463074
0.0436193
0.0405949
0.0370293
0.0287544
0.0249039
0.0216719
0.0188349
0.0161265
0.0135617
0.0111581
0.00891358
0.00682538
0.00489234
0.00311318
0.00148643
1.06826e-05
-0.0013156
-0.00249393
-0.0035259
-0.00441308
-0.00515711
-0.00575975
-0.00622275
-0.00654799
-0.00673753
-0.00679368
-0.00671897
-0.00651601
-0.0061874
-0.00573583
-0.00516411
-0.00447514
-0.00367193
-0.00275752
-0.00173515
-0.00060833
0.000619207
0.0019435
0.00336053
0.00486621
0.0064563
0.00812647
0.0098721
0.0116884
0.0135703
0.0155129
0.0175108
0.0195586
0.0216505
0.0237807
0.0259432
0.0281319
0.0303406
0.0325629
0.0347921
0.0370214
0.0392441
0.0414532
0.043642
0.0458035
0.0479304
0.0500158
0.0520523
0.0540331
0.0559511
0.0577994
0.0595711
0.0612595
0.0628576
0.0643591
0.0657578
0.0670479
0.0682236
0.0692795
0.0702104
0.0710114
0.071678
0.072206
0.0725919
0.0728327
0.0729255
0.0728679
0.072658
0.0722943
0.0717761
0.0711027
0.070274
0.06929
0.0681514
0.0668591
0.0654143
0.0638185
0.0620736
0.0601815
0.0581443
0.0559641
0.0536434
0.051183
0.0485842
0.0458673
0.0430498
0.0398785
0.0361387
0.0291114
0.0250924
0.0217201
0.018761
0.0159377
0.0132655
0.0107632
0.00842803
0.00625729
0.00424952
0.00240315
0.000716462
-0.000812371
-0.00218511
-0.00340364
-0.0044699
-0.00538586
-0.0061535
-0.00677485
-0.00725197
-0.00758708
-0.00778263
-0.00784124
-0.00776566
-0.0075587
-0.00722319
-0.0067621
-0.00617851
-0.0054755
-0.00465617
-0.00372368
-0.00268141
-0.00153303
-0.000282407
0.00106645
0.00250952
0.00404262
0.00566142
0.00736144
0.00913806
0.0109865
0.0129018
0.0148789
0.0169124
0.0189969
0.0211265
0.0232954
0.0254977
0.0277272
0.0299776
0.0322424
0.034515
0.0367885
0.0390561
0.041311
0.0435461
0.0457545
0.0479287
0.0500616
0.0521459
0.0541745
0.0561402
0.058036
0.0598547
0.0615891
0.0632324
0.0647779
0.0662192
0.0675502
0.0687648
0.0698573
0.070822
0.071654
0.0723483
0.0729005
0.0733068
0.0735636
0.0736677
0.0736163
0.0734073
0.0730389
0.07251
0.0718196
0.0709673
0.0699528
0.0687765
0.0674389
0.0659412
0.0642848
0.0624712
0.0605023
0.0583801
0.0561068
0.0536847
0.0511149
0.0483987
0.0455574
0.0426096
0.0392903
0.0353753
0.0292964
0.025109
0.0215964
0.0185156
0.0155773
0.0127979
0.0101968
0.00777106
0.00551778
0.00343529
0.00152176
-0.000224793
-0.00180647
-0.00322537
-0.00448373
-0.0055838
-0.0065279
-0.00731829
-0.00795729
-0.00844732
-0.00879098
-0.00899103
-0.00905035
-0.00897187
-0.00875864
-0.00841382
-0.00794066
-0.00734241
-0.00662227
-0.00578349
-0.00482939
-0.00376354
-0.00258975
-0.00131193
6.58663e-05
0.00153953
0.00310476
0.00475709
0.00649199
0.00830483
0.0101909
0.0121451
0.0141624
0.0162374
0.0183645
0.0205378
0.0227517
0.025
0.0272767
0.0295752
0.0318891
0.0342116
0.0365359
0.0388553
0.0411627
0.043451
0.045713
0.0479412
0.0501284
0.0522673
0.0543504
0.0563706
0.0583204
0.0601925
0.0619795
0.0636743
0.06527
0.0667599
0.0681376
0.0693967
0.0705311
0.0715349
0.0724028
0.0731295
0.0737104
0.0741411
0.0744176
0.0745365
0.0744946
0.0742894
0.0739189
0.0733814
0.0726759
0.0718014
0.0707575
0.0695443
0.0681622
0.066612
0.0648949
0.0630125
0.0609664
0.0587586
0.0563912
0.0538669
0.0511866
0.0483519
0.0453851
0.0423057
0.0388371
0.034745
0.0293017
0.0249457
0.0212927
0.0180901
0.0150369
0.0121502
0.00945025
0.00693405
0.00459831
0.00244122
0.000460755
-0.00134539
-0.0029795
-0.00444408
-0.00574166
-0.0068748
-0.00784608
-0.00865808
-0.00931346
-0.00981501
-0.0101656
-0.0103684
-0.0104264
-0.0103427
-0.0101208
-0.00976416
-0.00927615
-0.00866019
-0.00791963
-0.00705791
-0.00607859
-0.00498539
-0.00378215
-0.00247286
-0.00106165
0.000447218
0.00204932
0.0037401
0.00551502
0.00736945
0.00929859
0.0112974
0.0133606
0.0154828
0.0176584
0.0198817
0.0221467
0.0244475
0.0267777
0.0291308
0.0315003
0.0338794
0.0362614
0.0386394
0.0410061
0.0433544
0.0456769
0.0479661
0.0502146
0.0524149
0.0545595
0.0566409
0.0586514
0.0605836
0.0624298
0.0641827
0.0658351
0.0673799
0.0688104
0.0701199
0.0713018
0.0723502
0.0732592
0.0740234
0.0746377
0.0750973
0.0753978
0.0755354
0.0755066
0.0753084
0.0749386
0.0743952
0.0736767
0.0727819
0.0717101
0.0704613
0.0690354
0.0674334
0.065656
0.0637048
0.0615812
0.0592873
0.0568252
0.0541977
0.0514059
0.0484513
0.0453576
0.0421451
0.0385253