/*--------------------------------*- C++ -*----------------------------------*\
  =========                 |
  \\      /  F ield         | OpenFOAM: The Open Source CFD Toolbox
   \\    /   O peration     | Website:  https://openfoam.org
    \\  /    A nd           | Version:  11
     \\/     M anipulation  |
\*---------------------------------------------------------------------------*/
FoamFile
{
    format      ascii;
    class       surfaceScalarField;
    location    "9";
    object      phi;
}
// * * * * * * * * * * * * * * * * * * * * * * * * * * * * * * * * * * * * * //

dimensions      [0 3 -1 0 0 0 0];

internalField   nonuniform List<scalar> 
19980
(
7.09623e-07
-7.09603e-07
2.44435e-06
-1.73464e-06
4.36102e-06
-1.91664e-06
5.8709e-06
-1.5099e-06
6.63683e-06
-7.65977e-07
6.47417e-06
1.62774e-07
5.29017e-06
1.18397e-06
3.05166e-06
2.23858e-06
-2.38048e-07
3.28976e-06
-4.55182e-06
4.31374e-06
-9.84652e-06
5.29492e-06
-1.60691e-05
6.2226e-06
-2.31594e-05
7.0903e-06
-3.10529e-05
7.89358e-06
-3.96824e-05
8.62954e-06
-4.8979e-05
9.29661e-06
-5.88731e-05
9.89395e-06
-6.92948e-05
1.04216e-05
-8.01749e-05
1.08801e-05
-9.14455e-05
1.12705e-05
-0.000103039
1.1594e-05
-0.000114891
1.18519e-05
-0.000126937
1.20459e-05
-0.000139115
1.21778e-05
-0.000151364
1.22492e-05
-0.000163626
1.22621e-05
-0.000175845
1.22182e-05
-0.000187965
1.21198e-05
-0.000199933
1.19688e-05
-0.000211701
1.17675e-05
-0.000223219
1.15178e-05
-0.000234441
1.1222e-05
-0.000245323
1.08821e-05
-0.000255823
1.05001e-05
-0.000265901
1.00783e-05
-0.00027552
9.61871e-06
-0.000284643
9.12349e-06
-0.000293238
8.59475e-06
-0.000301273
8.03467e-06
-0.000308718
7.44554e-06
-0.000315548
6.82964e-06
-0.000321737
6.18914e-06
-0.000327264
5.52642e-06
-0.000332107
4.84378e-06
-0.000336251
4.14346e-06
-0.000339678
3.42776e-06
-0.000342377
2.69895e-06
-0.000344337
1.95941e-06
-0.000345549
1.21178e-06
-0.000346007
4.58491e-07
-0.000345709
-2.98098e-07
-0.000344654
-1.0554e-06
-0.000342843
-1.81091e-06
-0.000340281
-2.56218e-06
-0.000336974
-3.30647e-06
-0.000332933
-4.0411e-06
-0.00032817
-4.76351e-06
-0.000322699
-5.47096e-06
-0.000316538
-6.16052e-06
-0.000309709
-6.82943e-06
-0.000302234
-7.47497e-06
-0.000294139
-8.09428e-06
-0.000285455
-8.68433e-06
-0.000276213
-9.24226e-06
-0.000266447
-9.76544e-06
-0.000256196
-1.02512e-05
-0.000245499
-1.06967e-05
-0.0002344
-1.10994e-05
-0.000222943
-1.14567e-05
-0.000211177
-1.17661e-05
-0.000199152
-1.20248e-05
-0.000186922
-1.22302e-05
-0.000174542
-1.23802e-05
-0.000162069
-1.24724e-05
-0.000149565
-1.25045e-05
-0.000137091
-1.24744e-05
-0.00012471
-1.23806e-05
-0.000112488
-1.22216e-05
-0.000100493
-1.19957e-05
-8.87908e-05
-1.17017e-05
-7.74518e-05
-1.1339e-05
-6.65449e-05
-1.09069e-05
-5.61397e-05
-1.04053e-05
-4.63056e-05
-9.83405e-06
-3.71117e-05
-9.19393e-06
-2.86256e-05
-8.4861e-06
-2.09132e-05
-7.71246e-06
-1.40374e-05
-6.8758e-06
-8.0571e-06
-5.98026e-06
-3.02538e-06
-5.03177e-06
1.01314e-06
-4.03858e-06
4.02563e-06
-3.01245e-06
5.996e-06
-1.97029e-06
6.93313e-06
-9.37099e-07
6.88386e-06
4.92395e-08
5.95368e-06
9.30144e-07
4.33921e-06
1.61449e-06
2.38324e-06
1.95597e-06
6.6757e-07
1.71565e-06
6.67582e-07
1.72042e-06
-2.42973e-06
4.73994e-06
-4.75449e-06
7.65003e-06
-4.82676e-06
9.42022e-06
-3.28004e-06
9.33594e-06
-6.81699e-07
6.93911e-06
2.55952e-06
1.96408e-06
6.15912e-06
-5.71924e-06
9.92175e-06
-1.61426e-05
1.37131e-05
-2.92699e-05
1.74408e-05
-4.50159e-05
2.10407e-05
-6.32612e-05
2.44678e-05
-8.38621e-05
2.76911e-05
-0.000106658
3.06892e-05
-0.000131475
3.34474e-05
-0.000158135
3.59563e-05
-0.000186451
3.82104e-05
-0.000216237
4.02075e-05
-0.000247304
4.19475e-05
-0.000279466
4.34323e-05
-0.000312537
4.46651e-05
-0.000346335
4.56502e-05
-0.000380682
4.63926e-05
-0.000415403
4.68981e-05
-0.000450326
4.71728e-05
-0.000485287
4.72234e-05
-0.000520126
4.70569e-05
-0.000554687
4.66805e-05
-0.00058882
4.6102e-05
-0.000622382
4.53292e-05
-0.000655234
4.437e-05
-0.000687244
4.32323e-05
-0.000718286
4.19242e-05
-0.00074824
4.04537e-05
-0.000776991
3.8829e-05
-0.000804431
3.70584e-05
-0.000830457
3.51501e-05
-0.000854975
3.31123e-05
-0.000877894
3.09537e-05
-0.000899131
2.86828e-05
-0.00091861
2.63082e-05
-0.000936259
2.38387e-05
-0.000952016
2.12831e-05
-0.000965823
1.86505e-05
-0.000977629
1.59495e-05
-0.00098739
1.31893e-05
-0.00099507
1.03789e-05
-0.00100064
7.52766e-06
-0.00100407
4.64491e-06
-0.00100535
1.74037e-06
-0.00100448
-1.17646e-06
-0.00100143
-4.09581e-06
-0.000996238
-7.00766e-06
-0.000988898
-9.90208e-06
-0.000979436
-1.2769e-05
-0.000967878
-1.55983e-05
-0.000954263
-1.83793e-05
-0.000938632
-2.11016e-05
-0.000921038
-2.37545e-05
-0.00090154
-2.63272e-05
-0.000880206
-2.88089e-05
-0.000857112
-3.11886e-05
-0.000832341
-3.34555e-05
-0.000805984
-3.55988e-05
-0.000778142
-3.76079e-05
-0.000748921
-3.94723e-05
-0.000718435
-4.11818e-05
-0.000686809
-4.27263e-05
-0.00065417
-4.40955e-05
-0.000620656
-4.52797e-05
-0.000586412
-4.62692e-05
-0.000551587
-4.70549e-05
-0.00051634
-4.76277e-05
-0.000480833
-4.79794e-05
-0.000445235
-4.8102e-05
-0.000409721
-4.79884e-05
-0.00037447
-4.76323e-05
-0.000339663
-4.70278e-05
-0.000305489
-4.61704e-05
-0.000272134
-4.50563e-05
-0.00023979
-4.36829e-05
-0.000208648
-4.20489e-05
-0.000178899
-4.01546e-05
-0.000150731
-3.80018e-05
-0.00012433
-3.55946e-05
-9.98771e-05
-3.29393e-05
-7.75437e-05
-3.00458e-05
-5.74917e-05
-2.69278e-05
-3.98675e-05
-2.36046e-05
-2.47968e-05
-2.01024e-05
-1.23782e-05
-1.64571e-05
-2.67264e-06
-1.27181e-05
4.31039e-06
-8.95345e-06
8.63184e-06
-5.25871e-06
1.04505e-05
-1.76937e-06
1.00603e-05
1.32051e-06
7.94111e-06
3.73371e-06
4.81922e-06
5.07785e-06
1.71537e-06
4.81949e-06
2.38298e-06
1.89187e-06
-4.32164e-06
4.78991e-06
-7.65238e-06
6.96608e-06
-7.00283e-06
7.18431e-06
-3.49832e-06
4.54815e-06
1.95462e-06
-1.55394e-06
8.66151e-06
-1.15038e-05
1.61091e-05
-2.55072e-05
2.39253e-05
-4.36356e-05
3.18415e-05
-6.5859e-05
3.96643e-05
-9.20718e-05
4.72537e-05
-0.000122113
5.45088e-05
-0.000155779
6.13569e-05
-0.000192836
6.77465e-05
-0.00023303
7.36412e-05
-0.00027609
7.90162e-05
-0.000321735
8.38562e-05
-0.00036968
8.81523e-05
-0.000419635
9.19017e-05
-0.000471308
9.51058e-05
-0.000524412
9.77691e-05
-0.000578661
9.98988e-05
-0.000633772
0.000101504
-0.000689471
0.000102597
-0.000745488
0.000103189
-0.000801559
0.000103295
-0.00085743
0.000102927
-0.000912853
0.000102103
-0.000967589
0.000100838
-0.00102141
9.91485e-05
-0.00107409
9.70511e-05
-0.00112542
9.45632e-05
-0.0011752
9.17021e-05
-0.00122323
8.84856e-05
-0.00126933
8.49313e-05
-0.00131333
8.10572e-05
-0.00135506
7.68816e-05
-0.00139437
7.24227e-05
-0.00143112
6.7699e-05
-0.00146516
6.27294e-05
-0.00149639
5.75327e-05
-0.00152468
5.21281e-05
-0.00154993
4.6535e-05
-0.00157205
4.07728e-05
-0.00159096
3.48611e-05
-0.00160659
2.88198e-05
-0.00161888
2.2669e-05
-0.00162779
1.64292e-05
-0.00163326
1.01211e-05
-0.00163529
3.76538e-06
-0.00163385
-2.61654e-06
-0.00162894
-9.00321e-06
-0.00162057
-1.53729e-05
-0.00160877
-2.17035e-05
-0.00159357
-2.79729e-05
-0.00157501
-3.41584e-05
-0.00155315
-4.02374e-05
-0.00152807
-4.61867e-05
-0.00149984
-5.19831e-05
-0.00146856
-5.7603e-05
-0.00143435
-6.3023e-05
-0.00139732
-6.82195e-05
-0.0013576
-7.31688e-05
-0.00131535
-7.78475e-05
-0.00127073
-8.22327e-05
-0.0012239
-8.63015e-05
-0.00117505
-9.00313e-05
-0.00112438
-9.34e-05
-0.00107209
-9.6386e-05
-0.0010184
-9.89682e-05
-0.000963541
-0.000101126
-0.000907757
-0.000102839
-0.000851295
-0.00010409
-0.000794414
-0.00010486
-0.000737383
-0.000105133
-0.000680476
-0.000104895
-0.000623977
-0.000104131
-0.000568173
-0.000102832
-0.000513357
-0.000100986
-0.000459826
-9.85881e-05
-0.000407876
-9.56329e-05
-0.000357805
-9.21195e-05
-0.00030991
-8.80499e-05
-0.000264481
-8.34305e-05
-0.000221803
-7.82724e-05
-0.00018215
-7.25927e-05
-0.00014578
-6.6416e-05
-0.000112932
-5.9776e-05
-8.38179e-05
-5.27185e-05
-5.86155e-05
-4.53047e-05
-3.74561e-05
-3.76165e-05
-2.04107e-05
-2.97634e-05
-7.47181e-06
-2.18924e-05
1.4715e-06
-1.4202e-05
6.66459e-06
-6.9625e-06
8.52697e-06
-5.41974e-07
7.70047e-06
4.56014e-06
5.10003e-06
7.67835e-06
1.96217e-06
7.95737e-06
4.34512e-06
1.4986e-06
-5.82031e-06
3.27959e-06
-9.43336e-06
3.52005e-06
-7.24339e-06
9.05514e-07
-8.83917e-07
-5.53108e-06
8.39134e-06
-1.64694e-05
1.95998e-05
-3.23514e-05
3.19911e-05
-5.34265e-05
4.50005e-05
-7.97913e-05
5.82063e-05
-0.000111421
7.1294e-05
-0.000148197
8.40297e-05
-0.000189928
9.62394e-05
-0.000236366
0.000107795
-0.000287221
0.000118602
-0.000342173
0.000128593
-0.000400877
0.000137721
-0.000462974
0.000145953
-0.000528093
0.000153271
-0.000595857
0.000159665
-0.000665886
0.000165134
-0.0007378
0.000169683
-0.000811222
0.000173321
-0.000885779
0.000176062
-0.000961106
0.000177923
-0.00103684
0.000178925
-0.00111264
0.000179089
-0.00118815
0.000178439
-0.00126304
0.000177001
-0.00133701
0.0001748
-0.00140973
0.000171867
-0.0014809
0.000168227
-0.00155025
0.000163912
-0.0016175
0.00015895
-0.00168238
0.000153371
-0.00174466
0.000147208
-0.00180409
0.00014049
-0.00186046
0.000133249
-0.00191355
0.000125516
-0.00196318
0.000117325
-0.00200916
0.000108707
-0.00205132
9.96955e-05
-0.00208951
9.03233e-05
-0.0021236
8.06241e-05
-0.00215346
7.06317e-05
-0.00217898
6.03803e-05
-0.00220007
4.99045e-05
-0.00221664
3.92394e-05
-0.00222863
2.84205e-05
-0.00223599
1.74837e-05
-0.00223869
6.46548e-06
-0.00223671
-4.59732e-06
-0.00223005
-1.56673e-05
-0.00221871
-2.67067e-05
-0.00220274
-3.76771e-05
-0.00218217
-4.854e-05
-0.00215707
-5.92561e-05
-0.00212753
-6.97859e-05
-0.00209362
-8.00894e-05
-0.00205548
-9.01264e-05
-0.00201323
-9.98567e-05
-0.00196701
-0.000109239
-0.00191699
-0.000118234
-0.00186336
-0.0001268
-0.00180631
-0.000134897
-0.00174606
-0.000142485
-0.00168284
-0.000149525
-0.00161689
-0.000155979
-0.00154848
-0.000161808
-0.00147789
-0.000166974
-0.00140542
-0.000171443
-0.00133137
-0.000175179
-0.00125606
-0.000178149
-0.00117982
-0.000180322
-0.00110302
-0.000181667
-0.00102599
-0.000182158
-0.000949119
-0.00018177
-0.000872769
-0.000180481
-0.000797327
-0.000178274
-0.00072318
-0.000175133
-0.000650719
-0.000171049
-0.000580337
-0.000166015
-0.000512424
-0.000160032
-0.000447368
-0.000153106
-0.000385547
-0.000145252
-0.000327329
-0.00013649
-0.000273065
-0.000126856
-0.000223086
-0.000116395
-0.000177692
-0.00010517
-0.000137146
-9.32642e-05
-0.000101665
-8.07865e-05
-7.14015e-05
-6.78798e-05
-4.64339e-05
-5.47311e-05
-2.67409e-05
-4.15853e-05
-1.21787e-05
-2.87642e-05
-2.44977e-06
-1.66915e-05
2.93297e-06
-5.92478e-06
4.68846e-06
2.80468e-06
3.81297e-06
8.55397e-06
1.63815e-06
1.01321e-05
5.98322e-06
7.852e-07
-6.60559e-06
7.58836e-07
-9.40701e-06
-1.80795e-06
-4.67658e-06
-8.20099e-06
5.50933e-06
-1.93804e-05
1.95706e-05
-3.60324e-05
3.62521e-05
-5.86131e-05
5.45716e-05
-8.73847e-05
7.37721e-05
-0.00012245
9.32718e-05
-0.000163782
0.000112626
-0.000211246
0.000131494
-0.000264626
0.00014962
-0.000323638
0.000166807
-0.000387946
0.00018291
-0.000457174
0.000197821
-0.000530918
0.000211464
-0.000608749
0.000223785
-0.000690227
0.000234748
-0.000774897
0.000244336
-0.000862302
0.00025254
-0.000951984
0.000259365
-0.00104348
0.00026482
-0.00113635
0.000268926
-0.00123013
0.000271703
-0.00132438
0.000273181
-0.00141869
0.000273391
-0.00151261
0.000272368
-0.00160576
0.000270148
-0.00169773
0.000266771
-0.00178814
0.000262278
-0.00187663
0.000256712
-0.00196283
0.000250116
-0.00204642
0.000242536
-0.00212707
0.000234016
-0.00220446
0.000224604
-0.00227832
0.000214347
-0.00234836
0.000203292
-0.00241433
0.000191487
-0.00247599
0.000178982
-0.00253311
0.000165827
-0.00258548
0.000152071
-0.00263293
0.000137764
-0.00267526
0.000122959
-0.00271234
0.000107707
-0.00274402
9.20605e-05
-0.00277018
7.6072e-05
-0.00279074
5.97953e-05
-0.0028056
4.32849e-05
-0.00281472
2.65957e-05
-0.00281803
9.78343e-06
-0.00281554
-7.0955e-06
-0.00280722
-2.39839e-05
-0.0027931
-4.0824e-05
-0.00277322
-5.75574e-05
-0.00274764
-7.41249e-05
-0.00271643
-9.04667e-05
-0.00267969
-0.000106523
-0.00263755
-0.000122232
-0.00259014
-0.000137533
-0.00253763
-0.000152365
-0.00248021
-0.000166665
-0.00241807
-0.000180374
-0.00235144
-0.000193428
-0.00228057
-0.000205767
-0.00220572
-0.000217331
-0.00212719
-0.00022806
-0.00204527
-0.000237895
-0.0019603
-0.00024678
-0.00187262
-0.000254658
-0.00178259
-0.000261475
-0.00169059
-0.000267179
-0.00159701
-0.000271721
-0.00150228
-0.000275053
-0.00140682
-0.000277132
-0.00131106
-0.000277918
-0.00121545
-0.000277376
-0.00112046
-0.000275473
-0.00102655
-0.000272185
-0.00093419
-0.000267491
-0.000843861
-0.000261378
-0.000756036
-0.00025384
-0.000671189
-0.00024488
-0.000589785
-0.000234511
-0.000512278
-0.000222758
-0.000439109
-0.00020966
-0.000370694
-0.000195271
-0.000307423
-0.000179666
-0.000249648
-0.000162946
-0.000197674
-0.000145238
-0.000151748
-0.000126712
-0.000112047
-0.000107581
-7.86549e-05
-8.81231e-05
-5.15485e-05
-6.86917e-05
-3.05706e-05
-4.97421e-05
-1.54038e-05
-3.18583e-05
-5.53916e-06
-1.57894e-05
-2.41116e-07
-2.49332e-06
1.49245e-06
6.82046e-06
9.83082e-07
1.06415e-05
6.96632e-06
-1.06513e-07
-6.49893e-06
-2.38708e-06
-7.12637e-06
-8.36684e-06
1.30311e-06
-1.92207e-05
1.63632e-05
-3.58411e-05
3.6191e-05
-5.88745e-05
5.92854e-05
-8.87532e-05
8.44504e-05
-0.000125725
0.000110744
-0.00016988
0.000137427
-0.000221174
0.000163921
-0.000279457
0.000189776
-0.000344482
0.000214645
-0.000415934
0.000238258
-0.000493435
0.000260411
-0.000576564
0.00028095
-0.000664862
0.000299762
-0.000757843
0.000316766
-0.000855004
0.000331909
-0.000955826
0.000345158
-0.00105978
0.000356497
-0.00116635
0.000365927
-0.00127498
0.000373459
-0.00138517
0.000379114
-0.00149639
0.000382921
-0.00160813
0.000384916
-0.00171988
0.000385141
-0.00183115
0.000383642
-0.00194147
0.000380469
-0.00205038
0.000375676
-0.00215742
0.000369318
-0.00226216
0.000361455
-0.00236419
0.000352147
-0.00246311
0.000341456
-0.00255854
0.000329445
-0.00265011
0.00031618
-0.00273749
0.000301727
-0.00282035
0.000286152
-0.00289839
0.000269524
-0.00297132
0.00025191
-0.00303887
0.000233381
-0.00310081
0.000214007
-0.00315691
0.00019386
-0.00320696
0.000173012
-0.00325079
0.000151535
-0.00328823
0.000129503
-0.00331915
0.000106991
-0.00334343
8.40751e-05
-0.00336097
6.08314e-05
-0.00337171
3.73375e-05
-0.0033756
1.36721e-05
-0.00337261
-1.00854e-05
-0.00336274
-3.38545e-05
-0.00334601
-5.75537e-05
-0.00332247
-8.11007e-05
-0.00329218
-0.000104412
-0.00325524
-0.000127404
-0.00321178
-0.000149992
-0.00316192
-0.00017209
-0.00310584
-0.000193613
-0.00304373
-0.000214475
-0.0029758
-0.000234588
-0.00290231
-0.000253867
-0.00282351
-0.000272227
-0.0027397
-0.000289581
-0.00265118
-0.000305846
-0.0025583
-0.000320938
-0.00246142
-0.000334776
-0.00236092
-0.00034728
-0.00225721
-0.000358372
-0.00215071
-0.000367978
-0.00204186
-0.000376025
-0.00193114
-0.000382444
-0.00181902
-0.000387173
-0.001706
-0.000390151
-0.00159259
-0.000391324
-0.00147932
-0.000390643
-0.00136673
-0.000388068
-0.00125535
-0.000383564
-0.00114573
-0.000377106
-0.00103843
-0.000368678
-0.000933998
-0.000358276
-0.00083297
-0.000345907
-0.000735886
-0.000331595
-0.000643268
-0.000315376
-0.000555616
-0.000297311
-0.000473405
-0.000277481
-0.000397077
-0.000255995
-0.000327026
-0.000232996
-0.000263598
-0.000208667
-0.000207069
-0.000183241
-0.000157637
-0.000157013
-0.000115402
-0.000130357
-8.03517e-05
-0.000103742
-5.23344e-05
-7.77595e-05
-3.10411e-05
-5.31516e-05
-1.5978e-05
-3.08524e-05
-6.43929e-06
-1.20321e-05
-1.47607e-06
1.85725e-06
1.41411e-07
9.02396e-06
7.10779e-06
-1.09048e-06
-5.40868e-06
-5.8974e-06
-2.31943e-06
-1.56881e-05
1.10938e-05
-3.14739e-05
3.21491e-05
-5.40356e-05
5.87526e-05
-8.39426e-05
8.91925e-05
-0.000121574
0.000122082
-0.000167138
0.000156308
-0.000220694
0.000190982
-0.000282171
0.000225398
-0.000351389
0.000258994
-0.000428072
0.000291329
-0.000511871
0.000322057
-0.00060237
0.00035091
-0.000699103
0.000377684
-0.000801566
0.000402225
-0.000909221
0.000424422
-0.00102151
0.000444197
-0.00113785
0.000461502
-0.00125767
0.000476312
-0.00138036
0.000488621
-0.00150534
0.000498437
-0.00163201
0.000505786
-0.00175979
0.000510702
-0.0018881
0.000513228
-0.00201638
0.000513417
-0.00214406
0.000511327
-0.00227062
0.000507022
-0.00239551
0.000500572
-0.00251824
0.000492049
-0.00263832
0.000481529
-0.00275526
0.000469092
-0.00286863
0.000454819
-0.00297797
0.000438793
-0.00308289
0.000421101
-0.003183
0.000401829
-0.00327791
0.000381067
-0.00336729
0.000358903
-0.00345081
0.00033543
-0.00352817
0.00031074
-0.00359909
0.000284926
-0.00366331
0.000258084
-0.00372061
0.00023031
-0.00377077
0.0002017
-0.00381362
0.000172353
-0.003849
0.000142369
-0.00387677
0.000111848
-0.00389684
8.08927e-05
-0.0039091
4.96064e-05
-0.00391353
1.80937e-05
-0.00391007
-1.35394e-05
-0.00389874
-4.51858e-05
-0.00387956
-7.67371e-05
-0.00385257
-0.000108084
-0.00381787
-0.000139115
-0.00377556
-0.000169718
-0.00372577
-0.000199782
-0.00366866
-0.000229193
-0.00360444
-0.000257837
-0.00353332
-0.0002856
-0.00345554
-0.000312367
-0.00337138
-0.000338024
-0.00328115
-0.000362459
-0.00318517
-0.000385557
-0.00308381
-0.000407208
-0.00297744
-0.000427302
-0.00286649
-0.000445732
-0.00275138
-0.000462391
-0.00263257
-0.000477179
-0.00251055
-0.000489997
-0.00238582
-0.000500751
-0.00225892
-0.000509352
-0.00213037
-0.000515716
-0.00200076
-0.000519765
-0.00187065
-0.000521431
-0.00174064
-0.000520652
-0.00161134
-0.000517375
-0.00148334
-0.000511558
-0.00135728
-0.000503171
-0.00123376
-0.000492196
-0.0011134
-0.000478632
-0.000996818
-0.000462492
-0.000884602
-0.00044381
-0.000777335
-0.000422644
-0.000675573
-0.000399074
-0.000579842
-0.000373213
-0.000490628
-0.000345209
-0.000408371
-0.000315253
-0.00033345
-0.000283588
-0.000266174
-0.000250517
-0.000206767
-0.000216421
-0.000155354
-0.000181771
-0.000111943
-0.000147153
-7.64113e-05
-0.000113292
-4.84802e-05
-8.10827e-05
-2.77014e-05
-5.16312e-05
-1.34346e-05
-2.62989e-05
-4.82832e-06
-6.74897e-06
-7.9929e-07
4.99498e-06
6.30853e-06
-2.11461e-06
-3.29388e-06
-9.59859e-06
5.16435e-06
-2.34444e-05
2.49399e-05
-4.44699e-05
5.31745e-05
-7.33143e-05
8.7597e-05
-0.000110443
0.000126322
-0.000156158
0.000167797
-0.000210608
0.000210758
-0.000273804
0.000254179
-0.000345636
0.00029723
-0.000425886
0.000339244
-0.000514244
0.000379687
-0.000610322
0.000418134
-0.000713666
0.000454254
-0.00082377
0.000487788
-0.000940084
0.000518538
-0.00106202
0.000546361
-0.00118898
0.000571153
-0.00132032
0.000592846
-0.00145541
0.000611403
-0.0015936
0.00062681
-0.00173424
0.000639075
-0.00187668
0.000648223
-0.00202027
0.000654293
-0.00216438
0.000657338
-0.00230838
0.000657419
-0.00245167
0.000654609
-0.00259363
0.000648986
-0.00273369
0.000640636
-0.00287129
0.000629648
-0.00300588
0.00061612
-0.00313694
0.000600149
-0.00326396
0.000581839
-0.00338646
0.000561295
-0.00350399
0.000538626
-0.0036161
0.000513943
-0.00372239
0.000487357
-0.00382247
0.000458984
-0.00391598
0.00042894
-0.00400259
0.000397343
-0.00408197
0.000364312
-0.00415386
0.000329968
-0.00421798
0.000294435
-0.00427412
0.000257836
-0.00432206
0.000220297
-0.00436164
0.000181946
-0.00439271
0.000142911
-0.00441514
0.000103324
-0.00442884
6.3315e-05
-0.00443377
2.30195e-05
-0.00442988
-1.74277e-05
-0.00441718
-5.78895e-05
-0.00439569
-9.82273e-05
-0.00436547
-0.000138301
-0.00432662
-0.00017797
-0.00427924
-0.000217091
-0.0042235
-0.000255521
-0.00415958
-0.000293114
-0.00408769
-0.000329727
-0.00400808
-0.000365214
-0.00392102
-0.000399429
-0.00382681
-0.000432228
-0.00372581
-0.000463466
-0.00361836
-0.000493
-0.00350488
-0.000520689
-0.00338579
-0.000546393
-0.00326155
-0.000569977
-0.00313263
-0.000591308
-0.00299955
-0.000610256
-0.00286285
-0.000626699
-0.00272309
-0.000640518
-0.00258084
-0.0006516
-0.00243671
-0.000659842
-0.00229133
-0.000665148
-0.00214533
-0.00066743
-0.00199937
-0.000666614
-0.00185411
-0.000662636
-0.00171022
-0.000655445
-0.00156839
-0.000645006
-0.00142928
-0.000631301
-0.00129358
-0.000614331
-0.00116196
-0.000594119
-0.00103505
-0.000570712
-0.000913511
-0.000544187
-0.000797934
-0.000514651
-0.000688896
-0.000482251
-0.000586928
-0.000447177
-0.000492508
-0.000409673
-0.000406055
-0.000370041
-0.00032791
-0.000328661
-0.000258333
-0.000285998
-0.00019748
-0.000242623
-0.000145396
-0.000199236
-0.000102
-0.000156688
-6.70654e-05
-0.000116017
-4.02127e-05
-7.84839e-05
-2.08946e-05
-4.5617e-05
-8.38728e-06
-1.92563e-05
-1.78518e-06
-1.6071e-06
4.52333e-06
-3.14802e-06
-1.45907e-07
-1.3378e-05
1.53941e-05
-3.14118e-05
4.29736e-05
-5.78605e-05
7.96232e-05
-9.32045e-05
0.000122941
-0.000137787
0.000170904
-0.000191813
0.000221823
-0.000255355
0.000274301
-0.000328365
0.000327188
-0.000410679
0.000379544
-0.000502034
0.000430598
-0.000602077
0.000479729
-0.000710379
0.000526437
-0.000826447
0.000570322
-0.000949732
0.000611073
-0.00107964
0.000648448
-0.00121555
0.000682266
-0.00135679
0.000712397
-0.0015027
0.000738753
-0.00165257
0.000761282
-0.00180573
0.000779962
-0.00196145
0.000794797
-0.00211904
0.000805813
-0.0022778
0.000813053
-0.00243704
0.000816578
-0.00259608
0.000816461
-0.00275426
0.000812786
-0.00291092
0.000805648
-0.00306543
0.000795149
-0.00321718
0.000781399
-0.00336558
0.000764514
-0.00351004
0.000744615
-0.00365003
0.000721827
-0.00378502
0.000696279
-0.0039145
0.000668106
-0.004038
0.000637442
-0.00415506
0.000604427
-0.00426528
0.000569201
-0.00436825
0.000531909
-0.0044636
0.000492696
-0.004551
0.00045171
-0.00463013
0.0004091
-0.00470072
0.00036502
-0.0047625
0.000319622
-0.00481527
0.000273062
-0.00485882
0.000225498
-0.004893
0.00017709
-0.00491767
0.000128
-0.00493275
7.83907e-05
-0.00493816
2.84288e-05
-0.00493387
-2.17183e-05
-0.00491988
-7.1881e-05
-0.00489622
-0.000121888
-0.00486295
-0.000171566
-0.00482018
-0.00022074
-0.00476804
-0.000269233
-0.00470669
-0.00031687
-0.00463633
-0.00036347
-0.00455721
-0.000408855
-0.00446958
-0.000452846
-0.00437374
-0.000495263
-0.00427004
-0.000535928
-0.00415884
-0.000574664
-0.00404055
-0.000611293
-0.0039156
-0.000645642
-0.00378445
-0.00067754
-0.00364761
-0.000706821
-0.00350559
-0.000733321
-0.00335897
-0.000756882
-0.00320831
-0.000777354
-0.00305424
-0.000794592
-0.00289738
-0.000808459
-0.00273839
-0.000818829
-0.00257795
-0.000825586
-0.00241676
-0.000828626
-0.00225551
-0.000827859
-0.00209494
-0.000823208
-0.00193577
-0.000814615
-0.00177874
-0.000802041
-0.00162457
-0.000785466
-0.001474
-0.000764898
-0.00132776
-0.000740367
-0.00118653
-0.000711937
-0.00105101
-0.000679705
-0.000921855
-0.000643808
-0.000799677
-0.000604428
-0.000685053
-0.000561801
-0.000578503
-0.000516223
-0.000480482
-0.000468062
-0.000391375
-0.000417769
-0.000311478
-0.000365895
-0.000240992
-0.00031311
-0.000180009
-0.000260219
-0.000128503
-0.000208195
-8.63164e-05
-0.000158203
-5.31575e-05
-0.000111643
-2.85903e-05
-7.01842e-05
-1.20369e-05
-3.58096e-05
-2.78379e-06
-1.08602e-05
1.73954e-06
-4.17242e-06
4.02661e-06
-1.71636e-05
2.83851e-05
-3.94392e-05
6.52493e-05
-7.14028e-05
0.000111587
-0.000113367
0.000164906
-0.000165541
0.000223078
-0.000228021
0.000284302
-0.000300792
0.000347071
-0.000383729
0.000410126
-0.00047661
0.000472424
-0.000579115
0.000533103
-0.000690844
0.000591458
-0.000811322
0.000646915
-0.000940012
0.000699012
-0.00107632
0.000747383
-0.00121962
0.000791742
-0.00136922
0.000831872
-0.00152444
0.000867615
-0.00168455
0.00089886
-0.00184881
0.000925541
-0.00201647
0.000947626
-0.00218679
0.000965116
-0.00235901
0.000978035
-0.00253239
0.000986433
-0.00270619
0.000990377
-0.00287968
0.00098995
-0.00305215
0.000985252
-0.00322289
0.000976392
-0.00339123
0.000963491
-0.00355651
0.000946678
-0.00371809
0.000926092
-0.00387535
0.000901875
-0.0040277
0.000874178
-0.00417458
0.000843156
-0.00431544
0.000808968
-0.00444977
0.000771776
-0.0045771
0.000731749
-0.00469695
0.000689055
-0.00480891
0.000643868
-0.00491258
0.000596364
-0.00500759
0.00054672
-0.0050936
0.000495117
-0.00517033
0.00044174
-0.00523748
0.000386774
-0.00529482
0.000330406
-0.00534215
0.000272828
-0.00537929
0.000214233
-0.00540611
0.000154815
-0.00542249
9.47742e-05
-0.00542837
3.43092e-05
-0.00542372
-2.63771e-05
-0.00540852
-8.70797e-05
-0.00538281
-0.000147592
-0.00534667
-0.000207704
-0.00530021
-0.000267206
-0.00524356
-0.000325884
-0.0051769
-0.000383525
-0.00510046
-0.000439915
-0.00501448
-0.000494836
-0.00491925
-0.000548074
-0.0048151
-0.000599413
-0.00470239
-0.000648637
-0.00458152
-0.000695533
-0.00445292
-0.00073989
-0.00431707
-0.000781499
-0.00417445
-0.000820155
-0.00402562
-0.000855658
-0.00387112
-0.000887812
-0.00371158
-0.00091643
-0.0035476
-0.00094133
-0.00337985
-0.00096234
-0.00320901
-0.000979299
-0.00303579
-0.000992055
-0.0028609
-0.00100047
-0.0026851
-0.00100443
-0.00250914
-0.00100382
-0.0023338
-0.000998549
-0.00215986
-0.000988558
-0.0019881
-0.000973801
-0.0018193
-0.000954259
-0.00165426
-0.000929942
-0.00149373
-0.000900893
-0.00133848
-0.000867192
-0.00118922
-0.000828959
-0.00104667
-0.00078636
-0.000911486
-0.000739615
-0.000784282
-0.000689005
-0.000665625
-0.000634881
-0.000556013
-0.000577673
-0.000455873
-0.000517908
-0.00036555
-0.000456218
-0.000285295
-0.000393365
-0.000215259
-0.000330256
-0.000155481
-0.000267972
-0.000105889
-0.000207796
-6.62875e-05
-0.000151244
-3.63664e-05
-0.000100105
-1.57023e-05
-5.64735e-05
-3.77586e-06
-2.27867e-05
-2.0363e-06
-5.17744e-06
9.20415e-06
-2.09103e-05
4.41178e-05
-4.74277e-05
9.17668e-05
-8.49314e-05
0.00014909
-0.000133565
0.00021354
-0.000193397
0.000282909
-0.000264406
0.000355311
-0.000346479
0.000429144
-0.00043941
0.000503057
-0.000542904
0.000575918
-0.000656581
0.00064678
-0.000779985
0.000714862
-0.000912591
0.000779521
-0.00105382
0.000840236
-0.00120302
0.000896588
-0.00135953
0.000948248
-0.00152262
0.000994963
-0.00169155
0.00103655
-0.00186555
0.00107287
-0.00204385
0.00110384
-0.00222565
0.00112943
-0.00241016
0.00114962
-0.00259657
0.00116445
-0.00278411
0.00117397
-0.00297198
0.00117825
-0.00315941
0.00117738
-0.00334564
0.00117149
-0.00352993
0.00116069
-0.00371157
0.00114512
-0.00388983
0.00112495
-0.00406405
0.00110031
-0.00423358
0.0010714
-0.00439777
0.00103837
-0.00455602
0.00100141
-0.00470777
0.000960714
-0.00485246
0.000916466
-0.00498957
0.000868865
-0.00511863
0.000818111
-0.00523917
0.000764409
-0.00535077
0.000707966
-0.00545304
0.000648993
-0.00554563
0.000587703
-0.00562821
0.000524315
-0.00570048
0.000459047
-0.0057622
0.000392123
-0.00581314
0.000323768
-0.00585311
0.000254211
-0.00588198
0.000183683
-0.00589963
0.000112419
-0.00590597
4.06552e-05
-0.00590098
-3.13677e-05
-0.00588465
-0.000103408
-0.00585702
-0.00017522
-0.00581817
-0.000246557
-0.00576821
-0.000317169
-0.00570729
-0.000386806
-0.0056356
-0.000455213
-0.00555337
-0.000522138
-0.00546089
-0.000587326
-0.00535844
-0.000650521
-0.00524638
-0.00071147
-0.0051251
-0.000769918
-0.00499502
-0.000825615
-0.0048566
-0.00087831
-0.00471034
-0.000927759
-0.00455677
-0.00097372
-0.00439647
-0.00101596
-0.00423004
-0.00105424
-0.00405812
-0.00108835
-0.00388137
-0.00111808
-0.00370049
-0.00114322
-0.00351621
-0.00116358
-0.00332927
-0.00117899
-0.00314046
-0.00118929
-0.00295055
-0.00119434
-0.00276036
-0.00119401
-0.0025707
-0.00118821
-0.00238241
-0.00117685
-0.00219631
-0.00115989
-0.00201325
-0.00113732
-0.00183405
-0.00110914
-0.00165952
-0.00107542
-0.00149047
-0.00103624
-0.00132768
-0.000991756
-0.00117188
-0.000942159
-0.00102378
-0.000887707
-0.000884061
-0.000828728
-0.000753317
-0.000765625
-0.000632098
-0.000698892
-0.00052088
-0.000629126
-0.000420061
-0.000557038
-0.00032995
-0.000483476
-0.000250764
-0.000409441
-0.000182622
-0.000336114
-0.00012554
-0.000264878
-7.94332e-05
-0.000197351
-4.41207e-05
-0.000135418
-1.93367e-05
-8.12575e-05
-4.7503e-06
-3.7373e-05
-6.7866e-06
-6.15738e-06
1.53615e-05
-2.45912e-05
6.25516e-05
-5.53142e-05
0.00012249
-9.83369e-05
0.000192113
-0.000153637
0.000268839
-0.000221138
0.000350411
-0.0003007
0.000434873
-0.000392103
0.000520547
-0.000495052
0.000606006
-0.000609174
0.00069004
-0.000734021
0.000771628
-0.000869078
0.000849918
-0.00101376
0.000924207
-0.00116744
0.000993915
-0.00132943
0.00105858
-0.001499
0.00111782
-0.00167539
0.00117136
-0.00185782
0.00121897
-0.00204547
0.00126052
-0.00223753
0.00129589
-0.00243315
0.00132505
-0.00263149
0.00134797
-0.00283173
0.00136469
-0.00303303
0.00137526
-0.00323455
0.00137977
-0.00343549
0.00137832
-0.00363505
0.00137104
-0.00383244
0.00135808
-0.0040269
0.00133958
-0.00421769
0.00131573
-0.00440409
0.00128671
-0.00458541
0.00125272
-0.00476098
0.00121394
-0.00493017
0.0011706
-0.00509236
0.00112291
-0.00524699
0.00107109
-0.0053935
0.00101537
-0.00553138
0.000955989
-0.00566014
0.000893175
-0.00577935
0.000827171
-0.00588858
0.000758225
-0.00598746
0.000686583
-0.00607565
0.0006125
-0.00615283
0.00053623
-0.00621874
0.000458034
-0.00627315
0.000378174
-0.00631585
0.000296916
-0.0063467
0.00021453
-0.00636557
0.000131289
-0.00637238
4.74689e-05
-0.0063671
-3.66515e-05
-0.00634972
-0.00012079
-0.00632028
-0.000204661
-0.00627886
-0.000287977
-0.00622558
-0.000370448
-0.0061606
-0.000451782
-0.00608413
-0.000531685
-0.00599641
-0.000609861
-0.00589772
-0.000686016
-0.00578839
-0.000759852
-0.00566878
-0.000831074
-0.00553931
-0.000899389
-0.00540042
-0.000964504
-0.0052526
-0.00102613
-0.00509638
-0.00108398
-0.00493232
-0.00113778
-0.00476101
-0.00118726
-0.00458311
-0.00123214
-0.00439929
-0.00127218
-0.00421023
-0.00130713
-0.0040167
-0.00133676
-0.00381944
-0.00136084
-0.00361924
-0.00137918
-0.00341693
-0.0013916
-0.00321334
-0.00139793
-0.00300931
-0.00139804
-0.00280571
-0.0013918
-0.00260342
-0.00137914
-0.00240332
-0.00136
-0.00220628
-0.00133436
-0.00201317
-0.00130225
-0.00182487
-0.00126372
-0.00164221
-0.0012189
-0.00146602
-0.00116795
-0.00129709
-0.00111109
-0.00113617
-0.00104862
-0.000983978
-0.000980921
-0.000841167
-0.000908437
-0.000708335
-0.000831725
-0.000586012
-0.000751448
-0.000474655
-0.000668395
-0.00037464
-0.000583491
-0.000286257
-0.000497825
-0.000209708
-0.000412663
-0.000145107
-0.000329479
-9.24832e-05
-0.000249975