/*--------------------------------*- C++ -*----------------------------------*\
  =========                 |
  \\      /  F ield         | OpenFOAM: The Open Source CFD Toolbox
   \\    /   O peration     | Website:  https://openfoam.org
    \\  /    A nd           | Version:  11
     \\/     M anipulation  |
\*---------------------------------------------------------------------------*/
FoamFile
{
    format      ascii;
    class       volVectorField;
    location    "9";
    object      U;
}
// * * * * * * * * * * * * * * * * * * * * * * * * * * * * * * * * * * * * * //

dimensions      [0 1 -1 0 0 0 0];

internalField   nonuniform List<vector> 
10100
(
(3.03189e-06 -3.05127e-06 0)
(1.50636e-05 -7.85768e-06 0)
(3.42897e-05 -9.09301e-06 0)
(5.24385e-05 -7.86371e-06 0)
(6.44168e-05 -5.32924e-06 0)
(6.77549e-05 -2.16487e-06 0)
(6.11838e-05 1.26165e-06 0)
(4.41295e-05 4.73531e-06 0)
(1.64718e-05 8.14083e-06 0)
(-2.16122e-05 1.14089e-05 0)
(-6.97553e-05 1.45028e-05 0)
(-0.000127464 1.7392e-05 0)
(-0.000194168 2.007e-05 0)
(-0.000269235 2.25311e-05 0)
(-0.000352009 2.47689e-05 0)
(-0.0004418 2.6785e-05 0)
(-0.000537915 2.8581e-05 0)
(-0.000639658 3.0158e-05 0)
(-0.00074633 3.15241e-05 0)
(-0.000857244 3.26831e-05 0)
(-0.000971725 3.36376e-05 0)
(-0.00108911 3.43949e-05 0)
(-0.00120875 3.49617e-05 0)
(-0.00133002 3.53447e-05 0)
(-0.0014523 3.55509e-05 0)
(-0.00157499 3.55862e-05 0)
(-0.00169753 3.54559e-05 0)
(-0.00181935 3.51662e-05 0)
(-0.00193992 3.47236e-05 0)
(-0.00205872 3.41352e-05 0)
(-0.00217526 3.34073e-05 0)
(-0.00228907 3.25463e-05 0)
(-0.00239969 3.15584e-05 0)
(-0.0025067 3.04495e-05 0)
(-0.00260969 2.92263e-05 0)
(-0.00270826 2.78946e-05 0)
(-0.00280206 2.64599e-05 0)
(-0.00289073 2.49282e-05 0)
(-0.00297395 2.33047e-05 0)
(-0.00305142 2.15973e-05 0)
(-0.00312286 1.98136e-05 0)
(-0.00318801 1.79585e-05 0)
(-0.00324664 1.60398e-05 0)
(-0.00329854 1.40646e-05 0)
(-0.00334351 1.20377e-05 0)
(-0.0033814 9.96618e-06 0)
(-0.00341206 7.85668e-06 0)
(-0.00343538 5.71456e-06 0)
(-0.00345125 3.54883e-06 0)
(-0.00345961 1.36819e-06 0)
(-0.00346042 -8.2231e-07 0)
(-0.00345365 -3.01637e-06 0)
(-0.00343931 -5.2058e-06 0)
(-0.00341743 -7.3836e-06 0)
(-0.00338807 -9.54278e-06 0)
(-0.0033513 -1.1675e-05 0)
(-0.00330725 -1.37725e-05 0)
(-0.00325603 -1.58281e-05 0)
(-0.00319783 -1.78335e-05 0)
(-0.00313283 -1.97798e-05 0)
(-0.00306124 -2.1659e-05 0)
(-0.00298333 -2.34629e-05 0)
(-0.00289936 -2.51826e-05 0)
(-0.00280965 -2.68092e-05 0)
(-0.00271452 -2.8335e-05 0)
(-0.00261434 -2.97525e-05 0)
(-0.0025095 -3.10537e-05 0)
(-0.00240042 -3.22314e-05 0)
(-0.00228752 -3.32783e-05 0)
(-0.00217129 -3.4186e-05 0)
(-0.00205221 -3.49457e-05 0)
(-0.0019308 -3.55505e-05 0)
(-0.00180761 -3.59937e-05 0)
(-0.00168321 -3.62669e-05 0)
(-0.00155817 -3.63615e-05 0)
(-0.00143313 -3.62715e-05 0)
(-0.0013087 -3.59933e-05 0)
(-0.00118553 -3.55218e-05 0)
(-0.00106428 -3.48507e-05 0)
(-0.000945631 -3.39745e-05 0)
(-0.000830262 -3.28906e-05 0)
(-0.000718867 -3.1597e-05 0)
(-0.000612142 -3.00911e-05 0)
(-0.000510783 -2.83708e-05 0)
(-0.000415483 -2.64359e-05 0)
(-0.000326928 -2.42877e-05 0)
(-0.000245788 -2.19286e-05 0)
(-0.000172709 -1.93619e-05 0)
(-0.000108304 -1.65943e-05 0)
(-5.31385e-05 -1.36378e-05 0)
(-7.70796e-06 -1.05117e-05 0)
(2.75893e-05 -7.24477e-06 0)
(5.24937e-05 -3.88159e-06 0)
(6.69467e-05 -4.94218e-07 0)
(7.11954e-05 2.79406e-06 0)
(6.59518e-05 5.77147e-06 0)
(5.26167e-05 8.07136e-06 0)
(3.37483e-05 9.04314e-06 0)
(1.44471e-05 7.59131e-06 0)
(2.77032e-06 2.76981e-06 0)
(7.71528e-06 -1.50157e-05 0)
(3.1427e-05 -3.16117e-05 0)
(6.33392e-05 -3.38967e-05 0)
(8.90323e-05 -2.60045e-05 0)
(9.88821e-05 -1.18337e-05 0)
(8.73166e-05 5.94403e-06 0)
(5.09311e-05 2.56164e-05 0)
(-1.21589e-05 4.60436e-05 0)
(-0.000102689 6.64959e-05 0)
(-0.000220583 8.64882e-05 0)
(-0.00036519 0.000105694 0)
(-0.000535461 0.000123899 0)
(-0.000730056 0.000140955 0)
(-0.000947443 0.000156766 0)
(-0.00118594 0.000171271 0)
(-0.00144376 0.000184433 0)
(-0.0017191 0.00019623 0)
(-0.00201007 0.000206661 0)
(-0.00231479 0.000215733 0)
(-0.00263139 0.000223464 0)
(-0.00295801 0.000229873 0)
(-0.0032928 0.000234988 0)
(-0.00363396 0.000238839 0)
(-0.00397972 0.000241458 0)
(-0.00432835 0.000242882 0)
(-0.00467818 0.000243145 0)
(-0.00502756 0.000242286 0)
(-0.00537494 0.000240344 0)
(-0.00571877 0.000237359 0)
(-0.00605759 0.000233373 0)
(-0.00639 0.000228429 0)
(-0.00671463 0.000222567 0)
(-0.0070302 0.000215829 0)
(-0.00733547 0.000208257 0)
(-0.00762926 0.000199892 0)
(-0.00791048 0.000190778 0)
(-0.00817805 0.000180957 0)
(-0.008431 0.00017047 0)
(-0.0086684 0.000159362 0)
(-0.00888938 0.000147675 0)
(-0.00909314 0.000135457 0)
(-0.00927894 0.000122752 0)
(-0.00944612 0.000109603 0)
(-0.00959407 9.60595e-05 0)
(-0.00972226 8.21658e-05 0)
(-0.00983019 6.7966e-05 0)
(-0.00991748 5.35072e-05 0)
(-0.00998379 3.88373e-05 0)
(-0.0100288 2.40048e-05 0)
(-0.0100525 9.05882e-06 0)
(-0.0100545 -5.95068e-06 0)
(-0.0100349 -2.0974e-05 0)
(-0.00999368 -3.59616e-05 0)
(-0.00993095 -5.08625e-05 0)
(-0.00984688 -6.56241e-05 0)
(-0.0097417 -8.01939e-05 0)
(-0.00961574 -9.45197e-05 0)
(-0.00946939 -0.000108547 0)
(-0.00930313 -0.000122218 0)
(-0.00911751 -0.000135479 0)
(-0.00891317 -0.000148275 0)
(-0.00869084 -0.000160548 0)
(-0.00845129 -0.00017224 0)
(-0.00819542 -0.000183297 0)
(-0.00792417 -0.000193664 0)
(-0.00763857 -0.000203286 0)
(-0.00733975 -0.000212111 0)
(-0.00702888 -0.000220087 0)
(-0.00670722 -0.000227161 0)
(-0.00637611 -0.000233282 0)
(-0.00603696 -0.000238398 0)
(-0.00569124 -0.000242461 0)
(-0.00534048 -0.000245423 0)
(-0.0049863 -0.000247239 0)
(-0.00463035 -0.000247868 0)
(-0.00427436 -0.000247269 0)
(-0.00392009 -0.000245408 0)
(-0.00356934 -0.000242256 0)
(-0.00322398 -0.000237784 0)
(-0.00288587 -0.000231971 0)
(-0.00255691 -0.000224799 0)
(-0.00223901 -0.00021626 0)
(-0.00193409 -0.000206351 0)
(-0.00164405 -0.000195075 0)
(-0.00137076 -0.000182447 0)
(-0.00111606 -0.000168494 0)
(-0.000881723 -0.000153257 0)
(-0.000669426 -0.000136797 0)
(-0.000480718 -0.000119203 0)
(-0.000316976 -0.000100597 0)
(-0.000179342 -8.1154e-05 0)
(-6.86433e-05 -6.11171e-05 0)
(1.473e-05 -4.08346e-05 0)
(7.09817e-05 -2.08108e-05 0)
(0.000101143 -1.79352e-06 0)
(0.000107385 1.5094e-05 0)
(9.338e-05 2.81614e-05 0)
(6.48693e-05 3.48591e-05 0)
(3.15195e-05 3.15083e-05 0)
(7.58761e-06 1.4438e-05 0)
(8.88045e-06 -3.40137e-05 0)
(3.35472e-05 -6.34089e-05 0)
(6.18916e-05 -6.22503e-05 0)
(7.67503e-05 -3.91829e-05 0)
(6.65297e-05 -1.5119e-06 0)
(2.40147e-05 4.53421e-05 0)
(-5.55387e-05 9.74411e-05 0)
(-0.000174971 0.000152047 0)
(-0.000335577 0.000207211 0)
(-0.000537504 0.000261577 0)
(-0.000780014 0.000314186 0)
(-0.00106173 0.000364359 0)
(-0.0013808 0.000411615 0)
(-0.00173501 0.000455625 0)
(-0.00212192 0.000496159 0)
(-0.00253887 0.000533063 0)
(-0.00298309 0.00056625 0)
(-0.00345175 0.000595675 0)
(-0.00394197 0.000621328 0)
(-0.00445082 0.000643233 0)
(-0.00497542 0.000661431 0)
(-0.00551289 0.000675979 0)
(-0.00606038 0.000686947 0)
(-0.00661511 0.000694418 0)
(-0.00717434 0.000698479 0)
(-0.00773542 0.000699228 0)
(-0.00829575 0.000696767 0)
(-0.00885282 0.000691202 0)
(-0.0094042 0.000682646 0)
(-0.00994754 0.000671212 0)
(-0.0104806 0.000657016 0)
(-0.0110012 0.000640176 0)
(-0.0115072 0.00062081 0)
(-0.0119967 0.000599039 0)
(-0.0124678 0.000574981 0)
(-0.0129187 0.000548761 0)
(-0.0133478 0.000520501 0)
(-0.0137534 0.000490323 0)
(-0.014134 0.000458354 0)
(-0.0144883 0.000424722 0)
(-0.0148149 0.000389554 0)
(-0.0151128 0.000352978 0)
(-0.0153807 0.000315128 0)
(-0.0156178 0.000276133 0)
(-0.0158231 0.000236126 0)
(-0.015996 0.000195244 0)
(-0.0161358 0.000153618 0)
(-0.0162418 0.000111387 0)
(-0.0163138 6.86922e-05 0)
(-0.0163513 2.56744e-05 0)
(-0.0163543 -1.75251e-05 0)
(-0.0163225 -6.07595e-05 0)
(-0.0162561 -0.000103881 0)
(-0.0161552 -0.000146742 0)
(-0.0160201 -0.000189194 0)
(-0.0158512 -0.000231083 0)
(-0.0156489 -0.000272255 0)
(-0.015414 -0.000312556 0)
(-0.0151472 -0.000351825 0)
(-0.0148494 -0.000389902 0)
(-0.0145217 -0.00042663 0)
(-0.0141651 -0.000461846 0)
(-0.0137811 -0.000495391 0)
(-0.0133709 -0.000527105 0)
(-0.0129361 -0.000556831 0)
(-0.0124784 -0.000584415 0)
(-0.0119995 -0.000609703 0)
(-0.0115014 -0.000632545 0)
(-0.0109861 -0.000652794 0)
(-0.0104556 -0.000670303 0)
(-0.0099123 -0.000684932 0)
(-0.00935849 -0.000696544 0)
(-0.00879662 -0.000705011 0)
(-0.00822926 -0.00071021 0)
(-0.00765902 -0.000712026 0)
(-0.00708864 -0.000710355 0)
(-0.00652091 -0.000705105 0)
(-0.00595867 -0.000696194 0)
(-0.00540485 -0.000683554 0)
(-0.00486238 -0.000667132 0)
(-0.00433423 -0.000646894 0)
(-0.00382339 -0.000622824 0)
(-0.00333284 -0.000594931 0)
(-0.00286551 -0.000563246 0)
(-0.00242429 -0.000527835 0)
(-0.00201198 -0.000488803 0)
(-0.00163125 -0.000446302 0)
(-0.0012846 -0.000400548 0)
(-0.000974316 -0.000351836 0)
(-0.000702356 -0.000300568 0)
(-0.000470298 -0.000247289 0)
(-0.000279196 -0.000192741 0)
(-0.000129419 -0.000137938 0)
(-2.04402e-05 -8.42806e-05 0)
(4.94424e-05 -3.37194e-05 0)
(8.34586e-05 1.10129e-05 0)
(8.671e-05 4.61082e-05 0)
(6.66451e-05 6.63501e-05 0)
(3.50013e-05 6.48891e-05 0)
(9.06018e-06 3.37501e-05 0)
(7.71333e-06 -5.19493e-05 0)
(2.58879e-05 -8.90331e-05 0)
(3.93065e-05 -7.7148e-05 0)
(3.04715e-05 -3.01774e-05 0)
(-1.27306e-05 4.10447e-05 0)
(-9.82528e-05 0.000128103 0)
(-0.00023152 0.000224701 0)
(-0.000415882 0.00032616 0)
(-0.000653002 0.000429064 0)
(-0.000943156 0.000530907 0)
(-0.00128557 0.00062986 0)
(-0.00167865 0.000724578 0)
(-0.00212016 0.000814092 0)
(-0.00260738 0.000897699 0)
(-0.00313724 0.0009749 0)
(-0.00370639 0.00104535 0)
(-0.00431131 0.00110884 0)
(-0.00494831 0.00116523 0)
(-0.00561366 0.00121447 0)
(-0.00630357 0.00125656 0)
(-0.00701422 0.00129156 0)
(-0.00774183 0.00131956 0)
(-0.00848265 0.00134067 0)
(-0.00923297 0.00135503 0)
(-0.00998917 0.0013628 0)
(-0.0107477 0.00136415 0)
(-0.011505 0.00135928 0)
(-0.0122579 0.00134839 0)
(-0.013003 0.00133167 0)
(-0.0137371 0.00130936 0)
(-0.0144573 0.00128166 0)
(-0.0151606 0.0012488 0)
(-0.0158443 0.00121102 0)
(-0.0165056 0.00116854 0)
(-0.017142 0.0011216 0)
(-0.0177511 0.00107043 0)
(-0.0183306 0.00101528 0)
(-0.0188785 0.000956385 0)
(-0.0193925 0.000893995 0)
(-0.019871 0.000828355 0)
(-0.0203121 0.000759717 0)
(-0.0207142 0.00068833 0)
(-0.021076 0.000614453 0)
(-0.021396 0.000538342 0)
(-0.0216731 0.000460257 0)
(-0.0219064 0.00038046 0)
(-0.0220948 0.000299219 0)
(-0.0222378 0.000216804 0)
(-0.0223347 0.000133487 0)
(-0.022385 4.95451e-05 0)
(-0.0223887 -3.474e-05 0)
(-0.0223454 -0.000119086 0)
(-0.0222554 -0.000203204 0)
(-0.0221187 -0.000286801 0)
(-0.0219359 -0.000369585 0)
(-0.0217074 -0.000451258 0)
(-0.021434 -0.000531518 0)
(-0.0211164 -0.00061006 0)
(-0.0207559 -0.000686577 0)
(-0.0203536 -0.000760762 0)
(-0.0199108 -0.000832301 0)
(-0.0194292 -0.000900886 0)
(-0.0189105 -0.000966206 0)
(-0.0183566 -0.00102795 0)
(-0.0177696 -0.00108582 0)
(-0.0171516 -0.00113951 0)
(-0.0165051 -0.00118873 0)
(-0.0158326 -0.00123318 0)
(-0.015137 -0.00127258 0)
(-0.0144209 -0.00130664 0)
(-0.0136875 -0.00133511 0)
(-0.0129398 -0.00135773 0)
(-0.0121813 -0.00137424 0)
(-0.0114152 -0.00138442 0)
(-0.0106452 -0.00138807 0)
(-0.00987473 -0.00138497 0)
(-0.00910767 -0.00137497 0)
(-0.00834775 -0.00135792 0)
(-0.00759884 -0.0013337 0)
(-0.00686483 -0.00130221 0)
(-0.00614964 -0.00126342 0)
(-0.0054572 -0.00121731 0)
(-0.00479141 -0.00116392 0)
(-0.00415609 -0.00110334 0)
(-0.00355501 -0.00103572 0)
(-0.00299176 -0.000961314 0)
(-0.00246976 -0.000880448 0)
(-0.0019922 -0.000793586 0)
(-0.00156191 -0.000701348 0)
(-0.00118131 -0.000604557 0)
(-0.000852295 -0.000504304 0)
(-0.000576067 -0.000402033 0)
(-0.000352962 -0.000299667 0)
(-0.000182224 -0.000199772 0)
(-6.17212e-05 -0.000105786 0)
(1.23824e-05 -2.23174e-05 0)
(4.59353e-05 4.44866e-05 0)
(4.72065e-05 8.65783e-05 0)
(2.86394e-05 9.37002e-05 0)
(8.15281e-06 5.27442e-05 0)
(5.32384e-06 -6.39434e-05 0)
(1.22522e-05 -9.91845e-05 0)
(2.63925e-06 -6.73449e-05 0)
(-3.92662e-05 1.28365e-05 0)
(-0.00012508 0.000127083 0)
(-0.000262848 0.000264149 0)
(-0.000458131 0.000415336 0)
(-0.000714453 0.000574026 0)
(-0.00103355 0.000735204 0)
(-0.00141574 0.000895089 0)
(-0.00186016 0.00105083 0)
(-0.00236501 0.00120028 0)
(-0.00292774 0.00134187 0)
(-0.00354523 0.00147439 0)
(-0.00421388 0.00159701 0)
(-0.00492977 0.0017091 0)
(-0.00568873 0.00181026 0)
(-0.00648638 0.00190024 0)
(-0.00731825 0.00197888 0)
(-0.00817977 0.00204617 0)
(-0.00906635 0.00210214 0)
(-0.00997339 0.0021469 0)
(-0.0108963 0.00218062 0)
(-0.0118306 0.00220349 0)
(-0.0127719 0.00221576 0)
(-0.0137158 0.00221768 0)
(-0.014658 0.00220955 0)
(-0.0155943 0.00219168 0)
(-0.0165209 0.00216439 0)
(-0.0174337 0.00212803 0)
(-0.0183291 0.00208294 0)
(-0.0192034 0.00202949 0)
(-0.0200532 0.00196803 0)
(-0.0208751 0.00189895 0)
(-0.0216661 0.00182262 0)
(-0.0224231 0.00173942 0)
(-0.0231432 0.00164975 0)
(-0.0238239 0.00155399 0)
(-0.0244626 0.00145255 0)
(-0.0250571 0.00134583 0)
(-0.025605 0.00123424 0)
(-0.0261046 0.00111817 0)
(-0.0265538 0.000998064 0)
(-0.0269513 0.000874324 0)
(-0.0272954 0.000747378 0)
(-0.0275849 0.000617656 0)
(-0.0278187 0.00048559 0)
(-0.027996 0.000351623 0)
(-0.028116 0.000216201 0)
(-0.0281782 7.97739e-05 0)
(-0.0281823 -5.72009e-05 0)
(-0.0281283 -0.000194259 0)
(-0.028016 -0.000330933 0)
(-0.0278459 -0.000466748 0)
(-0.0276184 -0.000601224 0)
(-0.0273342 -0.000733876 0)
(-0.0269942 -0.000864216 0)
(-0.0265995 -0.000991748 0)
(-0.0261514 -0.00111598 0)
(-0.0256513 -0.0012364 0)
(-0.0251012 -0.00135251 0)
(-0.0245028 -0.00146382 0)
(-0.0238584 -0.00156982 0)
(-0.0231703 -0.00167002 0)
(-0.022441 -0.00176392 0)
(-0.0216734 -0.00185103 0)
(-0.0208703 -0.00193089 0)
(-0.0200351 -0.00200301 0)
(-0.0191709 -0.00206695 0)
(-0.0182814 -0.00212226 0)
(-0.0173703 -0.00216851 0)
(-0.0164414 -0.0022053 0)
(-0.0154989 -0.00223223 0)
(-0.0145468 -0.00224895 0)
(-0.0135896 -0.00225512 0)
(-0.0126316 -0.00225046 0)
(-0.0116775 -0.00223469 0)
(-0.0107318 -0.00220759 0)
(-0.00979924 -0.002169 0)
(-0.00888463 -0.00211879 0)
(-0.00799268 -0.00205691 0)
(-0.00712815 -0.00198336 0)
(-0.00629575 -0.00189824 0)
(-0.00550008 -0.00180173 0)
(-0.00474564 -0.00169412 0)
(-0.00403672 -0.00157585 0)
(-0.00337737 -0.00144751 0)
(-0.00277131 -0.00130988 0)
(-0.00222188 -0.00116401 0)
(-0.00173185 -0.00101126 0)
(-0.00130339 -0.000853407 0)
(-0.000937841 -0.000692731 0)
(-0.000635566 -0.000532213 0)
(-0.000395724 -0.000375723 0)
(-0.00021601 -0.000228292 0)
(-9.23703e-05 -9.64646e-05 0)
(-1.87225e-05 1.12873e-05 0)
(1.3408e-05 8.41533e-05 0)
(1.6124e-05 0.000108529 0)
(5.9667e-06 6.64404e-05 0)
(2.33893e-06 -6.76535e-05 0)
(-4.87924e-06 -8.84888e-05 0)
(-4.29666e-05 -2.58086e-05 0)
(-0.000124621 9.7681e-05 0)
(-0.00026008 0.000264616 0)
(-0.00045702 0.000461144 0)
(-0.000720752 0.000676314 0)
(-0.00105459 0.000901602 0)
(-0.00146017 0.00113039 0)
(-0.00193767 0.00135757 0)
(-0.00248606 0.00157918 0)
(-0.0031033 0.00179222 0)
(-0.00378655 0.00199437 0)
(-0.00453231 0.0021839 0)
(-0.00533656 0.00235951 0)
(-0.00619487 0.00252027 0)
(-0.0071025 0.00266552 0)
(-0.00805448 0.00279482 0)
(-0.0090457 0.00290792 0)
(-0.0100709 0.00300472 0)
(-0.0111248 0.00308524 0)
(-0.0122021 0.0031496 0)
(-0.0132976 0.00319799 0)
(-0.0144059 0.00323067 0)
(-0.0155219 0.00324797 0)
(-0.0166406 0.00325025 0)
(-0.0177569 0.0032379 0)
(-0.0188661 0.00321137 0)
(-0.0199633 0.00317112 0)
(-0.0210442 0.00311763 0)
(-0.0221041 0.00305139 0)
(-0.023139 0.00297293 0)
(-0.0241447 0.00288278 0)
(-0.0251174 0.00278147 0)
(-0.0260533 0.00266956 0)
(-0.0269489 0.0025476 0)
(-0.0278009 0.00241617 0)
(-0.0286061 0.00227583 0)
(-0.0293616 0.00212717 0)
(-0.0300647 0.00197077 0)
(-0.0307127 0.00180724 0)
(-0.0313034 0.00163717 0)
(-0.0318346 0.00146118 0)
(-0.0323044 0.00127987 0)
(-0.0327112 0.00109387 0)
(-0.0330533 0.000903821 0)
(-0.0333295 0.000710347 0)
(-0.0335389 0.000514099 0)
(-0.0336805 0.000315731 0)
(-0.0337537 0.000115907 0)
(-0.0337582 -8.47028e-05 0)
(-0.0336939 -0.00028542 0)
(-0.0335608 -0.000485555 0)
(-0.0333593 -0.000684413 0)
(-0.03309 -0.000881292 0)
(-0.0327536 -0.00107548 0)
(-0.0323512 -0.00126627 0)
(-0.0318842 -0.00145292 0)
(-0.031354 -0.00163472 0)
(-0.0307626 -0.00181094 0)
(-0.0301118 -0.00198084 0)
(-0.0294041 -0.0021437 0)
(-0.028642 -0.00229879 0)
(-0.0278282 -0.00244538 0)
(-0.0269657 -0.00258276 0)
(-0.0260579 -0.00271023 0)
(-0.0251081 -0.00282709 0)
(-0.0241203 -0.00293266 0)
(-0.0230981 -0.00302628 0)
(-0.022046 -0.00310731 0)
(-0.0209681 -0.00317515 0)
(-0.0198691 -0.0032292 0)
(-0.0187536 -0.00326891 0)
(-0.0176267 -0.00329377 0)
(-0.0164933 -0.00330332 0)
(-0.0153586 -0.00329714 0)
(-0.0142279 -0.00327486 0)
(-0.0131067 -0.00323619 0)
(-0.0120004 -0.0031809 0)
(-0.0109144 -0.00310884 0)
(-0.00985436 -0.00301996 0)
(-0.00882569 -0.00291431 0)
(-0.00783382 -0.00279205 0)
(-0.00688404 -0.00265351 0)
(-0.00598147 -0.00249915 0)
(-0.00513102 -0.00232965 0)
(-0.00433728 -0.00214591 0)
(-0.00360446 -0.00194913 0)
(-0.00293629 -0.00174086 0)
(-0.0023359 -0.00152309 0)
(-0.00180572 -0.00129835 0)
(-0.00134727 -0.00106989 0)
(-0.000961045 -0.000841802 0)
(-0.000646266 -0.000619329 0)
(-0.000400698 -0.000409114 0)
(-0.000220394 -0.000219597 0)
(-9.94408e-05 -6.1465e-05 0)
(-2.96393e-05 5.19002e-05 0)
(-3.04012e-08 0.000103858 0)
(3.14536e-06 7.23948e-05 0)
(-8.9723e-07 -6.18425e-05 0)
(-2.39007e-05 -5.35583e-05 0)
(-9.39478e-05 5.22697e-05 0)
(-0.000219824 0.000229927 0)
(-0.000409898 0.0004595 0)
(-0.000671059 0.000724811 0)
(-0.00100803 0.0010129 0)
(-0.00142369 0.00131343 0)
(-0.00191931 0.00161826 0)
(-0.00249479 0.00192094 0)
(-0.00314884 0.00221641 0)
(-0.00387913 0.00250072 0)
(-0.0046825 0.00277081 0)
(-0.00555509 0.00302432 0)
(-0.00649246 0.00325947 0)
(-0.00748974 0.00347494 0)
(-0.0085417 0.00366977 0)
(-0.00964283 0.00384331 0)
(-0.0107874 0.00399518 0)
(-0.0119697 0.00412516 0)
(-0.0131837 0.00423324 0)
(-0.0144236 0.00431951 0)
(-0.0156833 0.00438422 0)
(-0.016957 0.00442768 0)
(-0.0182389 0.00445028 0)
(-0.0195232 0.0044525 0)
(-0.0208044 0.00443486 0)
(-0.0220769 0.00439793 0)
(-0.0233354 0.00434232 0)
(-0.0245748 0.00426866 0)
(-0.02579 0.00417764 0)
(-0.0269763 0.00406994 0)
(-0.0281289 0.00394627 0)
(-0.0292435 0.00380738 0)
(-0.0303159 0.003654 0)
(-0.0313419 0.00348689 0)
(-0.0323179 0.00330683 0)
(-0.0332402 0.0031146 0)
(-0.0341055 0.00291099 0)
(-0.0349106 0.00269681 0)
(-0.0356527 0.00247288 0)
(-0.036329 0.00224 0)
(-0.0369371 0.00199903 0)
(-0.0374749 0.0017508 0)
(-0.0379404 0.00149616 0)
(-0.0383319 0.00123599 0)
(-0.038648 0.000971147 0)
(-0.0388874 0.000702526 0)
(-0.0390492 0.000431021 0)
(-0.0391328 0.000157541 0)
(-0.0391376 -0.000116994 0)
(-0.0390637 -0.000391654 0)
(-0.038911 -0.000665499 0)
(-0.03868 -0.000937576 0)
(-0.0383714 -0.00120692 0)
(-0.037986 -0.00147257 0)
(-0.0375251 -0.00173354 0)
(-0.0369902 -0.00198884 0)
(-0.036383 -0.00223749 0)
(-0.0357057 -0.0024785 0)
(-0.0349605 -0.00271086 0)
(-0.0341501 -0.00293358 0)
(-0.0332774 -0.00314568 0)
(-0.0323455 -0.00334617 0)
(-0.0313579 -0.00353408 0)
(-0.0303182 -0.00370845 0)
(-0.0292306 -0.00386835 0)
(-0.0280991 -0.00401285 0)
(-0.0269284 -0.00414107 0)
(-0.025723 -0.00425215 0)
(-0.024488 -0.00434525 0)
(-0.0232285 -0.0044196 0)
(-0.0219498 -0.00447446 0)
(-0.0206576 -0.00450915 0)
(-0.0193576 -0.00452306 0)
(-0.0180555 -0.00451564 0)
(-0.0167574 -0.00448641 0)
(-0.0154694 -0.004435 0)
(-0.0141975 -0.00436114 0)
(-0.0129481 -0.00426464 0)
(-0.0117272 -0.00414549 0)
(-0.010541 -0.00400377 0)
(-0.0093955 -0.00383978 0)
(-0.00829667 -0.00365397 0)
(-0.00725017 -0.00344704 0)
(-0.00626144 -0.00321996 0)
(-0.00533556 -0.00297399 0)
(-0.00447719 -0.0027108 0)
(-0.00369044 -0.00243251 0)
(-0.00297878 -0.00214178 0)
(-0.00234492 -0.001842 0)
(-0.00179064 -0.00153738 0)
(-0.00131666 -0.00123321 0)
(-0.000922441 -0.000936058 0)
(-0.000606019 -0.000654157 0)
(-0.000363825 -0.000397734 0)
(-0.00019044 -0.000179506 0)
(-7.83161e-05 -1.51362e-05 0)
(-1.82022e-05 7.61616e-05 0)
(4.29319e-08 6.92912e-05 0)
(-4.19769e-06 -4.58973e-05 0)
(-4.38167e-05 7.62014e-06 0)
(-0.000147846 0.000169992 0)
(-0.000320803 0.000413388 0)
(-0.000568804 0.00071584 0)
(-0.000897698 0.00105929 0)
(-0.00131136 0.00142894 0)
(-0.001812 0.00181289 0)
(-0.00240036 0.00220152 0)
(-0.00307592 0.00258712 0)
(-0.00383699 0.00296354 0)
(-0.00468091 0.0033259 0)
(-0.00560414 0.00367035 0)
(-0.00660245 0.00399389 0)
(-0.00767101 0.0042942 0)
(-0.00880451 0.00456954 0)
(-0.00999727 0.00481864 0)
(-0.0112433 0.00504059 0)
(-0.0125364 0.00523483 0)
(-0.0138702 0.00540103 0)
(-0.0152382 0.00553912 0)
(-0.0166339 0.00564917 0)
(-0.0180509 0.00573144 0)
(-0.0194827 0.00578629 0)
(-0.0209227 0.00581421 0)
(-0.0223649 0.00581576 0)
(-0.0238028 0.0057916 0)
(-0.0252305 0.00574244 0)
(-0.0266421 0.00566905 0)
(-0.0280318 0.00557225 0)
(-0.0293941 0.00545288 0)
(-0.0307236 0.00531184 0)
(-0.0320152 0.00515004 0)
(-0.033264 0.00496843 0)
(-0.0344652 0.00476797 0)
(-0.0356145 0.00454965 0)
(-0.0367075 0.00431446 0)
(-0.0377403 0.00406342 0)
(-0.0387091 0.00379757 0)
(-0.0396105 0.00351795 0)
(-0.0404412 0.00322561 0)
(-0.0411982 0.00292165 0)
(-0.0418789 0.00260714 0)
(-0.0424807 0.00228317 0)
(-0.0430016 0.00195088 0)
(-0.0434396 0.00161137 0)
(-0.0437931 0.0012658 0)
(-0.0440609 0.000915326 0)
(-0.0442418 0.00056111 0)
(-0.044335 0.00020434 0)
(-0.0443403 -0.000153783 0)
(-0.0442573 -0.000512046 0)
(-0.0440862 -0.000869222 0)
(-0.0438275 -0.00122407 0)
(-0.0434818 -0.00157534 0)
(-0.0430504 -0.00192176 0)
(-0.0425344 -0.00226207 0)
(-0.0419356 -0.00259498 0)
(-0.041256 -0.0029192 0)
(-0.0404978 -0.00323345 0)
(-0.0396637 -0.00353643 0)
(-0.0387566 -0.00382685 0)
(-0.0377796 -0.00410343 0)
(-0.0367364 -0.00436491 0)
(-0.0356308 -0.00461001 0)
(-0.0344668 -0.00483752 0)
(-0.033249 -0.00504621 0)
(-0.0319819 -0.00523489 0)
(-0.0306706 -0.00540243 0)
(-0.0293204 -0.00554772 0)
(-0.0279366 -0.00566969 0)
(-0.0265251 -0.00576735 0)
(-0.0250917 -0.00583976 0)
(-0.0236425 -0.00588607 0)
(-0.022184 -0.00590548 0)
(-0.0207226 -0.00589732 0)
(-0.0192648 -0.00586101 0)
(-0.0178174 -0.00579608 0)
(-0.0163871 -0.00570221 0)
(-0.0149807 -0.00557921 0)
(-0.013605 -0.00542708 0)
(-0.0122667 -0.00524601 0)
(-0.0109725 -0.00503638 0)
(-0.00972871 -0.00479887 0)
(-0.00854163 -0.00453441 0)
(-0.00741718 -0.00424428 0)
(-0.00636089 -0.00393019 0)
(-0.00537783 -0.00359429 0)
(-0.00447251 -0.0032393 0)
(-0.00364877 -0.00286863 0)
(-0.00290963 -0.00248651 0)
(-0.00225722 -0.00209816 0)
(-0.00169258 -0.00171001 0)
(-0.00121555 -0.00132997 0)
(-0.000824642 -0.000967731 0)
(-0.000516878 -0.000635167 0)
(-0.000287581 -0.000346792 0)
(-0.000130137 -0.000120211 0)
(-3.73598e-05 2.33047e-05 0)
(-3.1437e-06 5.64593e-05 0)
(-7.46538e-06 -1.96056e-05 0)
(-6.40061e-05 9.60747e-05 0)
(-0.000203043 0.000329163 0)
(-0.000424706 0.000650419 0)
(-0.000732687 0.00103637 0)
(-0.0011316 0.00146739 0)
(-0.0016243 0.00192719 0)
(-0.00221212 0.00240244 0)
(-0.00289516 0.0028822 0)
(-0.00367231 0.00335759 0)
(-0.00454143 0.00382142 0)
(-0.0054994 0.0042679 0)
(-0.00654228 0.00469238 0)
(-0.00766543 0.00509123 0)
(-0.00886362 0.00546157 0)
(-0.0101311 0.00580124 0)
(-0.0114618 0.00610858 0)
(-0.0128492 0.00638246 0)
(-0.0142867 0.00662208 0)
(-0.0157673 0.006827 0)
(-0.0172842 0.00699705 0)
(-0.0188303 0.0071323 0)
(-0.0203987 0.00723299 0)
(-0.0219821 0.00729954 0)
(-0.0235738 0.00733251 0)
(-0.0251669 0.00733258 0)
(-0.0267547 0.00730054 0)
(-0.0283305 0.00723724 0)
(-0.0298879 0.00714361 0)
(-0.0314207 0.00702068 0)
(-0.0329229 0.00686947 0)
(-0.0343886 0.0066911 0)
(-0.0358122 0.0064867 0)
(-0.0371884 0.00625744 0)
(-0.0385119 0.00600452 0)
(-0.039778 0.00572918 0)
(-0.0409819 0.00543266 0)
(-0.0421193 0.00511624 0)
(-0.0431862 0.00478121 0)
(-0.0441787 0.00442889 0)
(-0.0450933 0.0040606 0)
(-0.0459267 0.0036777 0)
(-0.0466759 0.00328155 0)
(-0.0473383 0.00287354 0)
(-0.0479116 0.00245506 0)
(-0.0483936 0.00202755 0)
(-0.0487826 0.00159242 0)
(-0.0490772 0.00115115 0)
(-0.0492762 0.000705196 0)
(-0.0493787 0.000256057 0)
(-0.0493844 -0.000194759 0)
(-0.0492929 -0.000645728 0)
(-0.0491045 -0.0010953 0)
(-0.0488197 -0.00154193 0)
(-0.0484392 -0.00198403 0)
(-0.0479643 -0.00242002 0)
(-0.0473964 -0.00284831 0)
(-0.0467373 -0.00326727 0)
(-0.0459893 -0.00367531 0)
(-0.0451548 -0.00407079 0)
(-0.0442366 -0.00445212 0)
(-0.0432381 -0.00481766 0)
(-0.0421626 -0.00516583 0)
(-0.0410141 -0.00549503 0)
(-0.0397968 -0.0058037 0)
(-0.0385151 -0.00609028 0)
(-0.0371738 -0.00635327 0)
(-0.0357782 -0.0065912 0)
(-0.0343336 -0.00680263 0)
(-0.0328457 -0.0069862 0)
(-0.0313205 -0.00714059 0)
(-0.0297642 -0.00726458 0)
(-0.0281833 -0.00735701 0)
(-0.0265845 -0.00741682 0)
(-0.0249746 -0.00744306 0)
(-0.0233606 -0.0074349 0)
(-0.0217497 -0.00739165 0)
(-0.0201492 -0.00731276 0)
(-0.0185663 -0.00719786 0)
(-0.0170085 -0.00704676 0)
(-0.015483 -0.00685949 0)
(-0.0139971 -0.00663634 0)
(-0.0125581 -0.00637783 0)
(-0.0111727 -0.00608485 0)
(-0.0098477 -0.0057586 0)
(-0.00858953 -0.00540074 0)
(-0.00740415 -0.00501337 0)
(-0.00629706 -0.00459921 0)
(-0.00527315 -0.00416159 0)
(-0.00433666 -0.00370468 0)
(-0.00349101 -0.00323357 0)
(-0.00273873 -0.00275445 0)
(-0.00208129 -0.00227487 0)
(-0.00151906 -0.00180399 0)
(-0.00105115 -0.00135284 0)
(-0.000675368 -0.000934773 0)
(-0.00038796 -0.000565847 0)
(-0.000183435 -0.000265255 0)
(-5.68599e-05 -5.58385e-05 0)
(-6.30879e-06 3.36431e-05 0)
(-1.06519e-05 1.70127e-05 0)
(-8.40928e-05 0.000212174 0)
(-0.000258477 0.000530639 0)
(-0.000529583 0.000942338 0)
(-0.000898632 0.00142271 0)
(-0.00136889 0.00195092 0)
(-0.00194206 0.00250946 0)
(-0.00261849 0.00308375 0)
(-0.00339748 0.00366172 0)
(-0.00427725 0.0042334 0)
(-0.00525508 0.00479064 0)
(-0.00632735 0.00532677 0)
(-0.00748965 0.00583641 0)
(-0.0087369 0.00631525 0)
(-0.0100634 0.00675991 0)
(-0.0114631 0.00716773 0)
(-0.0129293 0.00753674 0)
(-0.0144552 0.00786548 0)
(-0.0160337 0.00815297 0)
(-0.0176574 0.00839862 0)
(-0.0193188 0.00860216 0)
(-0.0210106 0.00876362 0)
(-0.0227252 0.00888324 0)
(-0.0244551 0.0089615 0)
(-0.0261928 0.00899903 0)
(-0.027931 0.00899661 0)
(-0.0296626 0.00895516 0)
(-0.0313803 0.0088757 0)
(-0.0330774 0.00875934 0)
(-0.0347472 0.00860728 0)
(-0.036383 0.00842078 0)
(-0.0379787 0.00820116 0)
(-0.0395282 0.0079498 0)
(-0.0410257 0.00766812 0)
(-0.0424658 0.00735756 0)
(-0.043843 0.00701963 0)
(-0.0451524 0.00665585 0)
(-0.0463894 0.00626776 0)
(-0.0475495 0.00585694 0)
(-0.0486286 0.00542501 0)
(-0.0496229 0.00497358 0)
(-0.0505288 0.00450429 0)
(-0.0513432 0.00401883 0)
(-0.0520632 0.00351888 0)
(-0.0526862 0.00300617 0)
(-0.0532101 0.00248241 0)
(-0.0536328 0.00194938 0)
(-0.0539529 0.00140885 0)
(-0.0541692 0.000862625 0)
(-0.0542806 0.000312529 0)
(-0.0542868 -0.000239594 0)
(-0.0541874 -0.000791876 0)
(-0.0539828 -0.00134243 0)
(-0.0536734 -0.00188936 0)
(-0.05326 -0.00243073 0)
(-0.052744 -0.00296461 0)
(-0.052127 -0.00348905 0)
(-0.0514109 -0.00400209 0)
(-0.0505981 -0.00450176 0)
(-0.0496913 -0.00498609 0)
(-0.0486936 -0.00545311 0)
(-0.0476083 -0.00590086 0)
(-0.0464394 -0.00632739 0)
(-0.0451909 -0.00673077 0)
(-0.0438675 -0.00710908 0)
(-0.0424738 -0.00746047 0)
(-0.0410152 -0.00778309 0)
(-0.0394971 -0.00807516 0)
(-0.0379254 -0.00833496 0)
(-0.0363061 -0.00856082 0)
(-0.0346459 -0.00875118 0)
(-0.0329512 -0.00890453 0)
(-0.0312291 -0.00901951 0)
(-0.0294867 -0.00909485 0)
(-0.0277313 -0.00912941 0)
(-0.0259706 -0.00912222 0)
(-0.0242122 -0.00907245 0)
(-0.0224638 -0.00897949 0)
(-0.0207333 -0.00884291 0)
(-0.0190286 -0.00866253 0)
(-0.0173575 -0.00843843 0)
(-0.0157278 -0.00817098 0)
(-0.014147 -0.00786089 0)
(-0.0126227 -0.00750924 0)
(-0.0111619 -0.00711756 0)
(-0.00977163 -0.00668785 0)
(-0.00845821 -0.00622268 0)
(-0.00722757 -0.0057253 0)
(-0.00608506 -0.0051997 0)
(-0.00503534 -0.00465078 0)
(-0.00408228 -0.00408445 0)
(-0.00322888 -0.00350788 0)
(-0.00247718 -0.00292967 0)
(-0.00182814 -0.00236009 0)
(-0.00128162 -0.00181144 0)
(-0.000836328 -0.00129833 0)
(-0.000489578 -0.000838114 0)
(-0.000237109 -0.000451248 0)
(-7.63087e-05 -0.000161715 0)
(-9.39798e-06 8.34683e-07 0)
(-1.37299e-05 6.3801e-05 0)
(-0.00010386 0.000355854 0)
(-0.000313466 0.000774645 0)
(-0.000634135 0.00128967 0)
(-0.00106464 0.00187565 0)
(-0.00160683 0.00251085 0)
(-0.00226121 0.00317678 0)
(-0.00302702 0.00385784 0)
(-0.00390268 0.00454095 0)
(-0.00488565 0.0052152 0)
(-0.00597255 0.00587153 0)
(-0.00715918 0.00650248 0)
(-0.00844062 0.00710196 0)
(-0.00981131 0.00766504 0)
(-0.0112651 0.00818779 0)
(-0.0127954 0.00866714 0)
(-0.0143952 0.00910073 0)
(-0.0160572 0.00948682 0)
(-0.0177738 0.00982423 0)
(-0.0195373 0.0101122 0)
(-0.0213398 0.0103503 0)
(-0.0231733 0.0105387 0)
(-0.0250299 0.0106774 0)
(-0.0269016 0.0107671 0)
(-0.0287806 0.0108085 0)
(-0.030659 0.0108024 0)
(-0.0325292 0.0107499 0)
(-0.0343836 0.0106521 0)
(-0.036215 0.0105105 0)
(-0.0380163 0.0103263 0)
(-0.0397804 0.010101 0)
(-0.0415007 0.00983631 0)
(-0.0431708 0.00953374 0)
(-0.0447845 0.00919498 0)
(-0.0463359 0.00882177 0)
(-0.0478194 0.00841587 0)
(-0.0492297 0.00797911 0)
(-0.0505617 0.00751333 0)
(-0.0518108 0.0070204 0)
(-0.0529725 0.00650225 0)
(-0.0540428 0.00596081 0)
(-0.055018 0.00539805 0)
(-0.0558946 0.00481596 0)
(-0.0566695 0.00421658 0)
(-0.05734 0.00360195 0)
(-0.0579038 0.00297415 0)
(-0.0583588 0.00233528 0)
(-0.0587034 0.00168746 0)
(-0.0589362 0.00103287 0)
(-0.0590563 0.000373665 0)
(-0.0590631 -0.000287934 0)
(-0.0589564 -0.000949701 0)
(-0.0587365 -0.00160938 0)
(-0.0584039 -0.0022647 0)
(-0.0579595 -0.00291335 0)
(-0.0574046 -0.00355304 0)
(-0.056741 -0.00418142 0)
(-0.0559708 -0.00479617 0)
(-0.0550966 -0.00539493 0)
(-0.0541211 -0.00597535 0)
(-0.0530476 -0.0065351 0)
(-0.0518799 -0.00707183 0)
(-0.050622 -0.00758322 0)
(-0.0492783 -0.00806698 0)
(-0.0478536 -0.00852084 0)
(-0.0463531 -0.00894258 0)
(-0.0447823 -0.00933001 0)
(-0.0431471 -0.00968103 0)
(-0.0414537 -0.00999358 0)
(-0.0397086 -0.0102657 0)
(-0.0379187 -0.0104956 0)
(-0.0360911 -0.0106814 0)
(-0.0342331 -0.0108215 0)