/*--------------------------------*- C++ -*----------------------------------*\
  =========                 |
  \\      /  F ield         | OpenFOAM: The Open Source CFD Toolbox
   \\    /   O peration     | Website:  https://openfoam.org
    \\  /    A nd           | Version:  11
     \\/     M anipulation  |
\*---------------------------------------------------------------------------*/
FoamFile
{
    format      ascii;
    class       surfaceScalarField;
    location    "7.6";
    object      phi;
}
// * * * * * * * * * * * * * * * * * * * * * * * * * * * * * * * * * * * * * //

dimensions      [0 3 -1 0 0 0 0];

internalField   nonuniform List<scalar> 
19980
(
6.99899e-07
-7.0032e-07
2.38592e-06
-1.68622e-06
4.22149e-06
-1.83547e-06
5.64692e-06
-1.42538e-06
6.34379e-06
-6.96626e-07
6.13557e-06
2.0802e-07
4.93384e-06
1.20179e-06
2.705e-06
2.22862e-06
-5.4821e-07
3.25333e-06
-4.80056e-06
4.25243e-06
-1.00115e-05
5.21089e-06
-1.61297e-05
6.11824e-06
-2.3097e-05
6.96729e-06
-3.0851e-05
7.754e-06
-3.93263e-05
8.47527e-06
-4.84559e-05
9.12958e-06
-5.81718e-05
9.716e-06
-6.84058e-05
1.02341e-05
-7.90904e-05
1.06845e-05
-9.01586e-05
1.10681e-05
-0.000101545
1.1386e-05
-0.000113184
1.16392e-05
-0.000125014
1.18297e-05
-0.000136972
1.19588e-05
-0.000149001
1.20284e-05
-0.000161041
1.20405e-05
-0.000173038
1.19969e-05
-0.000184938
1.18997e-05
-0.000196689
1.1751e-05
-0.000208241
1.15529e-05
-0.000219549
1.13073e-05
-0.000230565
1.10165e-05
-0.000241248
1.06825e-05
-0.000251555
1.03072e-05
-0.000261448
9.89276e-06
-0.000270889
9.44146e-06
-0.000279845
8.95536e-06
-0.000288281
8.43652e-06
-0.000296168
7.88705e-06
-0.000303477
7.30915e-06
-0.000310182
6.70502e-06
-0.000316259
6.07683e-06
-0.000321686
5.4268e-06
-0.000326443
4.75733e-06
-0.000330514
4.07068e-06
-0.000333883
3.36916e-06
-0.000336538
2.65512e-06
-0.000338469
1.93074e-06
-0.000339667
1.19823e-06
-0.000340127
4.60004e-07
-0.000339846
-2.81633e-07
-0.000338821
-1.02432e-06
-0.000337056
-1.76547e-06
-0.000334553
-2.50255e-06
-0.00033132
-3.23313e-06
-0.000327366
-3.95463e-06
-0.000322702
-4.66427e-06
-0.000317342
-5.35934e-06
-0.000311305
-6.03725e-06
-0.00030461
-6.69517e-06
-0.00029728
-7.33004e-06
-0.000289341
-7.9391e-06
-0.000280821
-8.51974e-06
-0.000271752
-9.06904e-06
-0.000262168
-9.58414e-06
-0.000252105
-1.00625e-05
-0.000241604
-1.05016e-05
-0.000230705
-1.08985e-05
-0.000219455
-1.12505e-05
-0.000207899
-1.15554e-05
-0.000196089
-1.18106e-05
-0.000184075
-1.20136e-05
-0.000171913
-1.21621e-05
-0.000159659
-1.22539e-05
-0.000147372
-1.2287e-05
-0.000135113
-1.22594e-05
-0.000122943
-1.21693e-05
-0.000110928
-1.20153e-05
-9.91318e-05
-1.17962e-05
-8.76213e-05
-1.15105e-05
-7.64639e-05
-1.11573e-05
-6.57281e-05
-1.07359e-05
-5.54823e-05
-1.02459e-05
-4.57951e-05
-9.68719e-06
-3.67346e-05
-9.06037e-06
-2.83682e-05
-8.36651e-06
-2.07607e-05
-7.60751e-06
-1.39745e-05
-6.78621e-06
-8.06781e-06
-5.90662e-06
-3.09338e-06
-4.97441e-06
9.04135e-07
-3.99755e-06
3.89166e-06
-2.98751e-06
5.85263e-06
-1.96089e-06
6.79494e-06
-9.42283e-07
6.76369e-06
3.11944e-08
5.86163e-06
9.02032e-07
4.28105e-06
1.58064e-06
2.35789e-06
1.92323e-06
6.63867e-07
1.69402e-06
6.63896e-07
1.70972e-06
-2.41014e-06
4.6707e-06
-4.64707e-06
7.47847e-06
-4.64346e-06
9.14221e-06
-3.08929e-06
8.97788e-06
-5.32366e-07
6.54481e-06
2.64119e-06
1.58634e-06
6.1603e-06
-6.02303e-06
9.83803e-06
-1.63144e-05
1.35447e-05
-2.92529e-05
1.71909e-05
-4.47559e-05
2.07139e-05
-6.27072e-05
2.40695e-05
-8.29664e-05
2.72267e-05
-0.000105377
3.01643e-05
-0.000129769
3.28676e-05
-0.000155967
3.53276e-05
-0.000183789
3.75384e-05
-0.000213053
3.94975e-05
-0.000243573
4.12049e-05
-0.000275166
4.26616e-05
-0.000307651
4.38708e-05
-0.000340848
4.48366e-05
-0.000374582
4.55638e-05
-0.000408681
4.60579e-05
-0.000442978
4.63253e-05
-0.000477311
4.63727e-05
-0.000511521
4.62069e-05
-0.000545456
4.58354e-05
-0.000578971
4.52657e-05
-0.000611923
4.45052e-05
-0.000644178
4.35619e-05
-0.000675605
4.24437e-05
-0.000706081
4.11584e-05
-0.000735488
3.97139e-05
-0.000763713
3.81184e-05
-0.000790652
3.63801e-05
-0.000816204
3.45069e-05
-0.000840275
3.25073e-05
-0.000862777
3.03894e-05
-0.000883629
2.81617e-05
-0.000902757
2.58325e-05
-0.000920091
2.34105e-05
-0.000935568
2.09041e-05
-0.000949133
1.83223e-05
-0.000960736
1.56739e-05
-0.000970335
1.29678e-05
-0.000977893
1.02128e-05
-0.00098338
7.41803e-06
-0.000986774
4.5922e-06
-0.000988059
1.74452e-06
-0.000987225
-1.11556e-06
-0.000984271
-3.97861e-06
-0.000979201
-6.83505e-06
-0.000972028
-9.67512e-06
-0.000962773
-1.2489e-05
-0.000951461
-1.52665e-05
-0.000938128
-1.79974e-05
-0.000922816
-2.06714e-05
-0.000905575
-2.32779e-05
-0.000886464
-2.58062e-05
-0.000865548
-2.82457e-05
-0.000842902
-3.05855e-05
-0.000818607
-3.28151e-05
-0.000792752
-3.49238e-05
-0.000765435
-3.69014e-05
-0.00073676
-3.87372e-05
-0.00070684
-4.04211e-05
-0.000675796
-4.19428e-05
-0.000643754
-4.32926e-05
-0.000610849
-4.44608e-05
-0.000577221
-4.5438e-05
-0.00054302
-4.62153e-05
-0.000508398
-4.6784e-05
-0.000473516
-4.71359e-05
-0.00043854
-4.72632e-05
-0.00040364
-4.71591e-05
-0.000368992
-4.68173e-05
-0.000334775
-4.62325e-05
-0.000301171
-4.53997e-05
-0.000268366
-4.43152e-05
-0.000236548
-4.29761e-05
-0.000205903
-4.13806e-05
-0.00017662
-3.95287e-05
-0.000148885
-3.74219e-05
-0.000122882
-3.50638e-05
-9.87879e-05
-3.24606e-05
-7.67734e-05
-2.96219e-05
-5.69984e-05
-2.65612e-05
-3.9608e-05
-2.32971e-05
-2.47272e-05
-1.98552e-05
-1.24542e-05
-1.62705e-05
-2.85033e-06
-1.25913e-05
4.07327e-06
-8.88454e-06
8.37469e-06
-5.24381e-06
1.02081e-05
-1.80223e-06
9.86063e-06
1.24959e-06
7.80222e-06
3.63902e-06
4.74518e-06
4.98021e-06
1.69286e-06
4.74637e-06
2.35679e-06
1.89882e-06
-4.30891e-06
4.76744e-06
-7.51587e-06
6.87902e-06
-6.75505e-06
7.03677e-06
-3.24684e-06
4.3748e-06
2.12964e-06
-1.69728e-06
8.71328e-06
-1.15495e-05
1.60126e-05
-2.53804e-05
2.36689e-05
-4.32581e-05
3.14225e-05
-6.51522e-05
3.9085e-05
-9.09587e-05
4.65204e-05
-0.000120519
5.36296e-05
-0.000153633
6.03413e-05
-0.000190073
6.66042e-05
-0.000229588
7.23827e-05
-0.000271913
7.76524e-05
-0.000316773
8.23977e-05
-0.000363885
8.66102e-05
-0.000412967
9.02863e-05
-0.000463733
9.34273e-05
-0.000515899
9.60372e-05
-0.000569186
9.81233e-05
-0.000623316
9.96946e-05
-0.00067802
0.000100762
-0.000733033
0.000101338
-0.000788096
0.000101436
-0.00084296
0.00010107
-0.000897381
0.000100257
-0.000951125
9.90104e-05
-0.00100397
9.73477e-05
-0.00105569
9.52854e-05
-0.00110609
9.28404e-05
-0.00115496
9.00296e-05
-0.00120212
8.68706e-05
-0.00124738
8.33807e-05
-0.00129058
7.95778e-05
-0.00133155
7.54796e-05
-0.00137015
7.11042e-05
-0.00140623
6.64697e-05
-0.00143966
6.15946e-05
-0.00147032
5.64972e-05
-0.00149811
5.11963e-05
-0.00152292
4.57109e-05
-0.00154465
4.00599e-05
-0.00156324
3.42628e-05
-0.00157861
2.83392e-05
-0.00159071
2.23085e-05
-0.00159948
1.61906e-05
-0.0016049
1.00053e-05
-0.00160692
3.77298e-06
-0.00160555
-2.48576e-06
-0.00160078
-8.75007e-06
-0.00159262
-1.49987e-05
-0.00158108
-2.12102e-05
-0.00156621
-2.73628e-05
-0.00154804
-3.34344e-05
-0.00152664
-3.94027e-05
-0.00150206
-4.52448e-05
-0.0014744
-5.09382e-05
-0.00144375
-5.64597e-05
-0.00141021
-6.17859e-05
-0.0013739
-6.68938e-05
-0.00133496
-7.17604e-05
-0.00129352
-7.63625e-05
-0.00124974
-8.06773e-05
-0.0012038
-8.46826e-05
-0.00115586
-8.83559e-05
-0.00110613
-9.16753e-05
-0.0010548
-9.46192e-05
-0.0010021
-9.71673e-05
-0.000948234
-9.92993e-05
-0.000893454
-0.000100996
-0.000837999
-0.000102239
-0.000782124
-0.00010301
-0.000726093
-0.000103295
-0.000670174
-0.000103078
-0.000614646
-0.000102345
-0.000559791
-0.000101087
-0.000505897
-9.9294e-05
-0.000453254
-9.69579e-05
-0.000402156
-9.40743e-05
-0.000352895
-9.06415e-05
-0.000305763
-8.66612e-05
-0.000261046
-8.21388e-05
-0.000219025
-7.7085e-05
-0.000179969
-7.15163e-05
-0.000144135
-6.54564e-05
-0.000111757
-5.89383e-05
-8.30477e-05
-5.20067e-05
-5.81814e-05
-4.47214e-05
-3.72895e-05
-3.71624e-05
-2.0444e-05
-2.9437e-05
-7.63941e-06
-2.16891e-05
1.23076e-06
-1.4114e-05
6.40541e-06
-6.97686e-06
8.29454e-06
-6.39604e-07
7.52673e-06
4.40671e-06
4.99954e-06
7.50746e-06
1.92785e-06
7.81816e-06
4.28458e-06
1.51494e-06
-5.8238e-06
3.29505e-06
-9.29597e-06
3.51652e-06
-6.97643e-06
9.01604e-07
-6.32247e-07
-5.4865e-06
8.51761e-06
-1.63067e-05
1.95336e-05
-3.19878e-05
3.16935e-05
-5.27709e-05
4.4452e-05
-7.87478e-05
5.73995e-05
-0.000109893
7.02302e-05
-0.000146088
8.27155e-05
-0.000187144
9.46856e-05
-0.000232817
0.000106014
-0.000282822
0.00011661
-0.000336845
0.000126405
-0.000394546
0.000135354
-0.000455573
0.000143425
-0.000519561
0.000150598
-0.00058614
0.000156865
-0.000654937
0.000162225
-0.00072558
0.00016668
-0.000797698
0.000170241
-0.000870926
0.000172922
-0.000944904
0.00017474
-0.00101928
0.000175713
-0.00109371
0.000175865
-0.00116786
0.000175218
-0.0012414
0.000173798
-0.00131402
0.00017163
-0.00138541
0.000168744
-0.00145529
0.000165165
-0.00152338
0.000160925
-0.0015894
0.00015605
-0.0016531
0.000150573
-0.00171424
0.000144521
-0.00177259
0.000137927
-0.00182793
0.000130821
-0.00188006
0.000123234
-0.00192879
0.000115197
-0.00197394
0.000106744
-0.00201534
9.79042e-05
-0.00205286
8.87118e-05
-0.00208635
7.91993e-05
-0.00211569
6.93999e-05
-0.00214077
5.93469e-05
-0.00216151
4.90744e-05
-0.00217782
3.86164e-05
-0.00218963
2.80076e-05
-0.00219691
1.72829e-05
-0.00219961
6.47752e-06
-0.00219773
-4.3725e-06
-0.00219125
-1.52307e-05
-0.00218019
-2.60604e-05
-0.00216457
-3.68241e-05
-0.00214445
-4.74839e-05
-0.00211988
-5.80016e-05
-0.00209095
-6.83383e-05
-0.00205774
-7.8455e-05
-0.00202036
-8.83121e-05
-0.00197895
-9.78701e-05
-0.00193365
-0.000107089
-0.00188461
-0.000115929
-0.00183202
-0.00012435
-0.00177607
-0.000132313
-0.00171697
-0.000139779
-0.00165495
-0.000146708
-0.00159024
-0.000153063
-0.00152311
-0.000158806
-0.00145383
-0.0001639
-0.00138269
-0.000168311
-0.00130998
-0.000172003
-0.00123603
-0.000174945
-0.00116117
-0.000177104
-0.00108573
-0.000178453
-0.00101006
-0.000178963
-0.000934523
-0.000178612
-0.000859492
-0.000177377
-0.000785339
-0.00017524
-0.000712446
-0.000172187
-0.000641197
-0.000168207
-0.000571978
-0.000163293
-0.000505174
-0.000157446
-0.000441165
-0.00015067
-0.000380325
-0.000142979
-0.000323016
-0.000134394
-0.000269585
-0.000124947
-0.000220358
-0.000114684
-0.00017563
-0.000103666
-0.000135664
-9.19728e-05
-0.000100673
-7.97123e-05
-7.08118e-05
-6.7024e-05
-4.61577e-05
-5.40911e-05
-2.66929e-05
-4.11539e-05
-1.22786e-05
-2.85282e-05
-2.62535e-06
-1.66302e-05
2.74312e-06
-6.00815e-06
4.53082e-06
2.61903e-06
3.71481e-06
8.32361e-06
1.60255e-06
9.93045e-06
5.88706e-06
8.05921e-07
-6.62965e-06
8.05045e-07
-9.29504e-06
-1.73021e-06
-4.4411e-06
-8.05397e-06
5.69147e-06
-1.90979e-05
1.95618e-05
-3.55296e-05
3.59653e-05
-5.7791e-05
5.3955e-05
-8.61363e-05
7.27973e-05
-0.000120664
9.19267e-05
-0.000161343
0.00011091
-0.000208043
0.000129415
-0.000260547
0.00014719
-0.000318577
0.000164044
-0.000381802
0.000179835
-0.000449852
0.000194456
-0.00052233
0.000207831
-0.000598814
0.000219909
-0.000678871
0.000230655
-0.000762056
0.000240051
-0.00084792
0.000248088
-0.000936012
0.000254772
-0.00102588
0.000260111
-0.00111708
0.000264125
-0.00120918
0.000266837
-0.00130174
0.000268272
-0.00139434
0.000268464
-0.00148657
0.000267446
-0.00157802
0.000265254
-0.00166832
0.000261928
-0.00175708
0.000257508
-0.00184396
0.000252036
-0.00192859
0.000245555
-0.00201064
0.000238109
-0.00208982
0.000229744
-0.0021658
0.000220504
-0.00223831
0.000210436
-0.00230707
0.000199587
-0.00237185
0.000188005
-0.00243238
0.000175737
-0.00248847
0.000162832
-0.00253991
0.000149339
-0.0025865
0.000135308
-0.00262809
0.000120788
-0.00266452
0.000105831
-0.00269566
9.04865e-05
-0.0027214
7.48077e-05
-0.00274163
5.88467e-05
-0.00275628
4.2656e-05
-0.00276528
2.62895e-05
-0.00276861
9.80148e-06
-0.00276623
-6.75319e-06
-0.00275814
-2.33188e-05
-0.00274436
-3.98389e-05
-0.00272493
-5.62565e-05
-0.0026999
-7.25137e-05
-0.00266935
-8.8552e-05
-0.00263337
-0.000104312
-0.00259209
-0.000119735
-0.00254564
-0.000134761
-0.00249419
-0.000149329
-0.0024379
-0.000163378
-0.00237698
-0.000176849
-0.00231164
-0.000189682
-0.00224214
-0.000201815
-0.00216873
-0.000213191
-0.00209169
-0.00022375
-0.00201132
-0.000233434
-0.00192794
-0.000242188
-0.00184188
-0.000249955
-0.00175351
-0.000256683
-0.00166319
-0.000262321
-0.00157131
-0.00026682
-0.00147829
-0.000270132
-0.00138452
-0.000272216
-0.00129045
-0.000273032
-0.00119652
-0.000272544
-0.00110318
-0.000270722
-0.00101088
-0.000267539
-0.00092009
-0.000262975
-0.00083128
-0.000257016
-0.000744917
-0.000249657
-0.000661464
-0.000240898
-0.000581382
-0.000230753
-0.000505117
-0.000219244
-0.000433103
-0.000206408
-0.000365751
-0.000192299
-0.000303445
-0.00017699
-0.000246534
-0.000160577
-0.000195319
-0.000143188
-0.000150046
-0.000124985
-0.000110891
-0.00010618
-7.79385e-05
-8.70432e-05
-5.11694e-05
-6.7923e-05
-3.04318e-05
-4.92657e-05
-1.54169e-05
-3.16452e-05
-5.62728e-06
-1.57977e-05
-3.42891e-07
-2.66529e-06
1.41848e-06
6.5623e-06
9.53484e-07
1.03954e-05
6.84055e-06
-8.17271e-08
-6.5481e-06
-2.30818e-06
-7.06852e-06
-8.20027e-06
1.45105e-06
-1.89064e-05
1.63976e-05
-3.52944e-05
3.59497e-05
-5.79933e-05
5.86643e-05
-8.74229e-05
8.33849e-05
-0.000123823
0.000109197
-0.000167279
0.000135383
-0.000217747
0.000161378
-0.000275074
0.000186742
-0.000339019
0.000211136
-0.00040927
0.000234295
-0.000485455
0.00025602
-0.00056716
0.00027616
-0.000653934
0.000294605
-0.000745299
0.000311274
-0.000840759
0.000326116
-0.000939807
0.000339098
-0.00104192
0.000350206
-0.00114659
0.00035944
-0.00125329
0.000366811
-0.00136151
0.000372339
-0.00147072
0.000376054
-0.00158044
0.000377991
-0.00169017
0.000378191
-0.00179942
0.000376701
-0.00190774
0.000373569
-0.00201466
0.000368848
-0.00211975
0.000362595
-0.00222258
0.000354865
-0.00232274
0.00034572
-0.00241985
0.000335219
-0.00251353
0.000323427
-0.00260344
0.000310405
-0.00268922
0.00029622
-0.00277057
0.000280937
-0.00284719
0.000264622
-0.00291879
0.000247342
-0.00298513
0.000229167
-0.00304595
0.000210164
-0.00310105
0.000190404
-0.00315022
0.000169957
-0.00319328
0.000148895
-0.00323008
0.00012729
-0.00326049
0.000105214
-0.00328439
8.27419e-05
-0.00330168
5.99479e-05
-0.0033123
3.69079e-05
-0.00331619
1.36983e-05
-0.00331334
-9.60313e-06
-0.00330374
-3.2918e-05
-0.00328742
-5.61668e-05
-0.0032644
-7.9269e-05
-0.00323477
-0.000102143
-0.00319862
-0.000124707
-0.00315605
-0.000146879
-0.00310721
-0.000168573
-0.00305227
-0.000189707
-0.0029914
-0.000210196
-0.00292482
-0.000229955
-0.00285277
-0.0002489
-0.00277551
-0.000266946
-0.00269331
-0.00028401
-0.0026065
-0.000300009
-0.00251539
-0.000314861
-0.00242033
-0.000328485
-0.00232172
-0.000340804
-0.00221993
-0.000351741
-0.0021154
-0.000361221
-0.00200854
-0.000369174
-0.00189983
-0.000375533
-0.00178973
-0.000380233
-0.00167873
-0.000383217
-0.00156733
-0.00038443
-0.00145605
-0.000383824
-0.00134541
-0.000381358
-0.00123595
-0.000376999
-0.00112821
-0.00037072
-0.00102272
-0.000362504
-0.00092003
-0.000352348
-0.000820672
-0.000340256
-0.000725174
-0.00032625
-0.00063405
-0.000310368
-0.000547794
-0.000292665
-0.000466872
-0.00027322
-0.000391722
-0.000252141
-0.000322733
-0.000229566
-0.000260247
-0.000205674
-0.000204539
-0.000180693
-0.000155805
-0.000154914
-0.000114147
-0.000128701
-7.95548e-05
-0.000102515
-5.1884e-05
-7.69365e-05
-3.08336e-05
-5.26956e-05
-1.59215e-05
-3.07098e-05
-6.45703e-06
-1.21297e-05
-1.51097e-06
1.61624e-06
1.22473e-07
8.76197e-06
6.96304e-06
-1.06015e-06
-5.4879e-06
-5.78114e-06
-2.34757e-06
-1.54227e-05
1.10927e-05
-3.09748e-05
3.19497e-05
-5.31986e-05
5.81734e-05
-8.26484e-05
8.8114e-05
-0.000119692
0.000120429
-0.000164531
0.000154037
-0.000217221
0.000188073
-0.00027769
0.000221846
-0.000345758
0.00025481
-0.000421155
0.000286532
-0.000503533
0.000316674
-0.000592485
0.000344972
-0.000687553
0.000371228
-0.000788238
0.000395291
-0.000894015
0.000417051
-0.00100433
0.000436433
-0.00111862
0.00045339
-0.00123631
0.000467897
-0.00135682
0.000479948
-0.00147957
0.000489554
-0.00160396
0.000496737
-0.00172944
0.000501533
-0.00185544
0.000503985
-0.00198139
0.000504144
-0.00210676
0.000502067
-0.00223101
0.00049782
-0.00235363
0.000491468
-0.00247412
0.000483085
-0.002592
0.000472745
-0.0027068
0.000460526
-0.00281809
0.000446508
-0.00292544
0.000430774
-0.00302844
0.000413407
-0.00312671
0.000394494
-0.0032199
0.00037412
-0.00330765
0.000352375
-0.00338966
0.000329348
-0.00346562
0.000305129
-0.00353527
0.00027981
-0.00359835
0.000253485
-0.00365463
0.000226246
-0.00370393
0.000198189
-0.00374605
0.00016941
-0.00378084
0.000140006
-0.00380817
0.000110076
-0.00382794
7.97191e-05
-0.00384007
4.90368e-05
-0.00384451
1.81308e-05
-0.00384121
-1.28955e-05
-0.00383019
-4.39373e-05
-0.00381147
-7.48887e-05
-0.0037851
-0.000105643
-0.00375115
-0.000136092
-0.00370973
-0.000166125
-0.00366098
-0.000195634
-0.00360504
-0.000224507
-0.00354212
-0.000252632
-0.00347242
-0.000279898
-0.00339618
-0.000306193
-0.00331367
-0.000331404
-0.0032252
-0.00035542
-0.00313108
-0.000378131
-0.00303166
-0.000399428
-0.00292732
-0.000419201
-0.00281846
-0.000437346
-0.0027055
-0.000453758
-0.00258891
-0.000468338
-0.00246914
-0.000480989
-0.0023467
-0.000491617
-0.00222209
-0.000500134
-0.00209587
-0.000506459
-0.00196857
-0.000510514
-0.00184077
-0.000512231
-0.00171305
-0.000511548
-0.00158599
-0.000508413
-0.00146021
-0.000502784
-0.0013363
-0.000494629
-0.00121487
-0.000483931
-0.00109653
-0.000470686
-0.000981881
-0.000454906
-0.000871506
-0.000436625
-0.000765979
-0.000415896
-0.000665846
-0.000392797
-0.000571627
-0.000367439
-0.000483803
-0.000339965
-0.000402806
-0.000310562
-0.000329012
-0.000279467
-0.000262729
-0.000246977
-0.000204178
-0.000213465
-0.000153486
-0.000179393
-0.000110666
-0.000145336
-7.55967e-05
-0.000112005
-4.80108e-05
-8.02815e-05
-2.74702e-05
-5.12504e-05
-1.33491e-05
-2.62507e-05
-4.81438e-06
-6.91851e-06
-8.04661e-07
4.75235e-06
6.15836e-06
-2.07695e-06
-3.41107e-06
-9.43923e-06
5.01472e-06
-2.30703e-05
2.47238e-05
-4.3771e-05
5.26505e-05
-7.21659e-05
8.65683e-05
-0.000108708
0.000124657
-0.000153691
0.000165411
-0.000207257
0.000207603
-0.000269415
0.000250231
-0.000340054
0.000292486
-0.000418958
0.000333714
-0.000505821
0.000373395
-0.00060026
0.000411113
-0.000701829
0.000446541
-0.000810029
0.000479428
-0.000924319
0.000509581
-0.00104413
0.000536857
-0.00116885
0.000561156
-0.00129787
0.000582413
-0.00143057
0.00060059
-0.00156629
0.000615675
-0.00170441
0.000627676
-0.00184429
0.000636618
-0.0019853
0.000642539
-0.00212681
0.000645492
-0.0022682
0.000645539
-0.00240889
0.00064275
-0.00254827
0.000637202
-0.00268578
0.000628981
-0.00282087
0.000618175
-0.002953
0.000604878
-0.00308167
0.000589188
-0.00320636
0.000571207
-0.00332663
0.000551037
-0.00344201
0.000528786
-0.00355208
0.000504562
-0.00365643
0.000478476
-0.0037547
0.000450639
-0.00384651
0.000421166
-0.00393156
0.000390172
-0.00400952
0.000357775
-0.00408013
0.000324092
-0.00414313
0.000289244
-0.00419829
0.000253352
-0.00424542
0.000216539
-0.00428434
0.00017893
-0.00431492
0.00014065
-0.00433703
0.000101828
-0.00435058
6.25907e-05
-0.00435552
2.30704e-05
-0.00435181
-1.66011e-05
-0.00433946
-5.62903e-05
-0.00431849
-9.58616e-05
-0.00428895
-0.000135178
-0.00425094
-0.000174102
-0.00420457
-0.000212495
-0.00414999
-0.000250214
-0.00408738
-0.00028712
-0.00401694
-0.00032307
-0.00393892
-0.000357921
-0.00385358
-0.000391532
-0.00376122
-0.000423759
-0.00366218
-0.000454462
-0.00355681
-0.000483501
-0.00344551
-0.000510735
-0.00332868
-0.000536029
-0.00320678
-0.000559248
-0.00308027
-0.000580261
-0.00294967
-0.000598943
-0.00281549
-0.00061517
-0.00267828
-0.000628826
-0.00253861
-0.0006398
-0.00239708
-0.000647989
-0.0022543
-0.000653299
-0.00211089
-0.000655643
-0.00196749
-0.000654946
-0.00182476
-0.000651144
-0.00168336
-0.000644186
-0.00154395
-0.000634037
-0.0014072
-0.000620677
-0.00127378
-0.000604107
-0.00114434
-0.000584346
-0.00101953
-0.00056144
-0.000899962
-0.000535462
-0.000786244
-0.000506516
-0.000678937
-0.000474746
-0.000578567
-0.000440336
-0.000485605
-0.000403524
-0.000400466
-0.000364606
-0.000323489
-0.000323954
-0.000254931
-0.000282023
-0.00019495
-0.000239373
-0.000143594
-0.000196692
-0.000100785
-0.000154814
-6.63061e-05
-0.000114761
-3.9787e-05
-7.77694e-05
-2.06937e-05
-4.5344e-05
-8.31848e-06
-1.92937e-05
-1.77538e-06
-1.79069e-06
4.38294e-06
-3.10073e-06
-3.10276e-07
-1.31708e-05
1.50847e-05
-3.09205e-05
4.24736e-05
-5.695e-05
7.868e-05
-9.1729e-05
0.000121347
-0.000135591
0.000168519
-0.000188736
0.000218556
-0.000251233
0.000270099
-0.000323029
0.000322027
-0.000403964
0.00037342
-0.000493775
0.000423526
-0.000592116
0.000471736
-0.000698564
0.00051756
-0.000812632
0.000560609
-0.00093378
0.000600576
-0.00106143
0.000637226
-0.00119495
0.000670382
-0.00133371
0.000699915
-0.00147704
0.000725742
-0.00162426
0.00074781
-0.00177468
0.000766099
-0.00192762
0.000780615
-0.00208238
0.000791382
-0.00223829
0.000798444
-0.00239466
0.000801861
-0.00255083
0.000801706
-0.00270614
0.000798061
-0.00285996
0.000791021
-0.00301166
0.000780685
-0.00316065
0.000767163
-0.00330634
0.000750569
-0.00344817
0.00073102
-0.00358561
0.000708642
-0.00371813
0.000683561
-0.00384525
0.000655907
-0.0039665
0.000625815
-0.00408145
0.000593419
-0.00418967
0.00055886
-0.00429078
0.000522277
-0.00438442
0.000483813
-0.00447026
0.000443612
-0.00454799
0.000401823
-0.00461734
0.000358592
-0.00467806
0.000314071
-0.00472993
0.000268411
-0.00477276
0.000221767
-0.00480641
0.000174294
-0.00483073
0.000126152
-0.00484564
7.74987e-05
-0.00485107
2.84971e-05
-0.00484698
-2.06893e-05
-0.00483337
-6.98949e-05
-0.00481028
-0.000118952
-0.00477777
-0.000167692
-0.00473593
-0.000215943
-0.00468489
-0.000263534
-0.00462481
-0.00031029
-0.00455589
-0.000356038
-0.00447836
-0.000400601
-0.00439248
-0.000443805
-0.00429854
-0.000485473
-0.00419687
-0.00052543
-0.00408783
-0.000563502
-0.00397181
-0.000599516
-0.00384925
-0.000633301
-0.00372059
-0.000664689
-0.00358632
-0.000693517
-0.00344696
-0.000719622
-0.00330305
-0.000742851
-0.00315517
-0.000763053
-0.0030039
-0.000780087
-0.00284989
-0.000793817
-0.00269376
-0.000804118
-0.00253618
-0.000810876
-0.00237784
-0.000813987
-0.00221942
-0.000813361
-0.00206164
-0.000808922
-0.00190522
-0.00080061
-0.00175087
-0.000788387
-0.00159931
-0.000772231
-0.00145128
-0.000752146
-0.00130746
-0.000728162
-0.00116856
-0.00070034
-0.00103525
-0.000668772
-0.000908171
-0.000633592
-0.000787939
-0.000594978
-0.000675118
-0.000553157
-0.000570222
-0.00050842
-0.000473703
-0.000461126
-0.00038594
-0.000411717
-0.000307228
-0.000360735
-0.000237768
-0.000308833
-0.000177654
-0.000256805
-0.000126865
-0.000205604
-8.52499e-05
-0.000156376
-5.25251e-05
-0.000110494
-2.82665e-05
-6.96026e-05
-1.19099e-05
-3.56502e-05
-2.75809e-06
-1.09425e-05
1.62486e-06
-4.1136e-06
3.8035e-06
-1.69041e-05
2.78752e-05
-3.88251e-05
6.43944e-05
-7.02729e-05
0.000110128
-0.000111555
0.000162629
-0.000162874
0.000219838
-0.000224322
0.000280004
-0.000295882
0.00034166
-0.000377431
0.000403576
-0.000468746
0.000464734
-0.000569512
0.000524292
-0.000679334
0.000581558
-0.000797744
0.000635971
-0.000924214
0.000687079
-0.00105816
0.000734523
-0.00119896
0.000778025
-0.00134595
0.00081737
-0.00149844
0.000852406
-0.00165572
0.000883024
-0.00181707
0.00090916
-0.00198175
0.000930784
-0.00214904
0.000947897
-0.00231818
0.000960524
-0.00248845
0.000968714
-0.00265912
0.000972535
-0.00282949
0.000972068
-0.00299884
0.000967412
-0.00316649
0.000958675
-0.00333178
0.000945977
-0.00349406
0.000929444
-0.00365271
0.000909213
-0.00380711
0.000885424
-0.00395669
0.000858226
-0.0041009
0.00082777
-0.00423921
0.000794213
-0.00437111
0.000757715
-0.00449613
0.000718439
-0.00461382
0.000676553
-0.00472377
0.000632224
-0.00482559
0.000585627
-0.00491891
0.000536934
-0.00500341
0.000486324
-0.00507879
0.000433975
-0.00514479
0.000380069
-0.00520117
0.00032479
-0.00524773
0.000268324
-0.00528429
0.00021086
-0.00531073
0.000152589
-0.00532693
9.37029e-05
-0.00533284
3.43986e-05
-0.0053284
-2.51265e-05
-0.00531362
-8.46724e-05
-0.00528854
-0.000144037
-0.00525321
-0.000203015
-0.00520776
-0.000261402
-0.0051523
-0.000318989
-0.00508702
-0.000375567
-0.00501214
-0.000430925
-0.00492788
-0.000484853
-0.00483455
-0.000537139
-0.00473245
-0.000587571
-0.00462194
-0.000635939
-0.00450341
-0.000682033
-0.00437728
-0.000725645
-0.00424401
-0.000766572
-0.00410409
-0.00080461
-0.00395805
-0.000839563
-0.00380643
-0.000871239
-0.00364983
-0.000899451
-0.00348886
-0.000924023
-0.00332416
-0.000944783
-0.00315641
-0.000961572
-0.00298628
-0.000974241
-0.00281451
-0.000982655
-0.0026418
-0.00098669
-0.00246892
-0.000986241
-0.00229662
-0.000981221
-0.00212567
-0.000971561
-0.00195684
-0.000957217
-0.00179091
-0.000938169
-0.00162863
-0.000914424
-0.00147077
-0.000886023
-0.00131806
-0.000853042
-0.00117124
-0.000815596
-0.00103099
-0.000773847
-0.000897956
-0.000728009
-0.000772758
-0.000678355
-0.000655948
-0.000625229
-0.000548023
-0.000569051
-0.000449403
-0.000510337
-0.000360432
-0.000449706
-0.000281359
-0.000387906
-0.000212336
-0.000325827
-0.000153408
-0.000264532
-0.000104506
-0.000205278
-6.54423e-05
-0.000149557
-3.59162e-05
-9.91285e-05
-1.55156e-05
-5.60506e-05
-3.73401e-06
-2.27241e-05
-2.10911e-06
-5.10567e-06
8.90903e-06
-2.05957e-05
4.33652e-05
-4.66866e-05
9.04853e-05
-8.35778e-05
0.000147019
-0.000131411
0.000210463
-0.000190253
0.000278679
-0.00026008
0.000349831
-0.000340779
0.000422359
-0.000432147
0.000494944
-0.00053389
0.000566478
-0.000645634
0.000636036
-0.00076693
0.000702854
-0.00089726
0.000766301
-0.00103605
0.000825868
-0.00118267
0.000881145
-0.00133645
0.000931809
-0.0014967
0.000977613
-0.00166267
0.00101838
-0.00183361
0.00105397
-0.00200876
0.00108431
-0.00218734
0.00110936
-0.00236857
0.00112912
-0.00255167
0.00114362
-0.00273585
0.0011529
-0.00292036
0.00115704
-0.00310442
0.00115614
-0.00328731
0.0011503
-0.00346828
0.00113965
-0.00364664
0.00112433
-0.00382169
0.00110449
-0.00399276
0.00108029
-0.00415922
0.00105188
-0.00432044
0.00101945
-0.00447584
0.000983166
-0.00462485
0.00094322
-0.00476693
0.000899796
-0.00490158
0.000853089
-0.00502832
0.000803294
-0.0051467
0.000750612
-0.00525632
0.000695245
-0.00535679
0.000637401
-0.00544775
0.000577289
-0.0055289
0.00051512
-0.00559994
0.00045111
-0.00566063
0.000385476
-0.00571074
0.000318439
-0.0057501
0.000250223
-0.00577857
0.000181053
-0.00579602
0.000111158
-0.00580239
4.07697e-05
-0.00579764
-2.98776e-05
-0.00578177
-0.000100547
-0.00575481
-0.000171
-0.00571683
-0.000240994
-0.00566794
-0.000310285
-0.0056083
-0.000378629
-0.00553809
-0.000445776
-0.00545754
-0.00051148
-0.0053669
-0.00057549
-0.00526648
-0.000637557
-0.00515662
-0.000697432
-0.0050377
-0.000754865
-0.00491012
-0.00080961
-0.00477434
-0.000861422
-0.00463086
-0.000910061
-0.00448018
-0.000955287
-0.00432287
-0.000996871
-0.00415952
-0.00103459
-0.00399076
-0.00106821
-0.00381723
-0.00109755
-0.00363963
-0.00112239
-0.00345866
-0.00114254
-0.00327506
-0.00115784
-0.00308958
-0.00116813
-0.00290301
-0.00117326
-0.00271613
-0.00117312
-0.00252975
-0.0011676
-0.00234468
-0.00115663
-0.00216175
-0.00114015
-0.00198177
-0.00111815
-0.00180556
-0.00109063
-0.00163393
-0.00105766
-0.00146765
-0.00101932
-0.00130749
-0.000975748
-0.0011542
-0.000927139
-0.00100847
-0.000873742
-0.00087095
-0.000815875
-0.000742245
-0.000753934
-0.000622895
-0.000688401
-0.000513372
-0.00061986
-0.000414069
-0.000549009
-0.000325296
-0.000476679
-0.00024727
-0.000403854
-0.00018011
-0.000331691
-0.000123838
-0.000261551
-7.83735e-05
-0.000195022
-4.35433e-05
-0.000133959
-1.909e-05
-8.05038e-05
-4.69226e-06
-3.71218e-05
-6.80138e-06
-6.07158e-06
1.49807e-05
-2.42196e-05
6.15131e-05
-5.44447e-05
0.00012071
-9.6759e-05
0.000189333
-0.000151142
0.000264846
-0.000217519
0.000345056
-0.00029575
0.000428062
-0.000385618
0.000512227
-0.000486831
0.000596157
-0.000599021
0.000678668
-0.000721746
0.000758762
-0.000854498
0.000835605
-0.000996704
0.000908508
-0.00114774
0.000976904
-0.00130693
0.00104034
-0.00147356
0.00109844
-0.00164689
0.00115094
-0.00182613
0.00119762
-0.0020105
0.00123833
-0.00219917
0.00127299
-0.00239135
0.00130154
-0.00258619
0.00132397
-0.00278288
0.00134031
-0.0029806
0.00135062
-0.00317854
0.00135498
-0.00337589
0.00135349
-0.00357188
0.00134629
-0.00376574
0.00133351
-0.00395671
0.00131531
-0.00414408
0.00129186
-0.00432713
0.00126334
-0.00450519
0.00122994
-0.00467761
0.00119187
-0.00484377
0.00114932
-0.00500305
0.00110251
-0.00515491
0.00105165
-0.0052988
0.000996981
-0.00543423
0.000938717
-0.00556071
0.000877093
-0.00567781
0.000812347
-0.00578513
0.000744719
-0.00588229
0.00067445
-0.00596896
0.00060179
-0.00604484
0.000526987
-0.00610966
0.000450296
-0.00616319
0.000371973
-0.00620525
0.000292278
-0.00623567
0.000211475
-0.00625434
0.00012983
-0.00626118
4.76124e-05
-0.00625616
-3.49049e-05
-0.00623926
-0.000117446
-0.00621052
-0.000199733
-0.00617003
-0.000281484
-0.0061179
-0.000362417
-0.00605429
-0.000442244
-0.00597939
-0.000520678
-0.00589343
-0.000597431
-0.00579671
-0.000672213
-0.00568953
-0.000744734
-0.00557226
-0.000814704
-0.00544529
-0.000881835
-0.00530906
-0.00094584
-0.00516405
-0.00100644
-0.00501077
-0.00106334
-0.00484977
-0.00111628
-0.00468165
-0.001165
-0.00450702
-0.00120921
-0.00432655
-0.00124869
-0.00414093
-0.00128317
-0.00395087
-0.00131244
-0.00375713
-0.00133628
-0.00356049
-0.00135449
-0.00336173
-0.00136688
-0.00316169
-0.00137331
-0.0029612
-0.00137362
-0.0027611
-0.0013677
-0.00256225
-0.00135547
-0.00236553
-0.00133687
-0.00217179
-0.00131188
-0.0019819
-0.00128053
-0.0017967
-0.00124286
-0.00161702
-0.00119899
-0.00144368
-0.00114909
-0.00127746
-0.00109336
-0.0011191
-0.0010321
-0.000969301
-0.000965673
-0.000828715
-0.00089452
-0.000697931
-0.000819185
-0.000577474
-0.000740316
-0.000467798
-0.000658685
-0.000369275
-0.000575202
-0.000282194
-0.000490934
-0.00020676
-0.000407126
-0.000143088
-0.000325223