/*--------------------------------*- C++ -*----------------------------------*\
  =========                 |
  \\      /  F ield         | OpenFOAM: The Open Source CFD Toolbox
   \\    /   O peration     | Website:  https://openfoam.org
    \\  /    A nd           | Version:  11
     \\/     M anipulation  |
\*---------------------------------------------------------------------------*/
FoamFile
{
    format      ascii;
    class       volScalarField;
    location    "3.7";
    object      p;
}
// * * * * * * * * * * * * * * * * * * * * * * * * * * * * * * * * * * * * * //

dimensions      [0 2 -2 0 0 0 0];

internalField   nonuniform List<scalar> 
10100
(
-1.60981e-07
0.000535965
0.00100563
0.00111133
0.000819509
0.000244543
-0.000537406
-0.00146512
-0.00248761
-0.00356303
-0.00465641
-0.00573711
-0.00677999
-0.00776423
-0.00867122
-0.00948445
-0.0101898
-0.010775
-0.0112298
-0.0115461
-0.0117173
-0.0117391
-0.0116078
-0.0113201
-0.0108743
-0.01027
-0.00950733
-0.00858738
-0.00751154
-0.00628201
-0.0049021
-0.00337555
-0.00170655
9.97685e-05
0.00203795
0.00410261
0.00628774
0.00858628
0.010991
0.0134948
0.01609
0.0187678
0.02152
0.0243389
0.0272172
0.0301461
0.0331159
0.036117
0.0391415
0.0421821
0.0452306
0.0482771
0.0513114
0.0543241
0.0573069
0.0602522
0.0631513
0.0659949
0.068773
0.0714766
0.0740973
0.0766276
0.0790594
0.081384
0.0835925
0.0856765
0.0876287
0.0894426
0.0911124
0.0926325
0.0939979
0.0952038
0.0962459
0.097121
0.0978268
0.0983618
0.0987252
0.0989172
0.0989389
0.0987927
0.0984822
0.0980127
0.0973914
0.096627
0.0957302
0.0947134
0.0935912
0.0923802
0.0910995
0.0897714
0.0884212
0.0870776
0.0857733
0.0845448
0.0834332
0.0824832
0.0817419
0.0812566
0.0810703
0.0811511
0.000410048
0.000912396
0.00125175
0.00129971
0.00106576
0.000602114
-4.04467e-05
-0.000813911
-0.00167648
-0.00259253
-0.00353065
-0.00446338
-0.00536653
-0.00621947
-0.00700462
-0.00770652
-0.00831193
-0.00880939
-0.00918854
-0.00944104
-0.00956032
-0.00954095
-0.00937907
-0.00907206
-0.00861765
-0.00801472
-0.00726361
-0.00636472
-0.00531902
-0.00412919
-0.00279836
-0.00132889
0.000275877
0.00201052
0.0038693
0.00584745
0.00793987
0.0101401
0.0124411
0.014836
0.0173173
0.0198773
0.0225082
0.0252032
0.0279549
0.0307548
0.0335932
0.0364615
0.0393525
0.0422592
0.0451735
0.0480855
0.0509852
0.0538639
0.0567141
0.0595287
0.0622993
0.0650165
0.0676707
0.0702534
0.0727571
0.0751748
0.077499
0.0797215
0.0818335
0.0838273
0.0856959
0.0874336
0.089035
0.0904952
0.0918092
0.0929728
0.0939821
0.0948346
0.0955283
0.0960623
0.0964361
0.0966501
0.0967055
0.096605
0.0963524
0.0959531
0.0954145
0.0947455
0.0939566
0.0930599
0.0920693
0.0910009
0.089873
0.0887061
0.0875239
0.0863524
0.0852208
0.0841606
0.083206
0.0823927
0.081755
0.0813261
0.0811488
0.0812295
0.00129215
0.00164099
0.00180711
0.00176516
0.0015235
0.00110301
0.000534613
-0.000146617
-0.000906346
-0.00171442
-0.00254389
-0.00337047
-0.00417185
-0.00492823
-0.00562278
-0.0062411
-0.00677046
-0.0072002
-0.00752069
-0.00772344
-0.00780207
-0.00775091
-0.00756526
-0.00724279
-0.00678199
-0.006181
-0.0054392
-0.00455732
-0.00353663
-0.00237926
-0.00108774
0.000335712
0.00188793
0.00356388
0.00535821
0.00726642
0.00928385
0.0114044
0.0136214
0.0159279
0.0183169
0.0207813
0.0233139
0.0259082
0.0285569
0.0312516
0.0339832
0.0367435
0.0395258
0.0423233
0.0451279
0.0479301
0.0507201
0.0534898
0.0562322
0.0589402
0.0616059
0.06422
0.0667734
0.0692579
0.0716667
0.073993
0.0762299
0.0783694
0.0804034
0.0823242
0.0841254
0.0858018
0.0873482
0.0887599
0.0900326
0.0911621
0.0921452
0.0929796
0.0936638
0.0941971
0.0945793
0.0948109
0.0948933
0.0948289
0.0946216
0.0942771
0.0938027
0.0932073
0.0925014
0.0916963
0.0908055
0.0898439
0.088829
0.08778
0.0867186
0.0856685
0.0846557
0.0837078
0.0828538
0.0821234
0.0815445
0.0811441
0.080967
0.0810392
0.00240496
0.00257656
0.00259303
0.00245325
0.00216667
0.00174253
0.00120041
0.000566049
-0.000133845
-0.000873232
-0.00162912
-0.00238043
-0.00310766
-0.00379275
-0.00441962
-0.00497495
-0.00544659
-0.0058238
-0.00609811
-0.00626181
-0.00630796
-0.00623119
-0.00602733
-0.00569351
-0.0052277
-0.00462849
-0.00389553
-0.00302902
-0.00202967
-0.000899507
0.000358907
0.0017435
0.00325126
0.00487733
0.00661687
0.00846606
0.0104205
0.012474
0.0146197
0.0168512
0.0191623
0.0215464
0.0239962
0.0265052
0.0290664
0.031672
0.0343135
0.0369828
0.0396732
0.042378
0.0450896
0.0477987
0.050496
0.0531736
0.0558247
0.0584423
0.0610189
0.0635456
0.0660137
0.0684154
0.0707441
0.0729933
0.0751565
0.077226
0.0791941
0.0810537
0.0827986
0.0844235
0.0859238
0.087295
0.0885331
0.0896344
0.0905957
0.0914151
0.0920912
0.0926238
0.0930126
0.0932584
0.0933624
0.093327
0.093156
0.092855
0.0924314
0.091894
0.0912527
0.0905185
0.0897037
0.0888228
0.0878917
0.0869286
0.0859532
0.0849871
0.0840534
0.0831765
0.0823815
0.0816939
0.0811377
0.0807372
0.0805324
0.08055
0.00362236
0.0036396
0.00352752
0.00329484
0.00294931
0.00249904
0.00195847
0.00134608
0.000682594
-1.04351e-05
-0.000713071
-0.00140695
-0.00207528
-0.00270243
-0.00327369
-0.00377638
-0.00419972
-0.00453352
-0.00476894
-0.00489898
-0.00491761
-0.00481932
-0.00459993
-0.00425686
-0.00378786
-0.00319123
-0.00246688
-0.00161519
-0.000636437
0.000467963
0.00169565
0.00304433
0.00451079
0.00609049
0.00777934
0.00957418
0.0114706
0.0134621
0.0155418
0.0177041
0.0199434
0.0222534
0.0246267
0.0270569
0.0295374
0.0320609
0.0346192
0.0372043
0.0398096
0.0424287
0.0450542
0.0476773
0.0502889
0.0528811
0.0554475
0.0579814
0.0604757
0.0629216
0.0653109
0.067636
0.0698906
0.0720687
0.0741639
0.076169
0.0780767
0.0798801
0.0815732
0.083151
0.084609
0.0859431
0.0871496
0.0882251
0.0891666
0.0899722
0.0906409
0.0911724
0.0915667
0.0918246
0.0919472
0.0919369
0.0917973
0.0915339
0.0911541
0.0906663
0.0900799
0.0894052
0.0886537
0.0878389
0.0869758
0.0860809
0.0851723
0.0842693
0.0833923
0.0825628
0.0818026
0.0811333
0.0805758
0.0801514
0.079889
0.0798067
0.00496244
0.00481492
0.00457679
0.00425106
0.00383797
0.00334597
0.00278745
0.00217695
0.00153064
0.000865343
0.000198112
-0.000455356
-0.00108009
-0.00166227
-0.00218961
-0.00265038
-0.00303409
-0.00333203
-0.00353614
-0.00363898
-0.00363469
-0.00351863
-0.00328701
-0.002937
-0.00246622
-0.00187302
-0.00115748
-0.000319961
0.000639549
0.00171991
0.00291883
0.004234
0.00566237
0.00719975
0.0088424
0.0105874
0.0124304
0.014365
0.0163845
0.0184837
0.0206573
0.0228991
0.0252024
0.0275607
0.0299677
0.0324161
0.034898
0.0374057
0.0399331
0.0424739
0.0450208
0.047565
0.0500978
0.0526115
0.0551002
0.0575577
0.0599768
0.0623492
0.0646664
0.0669214
0.0691082
0.0712213
0.0732545
0.0752012
0.0770541
0.0788064
0.0804524
0.0819874
0.0834071
0.0847078
0.085886
0.0869382
0.0878617
0.0886547
0.0893163
0.0898463
0.0902449
0.0905127
0.0906509
0.0906616
0.0905485
0.090317
0.0899741
0.0895278
0.0889868
0.0883605
0.08766
0.0868977
0.0860876
0.0852447
0.0843851
0.0835262
0.0826859
0.0818831
0.0811363
0.0804639
0.079884
0.0794148
0.0790705
0.0788563
0.00640824
0.00608504
0.00571671
0.00529427
0.00480642
0.00426084
0.00366869
0.00304323
0.00239696
0.00174269
0.0010948
0.000466857
-0.00012862
-0.000679456
-0.00117451
-0.00160361
-0.00195725
-0.00222736
-0.00240659
-0.00248805
-0.00246617
-0.00233657
-0.00209562
-0.00174068
-0.00126956
-0.000680807
2.56814e-05
0.000849821
0.00179167
0.0028499
0.00402218
0.00530646
0.00670014
0.0081993
0.00980027
0.0115001
0.0132946
0.0151777
0.0171428
0.0191849
0.021299
0.0234794
0.0257194
0.0280128
0.0303533
0.0327338
0.0351465
0.0375844
0.0400414
0.0425115
0.0449873
0.0474602
0.0499216
0.0523645
0.0547832
0.0571719
0.0595234
0.0618296
0.0640821
0.0662742
0.0684
0.0704547
0.0724324
0.0743267
0.0761305
0.0778371
0.0794411
0.0809378
0.0823235
0.0835947
0.0847478
0.0857796
0.086687
0.0874685
0.0881232
0.0886511
0.0890526
0.0893281
0.0894788
0.0895068
0.0894156
0.0892102
0.0888974
0.0884844
0.0879792
0.0873907
0.0867293
0.0860065
0.0852352
0.084429
0.0836021
0.0827699
0.0819482
0.0811533
0.0804011
0.0797068
0.0790861
0.0785547
0.0781103
0.0777441
0.00793426
0.00742897
0.0069251
0.0064013
0.00583154
0.00522338
0.00458689
0.0039326
0.00327152
0.00261422
0.00197161
0.00135556
0.000777053
0.000246027
-0.000227752
-0.000635003
-0.000967294
-0.00121714
-0.00137785
-0.00144332
-0.00140855
-0.00126923
-0.00102179
-0.00066392
-0.000193809
0.000389864
0.0010873
0.00189861
0.00282392
0.0038618
0.00500982
0.00626604
0.00762821
0.00909281
0.0106563
0.0123156
0.0140665
0.0159029
0.0178187
0.0198093
0.0218701
0.0239955
0.0261787
0.0284137
0.0306941
0.0330134
0.0353641
0.0377395
0.0401335
0.04254
0.0449518
0.0473605
0.0497579
0.0521375
0.0544938
0.0568211
0.0591124
0.0613594
0.0635542
0.0656901
0.0677618
0.0697646
0.0716931
0.073541
0.0753012
0.0769674
0.0785341
0.0799971
0.0813529
0.0825982
0.0837295
0.0847432
0.0856364
0.0864073
0.0870554
0.0875807
0.0879836
0.0882647
0.0884251
0.0884669
0.0883932
0.0882088
0.0879197
0.0875324
0.0870544
0.0864942
0.0858613
0.0851665
0.0844215
0.0836383
0.0828297
0.0820089
0.0811901
0.0803873
0.0796137
0.078882
0.0782058
0.0775984
0.077041
0.076511
0.00951429
0.00882408
0.00818139
0.00755137
0.00689348
0.00621521
0.00552554
0.0048321
0.00414436
0.00347157
0.00282248
0.00220664
0.0016335
0.0011118
0.000649915
0.00025585
-6.29396e-05
-0.000299553
-0.000447872
-0.00050246
-0.000458859
-0.000313144
-6.19664e-05
0.000296783
0.000764702
0.00134291
0.00203148
0.00283057
0.00374037
0.00475948
0.00588545
0.00711643
0.00845036
0.00988398
0.0114138
0.0130367
0.0147484
0.0165429
0.0184146
0.0203591
0.0223723
0.0244486
0.0265811
0.0287636
0.0309902
0.0332549
0.0355505
0.0378703
0.0402082
0.042558
0.0449126
0.0472641
0.0496047
0.0519284
0.0542296
0.0565028
0.0587408
0.0609356
0.0630793
0.0651657
0.0671898
0.0691471
0.0710326
0.0728398
0.074562
0.0761927
0.0777268
0.0791605
0.0804904
0.0817132
0.0828255
0.0838234
0.0847038
0.0854651
0.0861067
0.0866289
0.0870321
0.0873169
0.0874846
0.0875369
0.0874769
0.0873085
0.087037
0.0866686
0.0862101
0.0856695
0.0850558
0.0843788
0.0836489
0.0828768
0.0820737
0.0812513
0.0804221
0.0795979
0.0787898
0.078008
0.0772646
0.0765709
0.075892
0.0751923
0.0111228
0.0102475
0.00946459
0.00872544
0.00797446
0.00721941
0.00646873
0.00572787
0.0050042
0.00430568
0.00363986
0.00301419
0.00243648
0.00191469
0.00145619
0.0010676
0.000755353
0.000525688
0.000384219
0.000335844
0.000384484
0.000533603
0.000786155
0.00114398
0.00160853
0.00218084
0.00286087
0.00364857
0.00454402
0.00554586
0.00665185
0.00786036
0.00916938
0.0105756
0.0120754
0.0136656
0.0153422
0.0170995
0.018932
0.020836
0.0228071
0.0248396
0.0269269
0.0290629
0.031242
0.0334586
0.0357057
0.0379765
0.0402648
0.0425645
0.0448687
0.0471699
0.049461
0.0517358
0.053989
0.0562149
0.0584065
0.0605557
0.062655
0.0646984
0.0666813
0.0685995
0.0704478
0.0722201
0.0739094
0.0755095
0.0770156
0.0784241
0.0797319
0.0809356
0.0820314
0.0830155
0.0838848
0.0846374
0.0852728
0.0857915
0.086194
0.0864811
0.0866538
0.0867137
0.0866634
0.0865063
0.0862471
0.0858912
0.0854453
0.0849168
0.0843139
0.0836455
0.0829208
0.0821492
0.0813405
0.0805053
0.0796541
0.0787973
0.0779438
0.0771017
0.0762819
0.0754944
0.0746887
0.0738173
0.0127363
0.0116778
0.0107544
0.00990455
0.00905717
0.00822012
0.0074021
0.00660675
0.0058394
0.00510686
0.00441552
0.00377137
0.00318091
0.0026511
0.0021883
0.00179817
0.00148631
0.00125816
0.00111873
0.00107239
0.00112258
0.00127233
0.00152422
0.00187973
0.00234005
0.00290612
0.00357781
0.0043549
0.00523726
0.00622358
0.00731185
0.00850062
0.00978782
0.0111699
0.0126431
0.0142044
0.01585
0.0175746
0.0193731
0.0212415
0.0231756
0.0251697
0.0272172
0.0293124
0.0314503
0.0336251
0.0358301
0.0380581
0.0403031
0.0425591
0.0448197
0.0470777
0.0493263
0.0515592
0.0537711
0.0559563
0.0581079
0.0602181
0.0622795
0.0642865
0.0662345
0.0681195
0.0699365
0.0716792
0.0733407
0.074915
0.0763975
0.0777848
0.079074
0.0802616
0.0813436
0.082316
0.0831755
0.0839204
0.0845502
0.0850654
0.0854665
0.0857544
0.08593
0.0859948
0.0859507
0.0858005
0.0855485
0.0851997
0.0847602
0.0842369
0.0836372
0.0829692
0.0822409
0.0814605
0.0806367
0.0797788
0.078896
0.077997
0.0770891
0.0761783
0.0752751
0.0743883
0.0734531
0.0724103
0.014335
0.0130963
0.0120323
0.0110707
0.0101251
0.00920231
0.00831178
0.00745619
0.00663899
0.00586543
0.00514105
0.00447118
0.00386122
0.00331671
0.00284296
0.00244511
0.00212821
0.00189692
0.00175542
0.00170743
0.00175604
0.00190395
0.00215343
0.00250555
0.00296112
0.00352079
0.00418435
0.00495154
0.00582222
0.00679507
0.00786808
0.00903973
0.0103079
0.0116688
0.0131188
0.0146551
0.0162739
0.0179705
0.0197396
0.0215773
0.0234793
0.02544
0.0274533
0.0295137
0.0316163
0.0337554
0.0359242
0.0381156
0.0403234
0.0425422
0.0447659
0.0469877
0.0492004
0.0513982
0.0535754
0.0557264
0.0578444
0.0599219
0.0619518
0.0639286
0.065848
0.0677057
0.0694969
0.0712152
0.0728538
0.0744068
0.0758699
0.0772399
0.0785139
0.0796882
0.0807588
0.0817215
0.082573
0.0833114
0.0839362
0.0844479
0.0848471
0.0851346
0.0853113
0.0853783
0.085337
0.0851899
0.0849405
0.0845937
0.0841551
0.0836308
0.0830276
0.0823526
0.0816128
0.0808156
0.0799684
0.0790794
0.0781567
0.0772075
0.0762375
0.0752515
0.0742595
0.0732697
0.0722037
0.0709918
0.0159003
0.014486
0.0132826
0.012208
0.0111626
0.0101518
0.00918501
0.00826438
0.0073921
0.00657188
0.00580852
0.00510694
0.00447153
0.00390647
0.00341625
0.00300564
0.00267914
0.00244055
0.00229321
0.00224041
0.00228492
0.00242908
0.0026747
0.00302247
0.00347281
0.00402609
0.00468199
0.0054403
0.00630091
0.00726237
0.00832247
0.0094795
0.0107312
0.012074
0.0135043
0.0150195
0.016616
0.0182889
0.0200331
0.0218446
0.0237192
0.0256519
0.0276365
0.0296678
0.031741
0.0338502
0.0359886
0.0381492
0.0403263
0.0425144
0.0447079
0.0469
0.0490836
0.0512526
0.0534014
0.0555245
0.0576153
0.0596665
0.0616711
0.0636238
0.0655204
0.0673566
0.0691272
0.070826
0.0724462
0.0739824
0.0754303
0.0767868
0.0780487
0.0792126
0.0802741
0.0812292
0.0820744
0.0828076
0.0834283
0.0839367
0.0843337
0.0846198
0.0847958
0.0848626
0.0848212
0.0846735
0.0844229
0.0840735
0.0836306
0.0830997
0.0824869
0.0817984
0.0810403
0.0802192
0.0793415
0.0784143
0.0774444
0.0764381
0.0753998
0.0743332
0.0732483
0.0721531
0.0709565
0.0695787
0.0174155
0.0158313
0.0144909
0.0133028
0.0121563
0.0110557
0.0100097
0.00902013
0.00808838
0.00721716
0.00641027
0.00567191
0.0050057
0.0044151
0.00390405
0.00347663
0.00313656
0.00288689
0.00273047
0.0026703
0.00270881
0.00284776
0.00308833
0.00343084
0.00387553
0.00442266
0.00507182
0.00582264
0.00667485
0.00762681
0.00867613
0.00982094
0.011059
0.0123869
0.0138012
0.0152992
0.0168774
0.0185308
0.0202543
0.0220442
0.0238965
0.0258063
0.0277678
0.0297757
0.031825
0.0339098
0.0360235
0.0381595
0.040312
0.042476
0.0446458
0.0468147
0.0489755
0.0511219
0.0532487
0.0553501
0.0574199
0.0594509
0.0614363
0.0633709
0.0652503
0.0670702
0.0688253
0.0705094
0.072116
0.0736396
0.0750763
0.0764228
0.0776759
0.0788321
0.0798872
0.0808368
0.0816774
0.0824068
0.0830241
0.0835298
0.0839242
0.0842081
0.0843822
0.0844468
0.0844026
0.0842513
0.0839956
0.0836395
0.0831877
0.0826452
0.0820173
0.0813095
0.0805273
0.0796761
0.0787617
0.07779
0.076767
0.0756977
0.0745861
0.0734348
0.0722541
0.0710523
0.069726
0.0681857
0.0188663
0.0171181
0.0156438
0.0143427
0.0130939
0.011902
0.0107748
0.00971328
0.00871855
0.0077927
0.00693847
0.00615907
0.00545771
0.00483763
0.00430215
0.00385438
0.00349722
0.0032333
0.00306528
0.00299584
0.00302679
0.00315918
0.00339362
0.00373023
0.00416921
0.00471082
0.0053544
0.00609923
0.00694465
0.00788885
0.0089294
0.0100645
0.011292
0.0126084
0.0140103
0.0154949
0.0170586
0.0186965
0.0204038
0.0221767
0.0240118
0.025904
0.0278477
0.0298375
0.0318682
0.0339343
0.0360291
0.0381464
0.0402806
0.0424268
0.0445793
0.0467312
0.0488753
0.0510054
0.0531161
0.0552021
0.057257
0.0592739
0.0612461
0.0631683
0.0650359
0.0668447
0.0685892
0.0702633
0.0718607
0.0733762
0.0748056
0.0761457
0.0773933
0.0785447
0.0795958
0.0805422
0.0813801
0.0821071
0.0827221
0.0832254
0.0836174
0.0838988
0.0840698
0.0841306
0.0840815
0.0839238
0.0836598
0.0832932
0.0828283
0.0822696
0.0816219
0.0808899
0.0800783
0.0791919
0.0782353
0.0772139
0.0761324
0.0749956
0.0738066
0.0725676
0.0712891
0.06998
0.0685254
0.0668263
0.0202419
0.0183341
0.0167291
0.0153162
0.0139645
0.0126801
0.0114702
0.0103346
0.00927403
0.00829032
0.00738542
0.00656167
0.00582193
0.00516917
0.00460599
0.00413462
0.00375743
0.00347694
0.00329557
0.00321529
0.00323714
0.00336162
0.00358914
0.0039197
0.00435345
0.00489039
0.00552954
0.00626967
0.00710977
0.008048
0.00908208
0.0102102
0.0114302
0.0127385
0.0141316
0.0156064
0.0171594
0.0187859
0.0204813
0.0222423
0.0240651
0.0259449
0.027876
0.0298528
0.0318703
0.0339231
0.036005
0.0381097
0.0402318
0.0423663
0.0445074
0.0466482
0.0487817
0.0509016
0.0530025
0.0550791
0.0571252
0.059134
0.0610988
0.063014
0.0648752
0.0666778
0.0684167
0.0700856
0.0716786
0.0731903
0.0746166
0.075954
0.0771993
0.078349
0.0793987
0.0803442
0.0811812
0.0819073
0.0825212
0.0830229
0.0834129
0.0836916
0.083859
0.0839148
0.083859
0.0836925
0.0834174
0.0830371
0.0825555
0.0819768
0.081305
0.0805444
0.079699
0.0787726
0.0777694
0.0766936
0.0755496
0.0743415
0.0730719
0.0717429
0.0703655
0.0689489
0.0673675
0.065513
0.0215334
0.0194692
0.0177357
0.0162127
0.0147585
0.0133805
0.0120866
0.0108753
0.00974672
0.00870242
0.00774401
0.00687334
0.00609272
0.00540448
0.00481062
0.00431294
0.00391361
0.00361491
0.00341866
0.003326
0.00333731
0.00345288
0.00367313
0.00399796
0.00442722
0.00496041
0.00559602
0.00633253
0.00716884
0.00810318
0.00913332
0.0102574
0.011473
0.0127765
0.014164
0.0156326
0.0171788
0.0187983
0.0204867
0.0222404
0.024056
0.0259284
0.0278518
0.0298208
0.0318306
0.0338758
0.0359505
0.0380486
0.0401646
0.0422934
0.044429
0.0465646
0.0486934
0.050809
0.0529062
0.0549795
0.0570228
0.0590293
0.0609923
0.0629061
0.0647661
0.0665677
0.0683058
0.0699747
0.071568
0.0730805
0.0745077
0.0758462
0.0770928
0.0782438
0.079295
0.0802418
0.0810801
0.0818069
0.082421
0.0829224
0.0833112
0.0835875
0.0837509
0.0838008
0.0837369
0.0835597
0.0832713
0.0828747
0.0823735
0.0817713
0.0810719
0.0802789
0.0793956
0.0784252
0.0773712
0.0762374
0.0750274
0.0737449
0.0723924
0.0709717
0.0694945
0.0679706
0.0662637
0.0642566
0.0227334
0.0205152
0.0186547
0.017023
0.0154669
0.0139946
0.0126153
0.011327
0.0101288
0.00902184
0.00800764
0.00708782
0.00626403
0.00553785
0.00491093
0.00438503
0.0039621
0.00364378
0.00343108
0.00332454
0.00332425
0.00343046
0.00364356
0.00396321
0.00438863
0.0049187
0.00555159
0.0062857
0.00711996
0.00805269
0.00908164
0.0102046
0.0114189
0.0127206
0.014106
0.0155721
0.0171158
0.0187327
0.0204188
0.0221702
0.0239834
0.0258532
0.027774
0.0297405
0.031748
0.0337915
0.0358649
0.0379623
0.0400779
0.0422066
0.0443425
0.0464789
0.0486088
0.0507262
0.0528255
0.0549015
0.0569479
0.0589578
0.0609245
0.0628423
0.0647063
0.0665122
0.0682549
0.0699287
0.0715273
0.0730451
0.0744776
0.0758212
0.0770727
0.0782285
0.0792841
0.0802348
0.0810764
0.0818059
0.0824221
0.0829246
0.0833132
0.0835876
0.083747
0.0837905
0.0837174
0.0835284
0.0832251
0.0828101
0.0822868
0.0816584
0.0809281
0.0800992
0.0791745
0.0781567
0.0770487
0.0758535
0.0745747
0.0732154
0.071778
0.0702641
0.0686864
0.0670551
0.0652238
0.0630665
0.0238349
0.0214648
0.0194785
0.0177387
0.016081
0.0145143
0.0130485
0.0116818
0.0104127
0.0092415
0.00816972
0.00719874
0.00632967
0.00556357
0.00490196
0.00434651
0.0038987
0.00355931
0.00332869
0.0032071
0.0031947
0.00329167
0.00349801
0.00381286
0.00423485
0.00476236
0.00539346
0.00612666
0.00696096
0.00789459
0.008925
0.0100496
0.0112654
0.0125686
0.0139554
0.0154231
0.0169686
0.0185877
0.0202762
0.0220301
0.0238456
0.0257177
0.0276411
0.0296106
0.0316216
0.033669
0.0357471
0.0378494
0.0399703
0.0421047
0.0442466
0.0463895
0.0485265
0.0506514
0.0527589
0.0548433
0.0568985
0.0589174
0.0608934
0.0628205
0.0646941
0.0665097
0.0682623
0.0699462
0.071555
0.0730828
0.0745251
0.075878
0.0771383
0.0783023
0.0793655
0.080323
0.0811705
0.0819051
0.0825253
0.0830305
0.0834202
0.0836934
0.0838491
0.083886
0.0838035
0.0836019
0.0832825
0.0828478
0.0823004
0.0816432
0.0808794
0.0800118
0.0790427
0.0779745
0.0768094
0.0755502
0.0742001
0.0727619
0.0712378
0.0696296
0.0679504
0.0662116
0.0642564
0.0619506
0.0248307
0.022311
0.0201997
0.0183519
0.0165929
0.0149316
0.0133787
0.0119324
0.0105908
0.00935421
0.00822342
0.00719956
0.00628349
0.00547614
0.00477878
0.00419266
0.00371859
0.00335673
0.00310712
0.00297001
0.00294552
0.00303354
0.00323347
0.00354378
0.00396262
0.00448825
0.00511886
0.00585305
0.00668967
0.00762662
0.00866102
0.00978996
0.0110103
0.0123182
0.0137103
0.0151839
0.0167357
0.0183616
0.0200571
0.0218182
0.0236409
0.0255205
0.0274519
0.0294299
0.0314502
0.0335075
0.0355957
0.0377086
0.0398406
0.0419863
0.04414
0.0462952
0.0484452
0.0505835
0.0527048
0.0548034
0.056873
0.0589065
0.0608972
0.0628392
0.0647278
0.0665587
0.0683267
0.0700259
0.0716498
0.0731924
0.074649
0.0760156
0.0772888
0.0784648
0.079539
0.0805065
0.0813629
0.0821052
0.0827318
0.0832415
0.0836334
0.0839063
0.0840589
0.0840898
0.083998
0.0837836
0.0834475
0.0829918
0.0824188
0.0817311
0.0809316
0.0800228
0.079007
0.0778858
0.0766612
0.0753356
0.0739118
0.0723927
0.0707803
0.0690763
0.0672948
0.0654478
0.063369
0.0609155
0.0257138
0.0230465
0.0208113
0.0188554
0.0169949
0.0152389
0.0135984
0.0120712
0.0106561
0.00935279
0.0081618
0.00708377
0.00611953
0.00527001
0.004536
0.00391806
0.00341649
0.0030312
0.00276214
0.00260957
0.00257335
0.00265272
0.00284639
0.00315234
0.00356861
0.00409351
0.00472534
0.00546261
0.00630381
0.00724642
0.00828726
0.00942324
0.0106512
0.0119675
0.013369
0.0148527
0.0164154
0.0180526
0.0197597
0.0215327
0.0233677
0.0252601
0.027205
0.0291974
0.0312327
0.0333054
0.0354095
0.0375387
0.0396874
0.0418503
0.0440217
0.0461952
0.0483638
0.0505213
0.0526621
0.0547804
0.05687
0.0589237
0.0609347
0.0628973
0.0648066
0.0666582
0.068447
0.0701666
0.0718106
0.0733729
0.0748484
0.0762333
0.0775237
0.0787157
0.0798046
0.0807855
0.0816541
0.082407
0.0830422
0.0835583
0.0839541
0.084228
0.0843785
0.0844041
0.0843035
0.0840764
0.0837234
0.0832459
0.0826461
0.0819266
0.0810898
0.0801382
0.0790736
0.0778973
0.076611
0.0752167
0.0737172
0.0721153
0.0704128
0.0686116
0.0667266
0.0647707
0.0625679
0.0599673
0.0264777
0.0236642
0.0213062
0.0192423
0.0172798
0.0154284
0.0136996
0.012091
0.0106013
0.00923027
0.00797807
0.00684504
0.00583189
0.00493936
0.00416779
0.0035171
0.00298721
0.00257812
0.0022898
0.00212218
0.00207452
0.00214541
0.002333
0.00263512
0.00304988
0.00357569
0.00421074
0.00495322
0.00580115
0.00675168
0.00780147
0.00894745
0.0101865
0.0115151
0.01293
0.0144282
0.016006
0.0176589
0.0193822
0.021172
0.0230246
0.0249354
0.0268995
0.028912
0.0309678
0.0330616
0.0351872
0.0373385
0.0395098
0.0416958
0.0438909
0.0460885
0.0482817
0.0504641
0.05263
0.0547737
0.0568888
0.0589683
0.0610054
0.0629944
0.0649301
0.066808
0.0686228
0.0703681
0.0720371
0.0736239
0.0751231
0.0765308
0.0778428
0.079055
0.0801626
0.0811607
0.0820447
0.0828111
0.0834574
0.0839821
0.0843834
0.0846598
0.0848095
0.0848309
0.0847223
0.0844829
0.0841128
0.0836132
0.0829861
0.0822339
0.0813588
0.0803629
0.0792478
0.0780147
0.0766647
0.0751998
0.0736226
0.0719359
0.0701417
0.0682417
0.0662519
0.0641861
0.0618588
0.0591112
0.027117
0.0241576
0.0216771
0.0195057
0.0174404
0.0154926
0.0136748
0.0119844
0.0104195
0.00897981
0.00766558
0.00647698
0.00541441
0.00447817
0.00366821
0.00298418
0.00242587
0.00199324
0.0016861
0.0015038
0.00144494
0.00150755
0.00168958
0.00198895
0.00240382
0.00293247
0.0035728
0.00432256
0.00517936
0.00614016
0.00720169
0.00836091
0.00961471
0.0109596
0.0123921
0.0139088
0.015506
0.017179
0.0189233
0.0207351
0.0226106
0.0245454
0.0265344
0.0285724
0.0306544
0.0327749
0.0349277
0.0371069
0.0393067
0.041522
0.0437468
0.0459744
0.048198
0.0504111
0.0526079
0.0547827
0.0569291
0.0590402
0.0611093
0.0631304
0.0650983
0.0670081
0.0688542
0.0706302
0.0723294
0.0739455
0.0754733
0.0769083
0.0782465
0.0794833
0.0806138
0.0816329
0.0825357
0.0833185
0.0839786
0.084514
0.0849231
0.0852038
0.0853544
0.0853726
0.0852568
0.0850055
0.0846186
0.084097
0.0834424
0.082657
0.0817429
0.0807017
0.0795347
0.0782429
0.0768274
0.0752901
0.0736335
0.0718604
0.0699726
0.0679723
0.0658763
0.0636996
0.061247
0.0583519
0.0276266
0.0245207
0.0219171
0.0196378
0.0174695
0.0154247
0.0135172
0.0117443
0.0101035
0.00859449
0.00721763
0.00597301
0.00486057
0.0038801
0.00303131
0.00231385
0.0017275
0.00127192
0.000946408
0.000749705
0.000679887
0.000734788
0.000912364
0.0012106
0.00162753
0.00216105
0.00280866
0.00356775
0.00443568
0.00540943
0.00648584
0.00766185
0.00893419
0.0102992
0.0117532
0.0132926
0.0149133
0.016611
0.0183814
0.0202204
0.0221244
0.0240886
0.0261079
0.028177
0.0302907
0.0324435
0.0346294
0.0368424
0.0390769
0.0413275
0.043588
0.0458517
0.0481116
0.0503612
0.0525948
0.0548065
0.0569902
0.0591391
0.0612462
0.0633054
0.0653112
0.0672584
0.0691413
0.0709534
0.0726879
0.0743385
0.0758997
0.0773669
0.0787358
0.0800016
0.0811592
0.0822032
0.0831284
0.0839308
0.0846076
0.0851564
0.0855755
0.0858627
0.0860158
0.0860324
0.0859102
0.0856478
0.0852446
0.0847012
0.0840192
0.0832005
0.0822467
0.0811593
0.0799391
0.0785872
0.0771047
0.0754933
0.0737555
0.0718943
0.0699114
0.0678093
0.0656057
0.0633169
0.060738
0.0576945
0.028001
0.0247474
0.0220197
0.0196315
0.0173599
0.0152179
0.0132198
0.0113634
0.00964608
0.00806739
0.00662749
0.00532642
0.00416374
0.00313886
0.00225131
0.00150081
0.000886949
0.000408953
6.54618e-05
-0.000145306
-0.000225474
-0.000177189
-2.45087e-06
0.000296596
0.000717603
0.00125796
0.00191481
0.00268542
0.00356707
0.00455683
0.00565156
0.00684804
0.00814271
0.00953167
0.011011
0.012577
0.0142257
0.015953
0.0177545
0.0196262
0.0215639
0.0235629
0.0256178
0.0277235
0.0298744
0.0320653
0.0342901
0.036543
0.0388183
0.0411102
0.0434125
0.0457183
0.0480205
0.0503127
0.0525891
0.054844
0.0570713
0.059264
0.0614153
0.0635187
0.0655683
0.0675587
0.069484
0.0713377
0.0731129
0.0748031
0.0764029
0.0779073
0.0793118
0.0806113
0.0818003
0.0828732
0.0838246
0.0846502
0.0853469
0.0859122
0.086344
0.0866399
0.0867975
0.0868139
0.0866867
0.086414
0.0859953
0.0854308
0.0847218
0.0838695
0.0828755
0.081741
0.0804666
0.0790534
0.0775023
0.0758154
0.0739951
0.0720441
0.0699646
0.0677591
0.0654466
0.0630443
0.0603377
0.057144
0.0282341
0.0248315
0.0219786
0.0194805
0.0171048
0.0148648
0.0127754
0.0108346
0.00904021
0.00739154
0.00588835
0.00453047
0.00331733
0.00224813
0.00132231
0.000539377
-0.000101432
-0.000601451
-0.000962534
-0.00118671
-0.00127611
-0.00123282
-0.00105902
-0.000757219
-0.000330238
0.00021888
0.000887131
0.00167176
0.00257009
0.00357919
0.00469584
0.00591647
0.00723714
0.00865374
0.0101623
0.0117592
0.0134406
0.0152023
0.0170401
0.0189496
0.0209264
0.0229654
0.0250613
0.0272089
0.0294028
0.0316374
0.0339072
0.036206
0.0385281
0.0408675
0.0432176
0.0455715
0.0479221
0.0502631
0.0525886
0.0548931
0.0571702
0.0594132
0.0616149
0.0637686
0.0658682
0.0679079
0.0698815
0.0717825
0.073604
0.0753396
0.0769834
0.0785303
0.0799753
0.0813133
0.0825383
0.0836444
0.0846261
0.0854788
0.0861991
0.0867843
0.0872318
0.0875391
0.0877033
0.0877214
0.0875906
0.0873091
0.086876
0.0862912
0.0855554
0.0846697
0.0836351
0.0824527
0.0811233
0.0796477
0.078027
0.0762632
0.0743588
0.0723167
0.0701391
0.0678287
0.0654057
0.0628882
0.0600519
0.0567056
0.02832
0.024767
0.0217877
0.0191785
0.0166973
0.0143582
0.0121767
0.0101509
0.00827877
0.0065597
0.00499301
0.00357812
0.00231446
0.00120126
0.000237764
-0.000576985
-0.00124427
-0.00176589
-0.00214391
-0.0023804
-0.00247743
-0.00243726
-0.00226247
-0.00195604
-0.0015212
-0.00096124
-0.000279139
0.000522418
0.0014407
0.00247266
0.0036148
0.00486316
0.00621341
0.0076614
0.00920334
0.0108356
0.0125544
0.0143557
0.0162349
0.0181873
0.0202082
0.0222923
0.0244347
0.0266297
0.0288722
0.0311566
0.0334772
0.0358279
0.0382029
0.0405957
0.0429997
0.0454078
0.0478131
0.0502092
0.0525904
0.0549509
0.0572845
0.0595842
0.0618427
0.0640531
0.0662088
0.0683039
0.0703321
0.0722867
0.0741606
0.0759474
0.077641
0.0792359
0.0807269
0.0821084
0.0833743
0.0845184
0.0855349
0.086419
0.087167
0.0877759
0.0882425
0.088564
0.0887374
0.0887594
0.0886271
0.0883385
0.0878923
0.087288
0.086526
0.0856068
0.0845315
0.0833008
0.0819158
0.080377
0.0786857
0.0768439
0.074854
0.0727193
0.070442
0.068025
0.0654896
0.0628549
0.0598862
0.056384
0.0282531
0.0245476
0.0214403
0.0187188
0.0161303
0.0136906
0.0114163
0.00930493
0.00735452
0.00556445
0.0039339
0.00246199
0.00114803
-8.74354e-06
-0.0010094
-0.00185545
-0.00254871
-0.0030912
-0.00348502
-0.00373224
-0.00383507
-0.00379613
-0.00361849
-0.00330554
-0.00286079
-0.00228755
-0.00158874
-0.000767006
0.000174715
0.00123307
0.00240423
0.00368382
0.0050673
0.00655067
0.00813035
0.00980276
0.011564
0.0134097
0.0153353
0.0173356
0.0194056
0.0215402
0.0237343
0.0259825
0.0282794
0.0306194
0.0329968
0.0354054
0.0378392
0.0402914
0.0427554
0.045224
0.0476903
0.0501481
0.0525916
0.0550149
0.0574116
0.0597746
0.0620964
0.0643698
0.0665881
0.0687451
0.0708344
0.072849
0.0747818
0.0766261
0.0783755
0.0800243
0.0815669
0.0829973
0.0843094
0.0854966
0.0865529
0.0874731
0.0882533
0.0888898
0.0893793
0.0897185
0.089904
0.0899326
0.0898013
0.0895075
0.0890496
0.088427
0.0876394
0.0866872
0.0855713
0.0842924
0.0828513
0.0812487
0.0794859
0.0775649
0.0754883
0.0732594
0.0708806
0.068355
0.0657049
0.0629504
0.0598461
0.0561837
0.028028
0.0241666
0.0209292
0.0180936
0.0153966
0.012855
0.0104868
0.00828925
0.00625991
0.00439819
0.00270338
0.00117455
-0.000189273
-0.00138913
-0.00242651
-0.00330336
-0.00402181
-0.00458401
-0.00499205
-0.00524816
-0.00535488
-0.00531531
-0.00513294
-0.00481141
-0.0043543
-0.00376493
-0.00304615
-0.00220076
-0.00123206
-0.000143807
0.00105985
0.00237429
0.00379497
0.00531807
0.00694017
0.0086576
0.0104661
0.0123612
0.014338
0.0163912
0.0185155
0.020706
0.0229574
0.0252645
0.0276217
0.0300233
0.0324634
0.0349359
0.0374343
0.0399521
0.0424821